Title
81335
    1CHL1    C3    1   5.026   0.597  10.392  0.9262  0.2152  0.4920
    1CHL1    H3    2   5.072   0.696  10.369  0.1356  0.5058  0.1168
    1CHL1    O3    3   5.011   0.583  10.529  0.1601 -0.2648 -0.1321
    1CHL1   H3'    4   4.968   0.500  10.553 -0.5684  0.8296  2.7938
    1CHL1    C4    5   4.890   0.580  10.327  0.6225 -0.6415 -0.1612
    1CHL1   H4A    6   4.833   0.496  10.373  1.0751  0.1877  2.0368
    1CHL1   H4B    7   4.829   0.666  10.361  1.4801 -0.4917  1.0430
    1CHL1    C5    8   4.896   0.562  10.170 -0.4479 -0.3405 -0.0638
    1CHL1    C6    9   4.832   0.648  10.087  0.6558 -0.0658 -0.4415
    1CHL1    H6   10   4.760   0.718  10.132 -1.8282 -2.0039 -1.1694
    1CHL1    C7   11   4.831   0.640   9.935 -0.4559 -0.4966 -0.1535
    1CHL1   H7A   12   4.732   0.660   9.889 -0.0905 -0.6852 -1.0402
    1CHL1   H7B   13   4.912   0.706   9.898  2.2948 -2.4643  1.9121
    1CHL1    C8   14   4.877   0.499   9.883 -0.5520 -0.2589  0.3417
    1CHL1    H8   15   4.788   0.433   9.893 -0.1806 -0.5074  2.7269
    1CHL1   C14   16   4.920   0.508   9.734  0.0325 -0.1910 -0.2903
    1CHL1   H14   17   5.002   0.584   9.732  0.2273 -0.4149 -0.7299
    1CHL1   C15   18   4.812   0.576   9.646 -0.0341 -0.3927  0.1413
    1CHL1  H15A   19   4.709   0.541   9.667 -0.0634  0.0878  0.8062
    1CHL1  H15B   20   4.812   0.687   9.645  0.1298 -0.3867 -0.6693
    1CHL1   C16   21   4.861   0.528   9.502 -0.4843 -0.7149 -0.7810
    1CHL1  H16A   22   4.774   0.483   9.449 -1.0308 -2.5418  1.4880
    1CHL1  H16B   23   4.909   0.619   9.460 -1.7473  0.7219  0.7285
    1CHL1   C17   24   4.981   0.422   9.530 -0.3339  0.1664 -0.6885
    1CHL1   H17   25   5.074   0.482   9.541  0.1324 -0.8152  0.9451
    1CHL1   C13   26   4.965   0.379   9.676  0.1168  0.0828  0.5126
    1CHL1   C18   27   4.855   0.268   9.686 -0.0778  0.1091 -0.3365
    1CHL1  H18A   28   4.840   0.244   9.793 -0.5647 -0.1359 -0.4571
    1CHL1  H18B   29   4.758   0.314   9.660 -1.7370 -3.0440 -0.1635
    1CHL1  H18C   30   4.874   0.174   9.629  0.7630  0.5072 -0.7332
    1CHL1   C12   31   5.092   0.326   9.750  0.2415  0.0658  0.3671
    1CHL1  H12A   32   5.121   0.228   9.708  1.0305  0.6295 -0.4420
    1CHL1  H12B   33   5.167   0.404   9.723 -0.7257  0.5963 -0.9452
    1CHL1   C11   34   5.069   0.323   9.904  0.0562  0.2578  0.7532
    1CHL1  H11A   35   5.003   0.236   9.925 -0.6521  0.6601  0.2625
    1CHL1  H11B   36   5.168   0.298   9.947 -0.9778 -2.4428  1.7730
    1CHL1    C9   37   5.006   0.455   9.966  0.5937 -0.0232  0.0253
    1CHL1    H9   38   5.070   0.540   9.934 -0.1523  0.7854  0.6519
    1CHL1   C10   39   4.983   0.450  10.120  0.5095 -0.0116  0.1356
    1CHL1   C19   40   4.924   0.317  10.169  0.0145 -0.2615 -1.1763
    1CHL1  H19A   41   4.830   0.281  10.121 -0.7606 -0.7666  0.6290
    1CHL1  H19B   42   4.996   0.233  10.156  1.1687  0.8834 -2.3737
    1CHL1  H19C   43   4.900   0.330  10.277  4.2792  0.7255 -0.1750
    1CHL1    C1   44   5.120   0.473  10.191  0.8543 -0.3177  0.6021
    1CHL1   H1A   45   5.188   0.388  10.167  0.3647 -0.5209 -0.1224
    1CHL1   H1B   46   5.166   0.565  10.148 -0.7877  1.0210  1.5931
    1CHL1    C2   47   5.123   0.481  10.349  0.0625 -0.1535  0.4525
    1CHL1   H2A   48   5.227   0.514  10.368 -0.2182 -0.0528  1.9019
    1CHL1   H2B   49   5.098   0.382  10.392 -1.5905 -1.2833 -2.7236
    1CHL1   C20   50   5.025   0.323   9.422 -0.6704  0.5355 -0.2020
    1CHL1   H20   51   5.036   0.223   9.469 -2.0937  0.6549  0.4578
    1CHL1   C21   52   5.170   0.356   9.367  0.1523  0.2445 -0.5411
    1CHL1  H21A   53   5.201   0.299   9.277  0.3008 -0.5044 -0.0268
    1CHL1  H21B   54   5.244   0.341   9.448 -0.4491  1.3064  0.2243
    1CHL1  H21C   55   5.169   0.458   9.323  3.1423  1.2543  1.3975
    1CHL1   C22   56   4.925   0.299   9.313  0.8961 -0.1689  0.1013
    1CHL1  H22A   57   4.822   0.284   9.353  1.1768  0.9184  1.2922
    1CHL1  H22B   58   4.922   0.390   9.248 -1.7192 -0.1216  0.1520
    1CHL1   C23   59   4.955   0.177   9.217  0.0493  0.5440 -0.0819
    1CHL1  H23A   60   5.058   0.176   9.175 -0.4431  0.1398 -1.3154
    1CHL1  H23B   61   4.938   0.081   9.272  0.6826 -1.5952 -3.3470
    1CHL1   C24   62   4.861   0.189   9.094  0.8960 -0.0492  0.0005
    1CHL1  H24A   63   4.756   0.177   9.130  0.6215  1.8475 -0.0906
    1CHL1  H24B   64   4.882   0.282   9.037 -0.8464 -0.0150 -0.6617
    1CHL1   C25   65   4.886   0.066   8.997 -0.4222 -0.4340 -0.7709
    1CHL1   H25   66   4.991   0.076   8.963 -1.1440  3.4734 -2.2972
    1CHL1   C26   67   4.876  -0.073   9.066  0.2715 -0.0261 -0.2490
    1CHL1  H26A   68   4.793  -0.083   9.139  1.4228 -3.5654  0.8111
    1CHL1  H26B   69   4.862  -0.151   8.988  0.0181  1.0608 -1.3099
    1CHL1  H26C   70   4.972  -0.095   9.118  0.2825  0.7840  0.0853
    1CHL1   C27   71   4.788   0.073   8.884 -0.1066  0.6197 -0.3728
    1CHL1  H27A   72   4.806  -0.007   8.808 -0.9539  2.2015 -2.3305
    1CHL1  H27B   73   4.687   0.063   8.930 -0.4206  2.8712 -0.4913
    1CHL1  H27C   74   4.784   0.171   8.832  0.8719  0.1547 -1.3811
    2CHL1    C3   75   6.439   5.238  10.096  0.3734 -0.0510 -0.1614
    2CHL1    H3   76   6.328   5.236  10.084  0.3902 -1.7965 -0.3080
    2CHL1    O3   77   6.490   5.248  10.230 -0.2669  0.0025  0.3174
    2CHL1   H3'   78   6.458   5.168  10.273  1.6726  0.3261  2.4867
    2CHL1    C4   79   6.499   5.110  10.030 -0.0764 -0.2028  0.1265
    2CHL1   H4A   80   6.609   5.111  10.048  0.1354  0.8970 -1.0978
    2CHL1   H4B   81   6.452   5.020  10.075  0.1357 -1.0969 -1.3916
    2CHL1    C5   82   6.465   5.122   9.880 -0.5718 -0.5239 -0.9673
    2CHL1    C6   83   6.404   5.022   9.820 -0.2365 -0.3896 -0.3243
    2CHL1    H6   84   6.394   4.933   9.884  1.1563  1.2404  2.3548
    2CHL1    C7   85   6.369   5.011   9.672  0.3271 -0.8617 -0.1690
    2CHL1   H7A   86   6.410   4.917   9.630  0.9784  0.3731 -2.4069
    2CHL1   H7B   87   6.261   5.035   9.656  1.1204  3.0436 -0.5818
    2CHL1    C8   88   6.426   5.126   9.592  0.5596 -0.1093 -0.2244
    2CHL1    H8   89   6.535   5.108   9.575  0.5947 -0.9842  0.8364
    2CHL1   C14   90   6.355   5.150   9.462  0.4019  0.7638 -0.3473
    2CHL1   H14   91   6.264   5.208   9.487  1.6023  1.8756  1.6587
    2CHL1   C15   92   6.322   5.022   9.378 -0.3590 -0.5553 -0.3645
    2CHL1  H15A   93   6.411   4.955   9.385  0.0145  0.0374  1.1259
    2CHL1  H15B   94   6.228   4.973   9.411 -1.9114  0.7053 -2.6748
    2CHL1   C16   95   6.300   5.080   9.242 -0.3779 -0.6061 -0.1254
    2CHL1  H16A   96   6.351   5.023   9.161  0.3153 -1.8253  1.1367
    2CHL1  H16B   97   6.193   5.060   9.221 -0.2130  0.2558 -2.0124
    2CHL1   C17   98   6.340   5.232   9.240 -0.3058  0.4141  0.0155
    2CHL1   H17   99   6.241   5.279   9.256 -0.1104  1.2516 -1.1286
    2CHL1   C13  100   6.428   5.247   9.361 -0.1937  0.3037  0.0079
    2CHL1   C18  101   6.568   5.182   9.323 -0.3206 -0.0019 -0.4379
    2CHL1  H18A  102   6.624   5.248   9.253 -0.2166 -0.2767 -0.6189
    2CHL1  H18B  103   6.637   5.162   9.408 -1.1267 -0.9298  0.0207
    2CHL1  H18C  104   6.564   5.081   9.277 -1.4814 -0.5670  0.8466
    2CHL1   C12  105   6.445   5.382   9.430 -0.8664  0.2762 -0.3197
    2CHL1  H12A  106   6.494   5.462   9.371  1.2281 -2.6298 -2.8289
    2CHL1  H12B  107   6.345   5.429   9.443 -1.1119  0.2736 -1.9440
    2CHL1   C11  108   6.504   5.366   9.573  0.0741 -0.7393  0.4049
    2CHL1  H11A  109   6.612   5.348   9.552  0.1292 -0.7888  0.7310
    2CHL1  H11B  110   6.492   5.467   9.617 -0.5027 -0.5276 -0.2293
    2CHL1    C9  111   6.436   5.257   9.660 -0.6510 -0.6245 -0.5221
    2CHL1    H9  112   6.328   5.281   9.676 -0.7462  0.3189 -2.3629
    2CHL1   C10  113   6.496   5.249   9.801 -0.3693  0.4983 -0.0411
    2CHL1   C19  114   6.655   5.272   9.781 -0.5028  0.1456 -0.2372
    2CHL1  H19A  115   6.707   5.262   9.879 -0.0410  2.6494 -0.1636
    2CHL1  H19B  116   6.686   5.195   9.707 -0.6079 -0.8198  0.6923
    2CHL1  H19C  117   6.675   5.376   9.750  1.0761 -1.1249 -4.0197
    2CHL1    C1  118   6.442   5.372   9.889 -0.6155  0.1161 -0.6524
    2CHL1   H1A  119   6.487   5.462   9.842 -0.7594 -0.9106 -2.8746
    2CHL1   H1B  120   6.332   5.373   9.874 -0.4925  1.6407 -1.6126
    2CHL1    C2  121   6.484   5.366  10.032 -0.8329 -1.0583  0.1974
    2CHL1   H2A  122   6.435   5.444  10.093  1.6964  0.0469  0.9502
    2CHL1   H2B  123   6.594   5.382  10.041 -0.6474 -2.2546  0.2211
    2CHL1   C20  124   6.392   5.281   9.105 -0.1127  0.7424  0.7665
    2CHL1   H20  125   6.480   5.220   9.076  0.6767  0.9068  2.6823
    2CHL1   C21  126   6.450   5.427   9.110  0.0049  0.0753  0.2798
    2CHL1  H21A  127   6.375   5.500   9.148  0.1909  0.6676 -0.4630
    2CHL1  H21B  128   6.466   5.467   9.007  3.1298  2.2831  1.4712
    2CHL1  H21C  129   6.547   5.436   9.163  1.8170 -1.2127 -2.5556
    2CHL1   C22  130   6.279   5.265   8.998  0.4058 -0.9518 -0.6501
    2CHL1  H22A  131   6.328   5.293   8.902  0.9637 -0.7803 -0.3195
    2CHL1  H22B  132   6.249   5.158   8.993  0.9195 -1.4718  3.8195
    2CHL1   C23  133   6.149   5.348   9.017  0.8776  0.0551 -0.6127
    2CHL1  H23A  134   6.106   5.334   9.119  0.4559  1.8503 -0.5185
    2CHL1  H23B  135   6.177   5.456   9.019  0.7376  0.1034  1.5421
    2CHL1   C24  136   6.052   5.327   8.906  0.1300 -0.0981  0.4026
    2CHL1  H24A  137   6.112   5.342   8.814 -2.4991  0.2266 -1.3536
    2CHL1  H24B  138   6.002   5.229   8.899  0.0194  0.0105 -0.4055
    2CHL1   C25  139   5.924   5.421   8.888 -0.3000  0.2778 -0.6050
    2CHL1   H25  140   5.862   5.397   8.976 -1.3769 -0.5737 -1.5695
    2CHL1   C26  141   5.963   5.569   8.896  0.5635  0.2311 -0.2338
    2CHL1  H26A  142   5.873   5.633   8.889  1.0288  1.0962  1.2833
    2CHL1  H26B  143   6.021   5.602   8.985 -1.6895  0.8994  1.0371
    2CHL1  H26C  144   6.030   5.582   8.807  0.2797 -0.9978 -0.6426
    2CHL1   C27  145   5.839   5.386   8.757  0.2518 -0.0183 -0.0290
    2CHL1  H27A  146   5.883   5.432   8.666  1.9377  0.0844  0.7928
    2CHL1  H27B  147   5.830   5.278   8.734  1.2950 -0.2058  0.3957
    2CHL1  H27C  148   5.731   5.410   8.770  0.6422  1.5113  0.6529
    3CHL1    C3  149   5.821   5.016  10.361 -0.3798  0.5359 -1.1275
    3CHL1    H3  150   5.841   4.910  10.335  1.0225  0.6893 -0.7203
    3CHL1    O3  151   5.837   5.022  10.506  0.2333  0.6686  0.0083
    3CHL1   H3'  152   5.765   5.074  10.542 -0.2433  0.4927 -0.6792
    3CHL1    C4  153   5.925   5.102  10.288  1.0531 -0.0934  0.6177
    3CHL1   H4A  154   5.911   5.200  10.339  0.2770  0.0051  0.2361
    3CHL1   H4B  155   6.026   5.063  10.309  0.7541 -0.8952  0.5852
    3CHL1    C5  156   5.900   5.109  10.137 -0.3059  0.1382  0.1004
    3CHL1    C6  157   5.997   5.071  10.055 -0.5407  0.7419  0.7148
    3CHL1    H6  158   6.096   5.053  10.100 -0.3098 -1.0141 -0.4233
    3CHL1    C7  159   5.992   5.083   9.904 -0.0009  0.0363 -0.2365
    3CHL1   H7A  160   6.077   5.146   9.869 -2.1678  2.0066 -2.3303
    3CHL1   H7B  161   6.000   4.981   9.862 -2.1492 -1.5558  2.8485
    3CHL1    C8  162   5.863   5.151   9.850  0.1687  0.0473 -0.1859
    3CHL1    H8  163   5.887   5.258   9.873 -0.5687 -0.0975  1.4229
    3CHL1   C14  164   5.847   5.125   9.702 -0.6073  0.0769  0.4818
    3CHL1   H14  165   5.823   5.017   9.689 -0.8521  0.2840 -0.9579
    3CHL1   C15  166   5.963   5.145   9.603  0.5783 -0.1253  1.0888
    3CHL1  H15A  167   6.012   5.240   9.631  2.9773 -0.3899 -1.7274
    3CHL1  H15B  168   6.032   5.057   9.598 -0.3578 -0.8177 -1.3951
    3CHL1   C16  169   5.880   5.161   9.473 -0.1669 -0.2568 -0.3523
    3CHL1  H16A  170   5.883   5.269   9.449 -1.1133 -0.0528  0.4011
    3CHL1  H16B  171   5.919   5.104   9.386  0.8655  0.2501 -0.2269
    3CHL1   C17  172   5.733   5.130   9.492  0.1204 -0.7286  0.8882
    3CHL1   H17  173   5.708   5.022   9.492 -3.2711 -0.1170 -1.6393
    3CHL1   C13  174   5.710   5.177   9.637 -0.3501  0.6187 -0.7504
    3CHL1   C18  175   5.703   5.331   9.650 -0.0292 -0.3262 -0.7078
    3CHL1  H18A  176   5.609   5.368   9.604 -1.7856 -1.4917  1.7284
    3CHL1  H18B  177   5.693   5.357   9.758  2.0066 -0.3742 -0.4606
    3CHL1  H18C  178   5.791   5.388   9.614 -0.7890  1.0137 -0.5009
    3CHL1   C12  179   5.591   5.113   9.716  0.3801  0.2137 -0.3406
    3CHL1  H12A  180   5.506   5.177   9.682  0.2995  2.7529  3.8856
    3CHL1  H12B  181   5.595   5.004   9.692  2.1721 -0.5632  2.9059
    3CHL1   C11  182   5.604   5.134   9.868 -0.4297 -0.5241 -0.2761
    3CHL1  H11A  183   5.585   5.242   9.890  2.1387 -0.1563  0.4505
    3CHL1  H11B  184   5.520   5.076   9.910 -3.2145  0.3675 -4.0642
    3CHL1    C9  185   5.741   5.103   9.933  0.2050  0.8858  0.4633
    3CHL1    H9  186   5.746   4.992   9.930 -0.4933  0.8052  1.5650
    3CHL1   C10  187   5.751   5.137  10.094  0.4519 -0.5950  0.1325
    3CHL1   C19  188   5.729   5.286  10.111 -0.2107 -0.0374 -0.3942
    3CHL1  H19A  189   5.790   5.334  10.032 -0.7554  2.1657  0.4723
    3CHL1  H19B  190   5.626   5.323  10.094 -1.1653 -2.4523 -0.2553
    3CHL1  H19C  191   5.753   5.306  10.218 -0.8803  0.1287 -0.2712
    3CHL1    C1  192   5.649   5.051  10.180 -0.7542 -0.0511  0.5756
    3CHL1   H1A  193   5.546   5.080  10.149  0.2427  1.1456 -1.8651
    3CHL1   H1B  194   5.664   4.948  10.141  0.9067 -0.0451  1.0957
    3CHL1    C2  195   5.680   5.057  10.329  0.1672  0.1270 -0.7027
    3CHL1   H2A  196   5.602   4.995  10.377  1.2147 -0.6050  0.0958
    3CHL1   H2B  197   5.661   5.161  10.363 -2.3312 -1.3240  3.0057
    3CHL1   C20  198   5.633   5.196   9.394  0.1684  0.1762  0.2736
    3CHL1   H20  199   5.647   5.304   9.412  2.2473  0.0388 -0.2187
    3CHL1   C21  200   5.487   5.153   9.416 -0.3382  0.9811 -0.2872
    3CHL1  H21A  201   5.424   5.196   9.336 -0.8771  1.5759  0.4392
    3CHL1  H21B  202   5.441   5.194   9.509  3.8795 -0.8974  2.9624
    3CHL1  H21C  203   5.472   5.043   9.409 -2.1318  1.2060 -0.4381
    3CHL1   C22  204   5.681   5.171   9.248  0.1221 -0.4762  0.0599
    3CHL1  H22A  205   5.608   5.226   9.185 -0.2319 -3.2120 -2.1216
    3CHL1  H22B  206   5.778   5.220   9.227 -0.3066  1.3653  1.9693
    3CHL1   C23  207   5.682   5.022   9.211  0.4032 -0.0673  0.1033
    3CHL1  H23A  208   5.757   4.974   9.277 -0.2633 -2.0670 -0.4961
    3CHL1  H23B  209   5.582   4.978   9.234  0.1923 -0.2119 -1.0453
    3CHL1   C24  210   5.720   5.006   9.061 -0.3386  0.0238  0.9134
    3CHL1  H24A  211   5.814   5.060   9.036 -0.1803 -1.3801 -1.9890
    3CHL1  H24B  212   5.742   4.898   9.043 -0.0619 -0.0080  1.4148
    3CHL1   C25  213   5.614   5.054   8.958 -0.7767  0.4009 -1.7846
    3CHL1   H25  214   5.585   5.157   8.986 -4.4176 -1.1207  0.7887
    3CHL1   C26  215   5.685   5.050   8.823 -0.1864  0.5370  0.3480
    3CHL1  H26A  216   5.724   4.950   8.792 -0.8853  0.4149 -0.1585
    3CHL1  H26B  217   5.614   5.076   8.741  1.3000 -0.3626 -1.2980
    3CHL1  H26C  218   5.777   5.112   8.832  0.7840 -0.9896  1.3494
    3CHL1   C27  219   5.485   4.976   8.965 -0.1607 -0.4746  0.2375
    3CHL1  H27A  220   5.501   4.868   8.947 -1.1618 -1.2755  3.3726
    3CHL1  H27B  221   5.449   4.982   9.070  0.2095 -1.0517  0.4007
    3CHL1  H27C  222   5.410   5.011   8.891  0.5416  1.7747  0.5045
    4CHL1    C3  223   6.146   6.699  10.451  0.3886 -0.0421  0.1953
    4CHL1    H3  224   6.148   6.810  10.449 -0.5910 -0.0234 -1.9355
    4CHL1    O3  225   6.151   6.668  10.592 -0.1263 -0.0263  0.1445
    4CHL1   H3'  226   6.176   6.576  10.594  0.3171  0.0751 -0.2491
    4CHL1    C4  227   6.015   6.648  10.398 -0.3546  0.3917  0.2903
    4CHL1   H4A  228   6.006   6.539  10.418 -1.8146  1.0989  4.3629
    4CHL1   H4B  229   5.943   6.700  10.464  1.1468  0.7296  1.7340
    4CHL1    C5  230   6.002   6.673  10.251  0.1214 -0.4211  0.7638
    4CHL1    C6  231   5.894   6.743  10.209 -0.4353  0.4657  0.9406
    4CHL1    H6  232   5.811   6.765  10.279  0.6904  1.4311  2.0378
    4CHL1    C7  233   5.871   6.763  10.064 -0.4043 -0.4178 -0.0961
    4CHL1   H7A  234   5.762   6.752  10.040 -0.8490 -1.0854  2.0428
    4CHL1   H7B  235   5.896   6.868  10.039 -2.0183  1.0031  3.5646
    4CHL1    C8  236   5.959   6.678   9.967 -0.0475  0.6059  0.2998
    4CHL1    H8  237   5.923   6.572   9.967  0.5021  0.4176  0.5974
    4CHL1   C14  238   5.957   6.735   9.823 -0.2931  0.9012  0.5687
    4CHL1   H14  239   6.007   6.834   9.831 -1.7526  1.7751 -0.6734
    4CHL1   C15  240   5.822   6.762   9.747  0.7564 -0.5694 -0.1838
    4CHL1  H15A  241   5.763   6.668   9.754  0.0578 -0.0368  1.8394
    4CHL1  H15B  242   5.759   6.850   9.773  3.1682  1.5917 -1.1166
    4CHL1   C16  243   5.869   6.791   9.600  0.5030  0.0479 -0.2541
    4CHL1  H16A  244   5.824   6.719   9.528  1.3637  1.1510 -1.9724
    4CHL1  H16B  245   5.836   6.892   9.571  1.3954 -0.1863 -2.2974
    4CHL1   C17  246   6.023   6.761   9.603  0.2921 -0.3520  0.1046
    4CHL1   H17  247   6.070   6.860   9.622  0.7760 -1.1092  3.5039
    4CHL1   C13  248   6.049   6.672   9.724  0.5732  0.0126  0.0563
    4CHL1   C18  249   6.002   6.530   9.690 -0.2269 -0.6223  0.8102
    4CHL1  H18A  250   5.898   6.525   9.652  0.6791 -1.1198 -1.8134
    4CHL1  H18B  251   6.065   6.484   9.611  0.2953  1.8873 -0.3282
    4CHL1  H18C  252   5.998   6.467   9.782  0.6408  1.1035  2.0701
    4CHL1   C12  253   6.197   6.670   9.778 -0.1204 -0.3268  0.3064
    4CHL1  H12A  254   6.269   6.608   9.721 -1.2073 -2.7275  1.4227
    4CHL1  H12B  255   6.231   6.776   9.780 -1.1009 -0.0048  0.5576
    4CHL1   C11  256   6.209   6.615   9.913 -0.1044 -1.0321  0.9464
    4CHL1  H11A  257   6.195   6.504   9.914 -0.3283 -1.0414 -0.5529
    4CHL1  H11B  258   6.313   6.633   9.945 -0.6425 -0.5909  2.5476
    4CHL1    C9  259   6.108   6.671  10.015  0.5083 -0.0986 -0.3996
    4CHL1    H9  260   6.127   6.780  10.029 -1.2723  0.0259  1.6220
    4CHL1   C10  261   6.121   6.626  10.162  0.3262  0.0531  0.3171
    4CHL1   C19  262   6.106   6.467  10.166 -0.0910 -0.1461  0.1476
    4CHL1  H19A  263   6.039   6.438  10.082  0.3783 -1.0113  0.0552
    4CHL1  H19B  264   6.199   6.413  10.139  0.4271  1.1428 -0.7571
    4CHL1  H19C  265   6.063   6.427  10.260 -0.1759  0.8279  0.5307
    4CHL1    C1  266   6.259   6.674  10.222  0.0132 -0.3667 -0.1047
    4CHL1   H1A  267   6.341   6.618  10.174 -0.8946 -1.9194  0.0693
    4CHL1   H1B  268   6.266   6.780  10.190 -3.4373 -0.2377 -0.8831
    4CHL1    C2  269   6.272   6.650  10.374 -0.3059  0.2405 -0.9898
    4CHL1   H2A  270   6.370   6.690  10.408 -0.1163 -0.1543 -1.0716
    4CHL1   H2B  271   6.275   6.541  10.397 -0.4376  0.1538 -1.3694
    4CHL1   C20  272   6.071   6.710   9.463  0.1587  0.0911  0.7981
    4CHL1   H20  273   6.028   6.610   9.440  0.4976  0.4452 -1.6048
    4CHL1   C21  274   6.221   6.703   9.454  0.4722 -0.2643 -0.0548
    4CHL1  H21A  275   6.259   6.803   9.483  0.7389 -0.1400 -0.8312
    4CHL1  H21B  276   6.262   6.668   9.357 -0.9065 -2.0547 -0.0675
    4CHL1  H21C  277   6.258   6.626   9.526  0.8416  0.6447  0.7400
    4CHL1   C22  278   6.020   6.805   9.359  0.0336  0.3353  0.6655
    4CHL1  H22A  279   5.915   6.771   9.346 -0.8914  1.7518  3.3795
    4CHL1  H22B  280   6.004   6.908   9.398 -1.1826  0.7237 -0.7833
    4CHL1   C23  281   6.099   6.819   9.225  0.0988  0.3910  0.2446
    4CHL1  H23A  282   6.197   6.868   9.242  0.5271 -0.1666 -0.5541
    4CHL1  H23B  283   6.122   6.714   9.199  1.3654  0.5929  0.5104
    4CHL1   C24  284   6.022   6.877   9.109 -0.0658 -0.3543  0.3971
    4CHL1  H24A  285   5.922   6.830   9.121  0.5951 -1.9019  0.0732
    4CHL1  H24B  286   6.014   6.986   9.131 -2.6185 -0.0634 -1.4636
    4CHL1   C25  287   6.077   6.828   8.969  0.6019 -1.0375 -0.7389
    4CHL1   H25  288   6.069   6.717   8.973 -0.7178 -0.9371  0.8488
    4CHL1   C26  289   5.987   6.878   8.860 -0.3109 -0.1708  0.0773
    4CHL1  H26A  290   5.992   6.989   8.853  2.8027 -0.2375 -0.1731
    4CHL1  H26B  291   6.023   6.849   8.759 -0.3845  0.2100 -0.0600
    4CHL1  H26C  292   5.886   6.837   8.875 -0.8160 -0.4653 -3.3981
    4CHL1   C27  293   6.223   6.880   8.947  0.7497  0.3336  0.0902
    4CHL1  H27A  294   6.269   6.805   8.879  0.9317  0.3097  0.2394
    4CHL1  H27B  295   6.223   6.978   8.895  3.6244  0.4350  0.0884
    4CHL1  H27C  296   6.274   6.871   9.045 -2.2685  0.0217  1.7487
    5CHL1    C3  297   6.111   4.719  10.225  0.2767  0.1748 -0.2595
    5CHL1    H3  298   6.091   4.822  10.189 -0.1973  0.7751  1.6054
    5CHL1    O3  299   6.099   4.711  10.367  0.0987 -0.6109  0.3445
    5CHL1   H3'  300   6.162   4.652  10.408  0.4385 -0.0562  0.6401
    5CHL1    C4  301   6.015   4.630  10.158 -0.2295  0.0188  0.1015
    5CHL1   H4A  302   6.029   4.522  10.179  0.9936  0.4636  1.8581
    5CHL1   H4B  303   5.914   4.656  10.198 -0.0462 -0.8989  1.2210
    5CHL1    C5  304   6.021   4.652  10.005  0.3343 -0.4031 -0.3793
    5CHL1    C6  305   5.912   4.678   9.931  0.0612  0.0185 -1.0615
    5CHL1    H6  306   5.813   4.695   9.977  1.1016  0.3319  1.2132
    5CHL1    C7  307   5.906   4.699   9.791  0.4124 -0.2418  0.4984
    5CHL1   H7A  308   5.819   4.641   9.755  1.9800 -1.1887 -2.0316
    5CHL1   H7B  309   5.887   4.808   9.775 -0.4963 -0.6594 -1.6103
    5CHL1    C8  310   6.024   4.636   9.721 -0.0910 -0.6720  0.3391
    5CHL1    H8  311   6.013   4.525   9.724 -0.9268 -0.5903  0.7673
    5CHL1   C14  312   6.027   4.679   9.578 -0.9961  0.2234 -0.5603
    5CHL1   H14  313   6.054   4.786   9.574 -1.2990  0.3418  0.3592
    5CHL1   C15  314   5.898   4.664   9.505  0.1017  0.5422  0.3805
    5CHL1  H15A  315   5.840   4.572   9.527 -0.6222  0.1862 -2.6551
    5CHL1  H15B  316   5.837   4.757   9.512  1.2777  1.5372 -1.8319
    5CHL1   C16  317   5.946   4.653   9.355  0.6505  0.3006 -0.2373
    5CHL1  H16A  318   5.927   4.548   9.323  1.1991  0.0745  0.1530
    5CHL1  H16B  319   5.880   4.712   9.289  0.3054 -0.9951 -1.0832
    5CHL1   C17  320   6.105   4.664   9.357  0.4758  0.5822  0.3358
    5CHL1   H17  321   6.130   4.772   9.362  0.3621  0.5456  3.1434
    5CHL1   C13  322   6.144   4.607   9.497 -0.1227  0.5046  0.0483
    5CHL1   C18  323   6.122   4.450   9.491 -0.6464  0.0387  0.5452
    5CHL1  H18A  324   6.153   4.406   9.588 -0.2350  1.4192  1.0682
    5CHL1  H18B  325   6.013   4.434   9.479 -1.1418  3.6586 -1.1992
    5CHL1  H18C  326   6.196   4.409   9.418  0.6152  1.4855  0.9513
    5CHL1   C12  327   6.278   4.661   9.559  1.0189 -0.1757 -0.9904
    5CHL1  H12A  328   6.366   4.611   9.513  0.7474 -1.7385  0.1026
    5CHL1  H12B  329   6.280   4.771   9.544  0.6347  0.3958  2.3404
    5CHL1   C11  330   6.281   4.620   9.707  0.2463  0.5073 -0.3643
    5CHL1  H11A  331   6.276   4.509   9.708  1.0653  0.4681  0.2138
    5CHL1  H11B  332   6.380   4.646   9.751 -0.2273 -0.4786  1.4134
    5CHL1    C9  333   6.160   4.670   9.794 -0.6565  0.5064  0.1297
    5CHL1    H9  334   6.163   4.781   9.789 -0.9328  0.4623 -1.7604
    5CHL1   C10  335   6.162   4.629   9.948 -0.1407 -0.2903 -0.2135
    5CHL1   C19  336   6.190   4.473   9.959  0.2568 -0.2179 -0.5117
    5CHL1  H19A  337   6.174   4.443  10.064 -0.4399 -2.3862 -1.1811
    5CHL1  H19B  338   6.118   4.426   9.889 -2.1390  0.9816  1.0011
    5CHL1  H19C  339   6.294   4.447   9.932  1.0551  1.8331  0.3831
    5CHL1    C1  340   6.264   4.717  10.033 -0.4476  0.6027 -0.3577
    5CHL1   H1A  341   6.365   4.685  10.003  0.2099 -0.5302  2.7030
    5CHL1   H1B  342   6.239   4.823  10.008  1.2572  0.6802 -1.9126
    5CHL1    C2  343   6.261   4.700  10.183  0.2124 -0.2240 -0.2731
    5CHL1   H2A  344   6.329   4.771  10.235 -1.4013  0.3032  1.1894
    5CHL1   H2B  345   6.303   4.601  10.211  0.0207 -0.5540 -1.1096
    5CHL1   C20  346   6.162   4.605   9.224 -0.3196 -0.8733  0.4652
    5CHL1   H20  347   6.155   4.494   9.222  2.3784 -1.1302  1.0339
    5CHL1   C21  348   6.319   4.631   9.212 -1.2939  0.6797 -0.6476
    5CHL1  H21A  349   6.353   4.737   9.213  1.7798 -0.2291  0.0705
    5CHL1  H21B  350   6.360   4.566   9.132  0.2642 -0.6526  1.1734
    5CHL1  H21C  351   6.377   4.589   9.297  0.0063  0.9089 -1.3966
    5CHL1   C22  352   6.083   4.649   9.102  0.3665  0.3183 -0.1067
    5CHL1  H22A  353   5.975   4.630   9.118  0.7380 -1.5336  0.3788
    5CHL1  H22B  354   6.115   4.751   9.071 -0.6158  0.2612 -1.3963
    5CHL1   C23  355   6.108   4.564   8.981  0.1535 -0.5571  0.5957
    5CHL1  H23A  356   6.211   4.572   8.941 -0.5207  1.7928 -0.8636
    5CHL1  H23B  357   6.089   4.455   8.994  0.3365 -0.6496  0.1190
    5CHL1   C24  358   6.006   4.606   8.867  0.2891  0.2683 -0.2106
    5CHL1  H24A  359   5.909   4.580   8.914  0.1319  0.5506 -0.3753
    5CHL1  H24B  360   6.011   4.716   8.847 -2.9123  0.9565  2.0818
    5CHL1   C25  361   6.021   4.548   8.729  0.8445 -0.1905  0.3814
    5CHL1   H25  362   6.016   4.437   8.733  0.5153 -0.1533  1.3553
    5CHL1   C26  363   5.905   4.600   8.642 -0.5520  0.0490  0.6123
    5CHL1  H26A  364   5.809   4.587   8.696 -1.6704  1.8243 -0.8368
    5CHL1  H26B  365   5.921   4.708   8.621  3.2289 -0.0720  2.1456
    5CHL1  H26C  366   5.899   4.536   8.551  0.6737  0.0239  0.5325
    5CHL1   C27  367   6.159   4.597   8.669  0.2893 -0.6682  0.2789
    5CHL1  H27A  368   6.252   4.591   8.729  1.4836  0.9882 -1.3066
    5CHL1  H27B  369   6.184   4.540   8.576 -1.6624  2.0505 -2.1025
    5CHL1  H27C  370   6.143   4.701   8.635 -3.2443 -1.0821  0.3171
    6CHL1    C3  371   3.930   2.369  10.636 -0.5564 -0.5050 -0.3577
    6CHL1    H3  372   3.832   2.413  10.608 -0.5567  2.7257  3.7039
    6CHL1    O3  373   3.955   2.393  10.776  0.6903  0.3171  0.0707
    6CHL1   H3'  374   3.912   2.324  10.826  0.1036  1.1903  0.8054
    6CHL1    C4  375   3.937   2.219  10.610 -0.5540 -0.1625  0.6471
    6CHL1   H4A  376   4.026   2.183  10.667  1.0849  1.2390 -0.8784
    6CHL1   H4B  377   3.852   2.162  10.653  0.8908 -1.5246  1.8312
    6CHL1    C5  378   3.947   2.177  10.466 -0.3826  0.3979 -0.8116
    6CHL1    C6  379   3.859   2.085  10.417  0.3228 -0.3517 -0.1714
    6CHL1    H6  380   3.779   2.041  10.479 -1.0033  2.8913  0.6417
    6CHL1    C7  381   3.868   2.047  10.268  0.1617  0.6148  0.2904
    6CHL1   H7A  382   3.869   1.937  10.255  3.4080  0.8061 -2.2244
    6CHL1   H7B  383   3.775   2.080  10.216  0.0440  2.0446  1.3374
    6CHL1    C8  384   3.999   2.096  10.193 -0.4270  0.6454 -0.4627
    6CHL1    H8  385   4.077   2.026  10.227 -1.3561 -1.2483 -2.0146
    6CHL1   C14  386   3.985   2.087  10.039  0.2901 -0.2759  0.3108
    6CHL1   H14  387   3.916   2.174  10.032  0.8431  0.2192  0.9434
    6CHL1   C15  388   3.912   1.969   9.979  0.6574  0.1051  0.4359
    6CHL1  H15A  389   3.971   1.876   9.994 -1.8518 -1.9799 -1.7360
    6CHL1  H15B  390   3.811   1.958  10.023  0.2309 -0.5268 -0.6534
    6CHL1   C16  391   3.928   2.001   9.827 -0.3028  0.5015 -0.0875
    6CHL1  H16A  392   3.964   1.905   9.785 -1.3909 -0.2696  0.6671
    6CHL1  H16B  393   3.828   2.027   9.786 -0.2458  1.6238  0.4415
    6CHL1   C17  394   4.030   2.111   9.813  0.2538  0.2958 -0.4792
    6CHL1   H17  395   3.967   2.203   9.804  0.1515  0.1276 -1.6732
    6CHL1   C13  396   4.102   2.131   9.954  0.0179 -0.0232  0.4207
    6CHL1   C18  397   4.210   2.020   9.963  0.4350 -0.3348  0.0992
    6CHL1  H18A  398   4.247   2.005  10.067 -2.0684  2.8793  1.6203
    6CHL1  H18B  399   4.173   1.930   9.910  1.5661 -0.3710 -0.6662
    6CHL1  H18C  400   4.300   2.049   9.904 -1.0226  1.8885 -1.1935
    6CHL1   C12  401   4.145   2.273  10.001  0.4019  0.4247  0.1782
    6CHL1  H12A  402   4.239   2.299   9.947 -0.1541  0.5805 -0.7241
    6CHL1  H12B  403   4.064   2.341   9.968  0.2274 -0.1066 -0.5092
    6CHL1   C11  404   4.174   2.279  10.150  0.0172  0.2142 -0.4228
    6CHL1  H11A  405   4.260   2.213  10.174 -1.2539 -2.0648 -1.8259
    6CHL1  H11B  406   4.191   2.388  10.168 -4.3739  1.3396 -1.8387
    6CHL1    C9  407   4.042   2.234  10.234 -0.1640 -0.8296 -0.6158
    6CHL1    H9  408   3.961   2.302  10.201 -0.0360 -0.2459  0.2476
    6CHL1   C10  409   4.052   2.259  10.387  0.0615 -0.4936  0.4894
    6CHL1   C19  410   4.194   2.219  10.434 -1.3558  0.3663 -0.3813
    6CHL1  H19A  411   4.213   2.111  10.419 -1.0009  0.2552  0.7850
    6CHL1  H19B  412   4.272   2.274  10.378 -1.3288 -0.0868 -0.7927
    6CHL1  H19C  413   4.205   2.244  10.542  0.6003  0.6823 -0.6143
    6CHL1    C1  414   4.036   2.410  10.413  0.1711 -0.4813 -0.3668
    6CHL1   H1A  415   4.113   2.469  10.360 -0.2334 -0.1518 -0.5959
    6CHL1   H1B  416   3.939   2.442  10.369 -0.0066  0.1990  0.4941
    6CHL1    C2  417   4.041   2.448  10.560  0.1019  0.2299  0.0912
    6CHL1   H2A  418   4.008   2.554  10.569 -2.9747 -0.6048 -0.1970
    6CHL1   H2B  419   4.141   2.428  10.604  0.3490  3.4743  1.2815
    6CHL1   C20  420   4.112   2.106   9.680  0.3616 -0.3017  0.3312
    6CHL1   H20  421   4.179   2.018   9.690  0.2428 -0.6207 -1.3860
    6CHL1   C21  422   4.189   2.241   9.670 -0.3429 -0.8372 -0.1681
    6CHL1  H21A  423   4.240   2.265   9.574 -1.6497  0.5064 -0.5649
    6CHL1  H21B  424   4.268   2.242   9.748  1.0170 -0.1939 -1.4981
    6CHL1  H21C  425   4.131   2.333   9.697  1.9153  0.6552 -0.0866
    6CHL1   C22  426   4.025   2.079   9.553 -0.0045 -0.0577  0.1183
    6CHL1  H22A  427   3.963   1.988   9.567 -0.2727 -0.0070 -0.7147
    6CHL1  H22B  428   3.954   2.164   9.553  0.5630  0.4230 -0.2614
    6CHL1   C23  429   4.107   2.056   9.427  0.5549  0.0379  1.1295
    6CHL1  H23A  430   4.156   2.151   9.399  0.7158 -0.0838  0.9916
    6CHL1  H23B  431   4.191   1.988   9.454  1.9065  0.6350 -1.2737
    6CHL1   C24  432   4.022   2.025   9.304 -1.2041  0.2309 -0.3775
    6CHL1  H24A  433   3.943   1.947   9.310  0.6682 -1.7099  0.6258
    6CHL1  H24B  434   3.977   2.121   9.270  0.8205  0.2214 -3.5516
    6CHL1   C25  435   4.102   1.983   9.175 -0.4734  0.3969  0.4732
    6CHL1   H25  436   4.148   1.884   9.194  0.8967  1.1743  1.3932
    6CHL1   C26  437   4.010   1.971   9.054 -0.6947 -0.4336  0.5312
    6CHL1  H26A  438   4.069   1.958   8.961  1.1050 -0.1134  1.5872
    6CHL1  H26B  439   3.932   1.892   9.057 -1.8267  0.3457 -3.2687
    6CHL1  H26C  440   3.947   2.062   9.043  0.4732  0.3015 -0.3633
    6CHL1   C27  441   4.222   2.074   9.151 -0.2874 -0.6377 -0.0844
    6CHL1  H27A  442   4.281   2.032   9.067 -1.0727 -1.3020 -0.3203
    6CHL1  H27B  443   4.199   2.181   9.134 -1.9642 -1.0535 -0.5902
    6CHL1  H27C  444   4.290   2.058   9.238  0.1863 -0.8253 -0.4821
    7CHL1    C3  445   0.955   4.630  10.491 -0.1216  0.4490  0.2028
    7CHL1    H3  446   1.060   4.599  10.473 -0.3087  0.2269 -0.5300
    7CHL1    O3  447   0.925   4.607  10.627  0.1585 -0.6097 -0.3408
    7CHL1   H3'  448   0.849   4.549  10.625 -0.8045  0.5349  0.9088
    7CHL1    C4  449   0.930   4.777  10.454 -0.1319 -0.6817  0.8143
    7CHL1   H4A  450   0.833   4.820  10.485  1.3933  3.1783  0.7942
    7CHL1   H4B  451   1.005   4.836  10.511  0.0251 -0.0723 -0.0101
    7CHL1    C5  452   0.938   4.799  10.302 -0.5306  0.2201  0.0046
    7CHL1    C6  453   1.025   4.887  10.251  0.9099  0.4531 -0.5280
    7CHL1    H6  454   1.071   4.959  10.320 -0.1124 -0.0578  0.7242
    7CHL1    C7  455   1.059   4.906  10.106 -0.1970  0.0655  0.6690
    7CHL1   H7A  456   1.068   5.014  10.080  0.6722 -0.6724 -2.6241
    7CHL1   H7B  457   1.157   4.863  10.077 -0.3263  0.2771 -0.1278
    7CHL1    C8  458   0.944   4.837  10.019 -0.5578 -0.6142 -0.4297
    7CHL1    H8  459   0.859   4.909  10.028 -0.1499 -0.2781  1.0389
    7CHL1   C14  460   0.982   4.846   9.871  0.3502 -0.1472 -0.4693
    7CHL1   H14  461   1.064   4.772   9.861  1.8400  1.4324 -0.3916
    7CHL1   C15  462   1.026   4.975   9.804  0.1626  0.7523 -0.0314
    7CHL1  H15A  463   0.962   5.055   9.847 -1.7165 -0.9466  0.4835
    7CHL1  H15B  464   1.131   4.996   9.834  0.2978 -2.3504  2.2143
    7CHL1   C16  465   0.997   4.958   9.655 -0.0933  0.0093 -0.5305
    7CHL1  H16A  466   0.918   5.030   9.627 -0.5922 -0.6896 -0.9431
    7CHL1  H16B  467   1.093   4.976   9.601  0.9175  1.2211  1.5551
    7CHL1   C17  468   0.945   4.814   9.637  0.1683  0.1842  0.4297
    7CHL1   H17  469   1.041   4.758   9.630  1.2024  1.9741 -0.5035
    7CHL1   C13  470   0.886   4.784   9.771  0.7428 -0.3641  0.0282
    7CHL1   C18  471   0.739   4.858   9.765  0.2640 -0.3042 -0.0582
    7CHL1  H18A  472   0.748   4.951   9.705  0.6285  0.6091  1.3528
    7CHL1  H18B  473   0.667   4.779   9.737  0.4137 -1.0060  1.4572
    7CHL1  H18C  474   0.721   4.904   9.865  3.1824  0.6871  0.1031
    7CHL1   C12  475   0.864   4.637   9.814 -0.4911  0.0284 -0.1895
    7CHL1  H12A  476   0.795   4.594   9.738 -0.4116  0.9345 -0.7825
    7CHL1  H12B  477   0.960   4.582   9.802  0.4357  1.7917 -1.3362
    7CHL1   C11  478   0.816   4.629   9.965  0.6383 -0.6055  0.0891
    7CHL1  H11A  479   0.717   4.678   9.975  1.0265  0.1015  0.5741
    7CHL1  H11B  480   0.798   4.523   9.994  3.4581 -0.6611  2.0222
    7CHL1    C9  481   0.917   4.695  10.063 -0.2900  0.5546 -0.8595
    7CHL1    H9  482   1.016   4.645  10.050  1.1491  3.4705 -2.0407
    7CHL1   C10  483   0.869   4.693  10.215  0.3294 -0.4381 -0.2322
    7CHL1   C19  484   0.718   4.734  10.233 -0.5529  0.1478  0.4314
    7CHL1  H19A  485   0.690   4.731  10.341 -1.9979 -2.5228  0.0678
    7CHL1  H19B  486   0.697   4.835  10.192  2.0356 -0.4932 -2.9080
    7CHL1  H19C  487   0.657   4.656  10.183  1.2204 -1.0901  0.1339
    7CHL1    C1  488   0.886   4.545  10.262 -0.4376 -0.9172 -0.4588
    7CHL1   H1A  489   0.802   4.492  10.211 -0.3923 -0.8775 -0.5753
    7CHL1   H1B  490   0.981   4.506  10.219 -0.1139 -0.4764 -0.1492
    7CHL1    C2  491   0.869   4.538  10.415  0.2860  0.2842 -0.1233
    7CHL1   H2A  492   0.892   4.433  10.445  0.9477  0.3983 -0.2127
    7CHL1   H2B  493   0.763   4.550  10.446 -0.0558 -2.5358  0.0676
    7CHL1   C20  494   0.861   4.803   9.507 -0.4088  0.6005  0.8094
    7CHL1   H20  495   0.756   4.837   9.513 -0.9888 -0.5172 -1.5107
    7CHL1   C21  496   0.852   4.644   9.476  0.5639 -0.2628  0.4610
    7CHL1  H21A  497   0.836   4.606   9.373  0.6157 -0.5901  0.5735
    7CHL1  H21B  498   0.769   4.618   9.544  0.8220 -3.1158 -0.1956
    7CHL1  H21C  499   0.935   4.586   9.522 -0.8290 -1.5435  1.4663
    7CHL1   C22  500   0.921   4.877   9.381 -0.4340 -0.3837  0.0294
    7CHL1  H22A  501   0.847   4.871   9.299 -1.0309  0.5355  0.4831
    7CHL1  H22B  502   0.940   4.985   9.401  2.6901 -0.5741 -1.2739
    7CHL1   C23  503   1.051   4.806   9.326 -0.1224  0.0046  0.4720
    7CHL1  H23A  504   1.120   4.801   9.413 -2.0305  1.8868  2.1929
    7CHL1  H23B  505   1.039   4.705   9.282 -1.7383  1.0480 -1.6626
    7CHL1   C24  506   1.106   4.884   9.205  0.2585 -0.2985 -0.0290
    7CHL1  H24A  507   1.103   4.991   9.236 -2.8633 -0.1106 -0.6074
    7CHL1  H24B  508   1.209   4.860   9.173  1.1021  1.0695  1.5366
    7CHL1   C25  509   1.030   4.858   9.080  0.2307 -0.4333 -0.2821
    7CHL1   H25  510   0.920   4.850   9.097  0.3856  2.7789  3.9726
    7CHL1   C26  511   1.038   4.975   8.977  0.4072  0.2848  0.2655
    7CHL1  H26A  512   1.136   4.994   8.928  0.5554  0.5406  0.6601
    7CHL1  H26B  513   0.957   4.973   8.901 -0.0927 -2.5701  0.7715
    7CHL1  H26C  514   1.007   5.071   9.023 -3.2269  0.9049 -2.9489
    7CHL1   C27  515   1.070   4.721   9.014  1.2028 -0.5886  0.8443
    7CHL1  H27A  516   1.077   4.634   9.083  0.3582 -1.1344  0.2575
    7CHL1  H27B  517   1.009   4.704   8.923  2.7995  0.3352 -0.4472
    7CHL1  H27C  518   1.163   4.724   8.953  0.2235 -1.7726 -0.7854
    8CHL1    C3  519   0.419   0.372  10.460 -0.4598  0.2157  0.2869
    8CHL1    H3  520   0.444   0.478  10.439  1.2063 -0.2520 -0.2581
    8CHL1    O3  521   0.434   0.336  10.599  0.1038 -0.8846 -0.5123
    8CHL1   H3'  522   0.416   0.242  10.611 -0.4421 -0.5457  1.9005
    8CHL1    C4  523   0.273   0.332  10.412 -0.2942 -0.3547  0.3415
    8CHL1   H4A  524   0.262   0.226  10.441  1.6173 -0.0900  2.3620
    8CHL1   H4B  525   0.202   0.399  10.464 -0.6468 -0.4319 -0.0381
    8CHL1    C5  526   0.271   0.351  10.261 -0.4105  0.3109  0.5032
    8CHL1    C6  527   0.181   0.424  10.202 -0.6425 -0.3656 -0.5372
    8CHL1    H6  528   0.109   0.469  10.271  1.8458  2.2522  0.5572
    8CHL1    C7  529   0.165   0.450  10.055  0.4888 -0.1562  0.3672
    8CHL1   H7A  530   0.064   0.427  10.015  0.6440  0.2420 -0.2591
    8CHL1   H7B  531   0.173   0.557  10.028 -0.0929 -0.1725  0.1241
    8CHL1    C8  532   0.262   0.359   9.969 -0.3017 -0.5152 -1.4846
    8CHL1    H8  533   0.212   0.260   9.961 -0.5635 -0.7004  1.4226
    8CHL1   C14  534   0.278   0.414   9.834 -0.3783 -0.3996  0.5880
    8CHL1   H14  535   0.326   0.512   9.856 -0.7601 -0.2081  0.5828
    8CHL1   C15  536   0.162   0.449   9.738 -0.3278  0.0571 -0.5219
    8CHL1  H15A  537   0.092   0.364   9.748  2.1835 -1.9813  0.8206
    8CHL1  H15B  538   0.106   0.540   9.770  0.5758  0.1178  0.9774
    8CHL1   C16  539   0.220   0.460   9.595  0.3229  0.0137 -0.0500
    8CHL1  H16A  540   0.177   0.387   9.523 -1.5056  1.5840 -0.6382
    8CHL1  H16B  541   0.202   0.551   9.534 -1.2239 -1.6965 -2.3461
    8CHL1   C17  542   0.369   0.425   9.612 -0.2069 -0.0017 -0.7231
    8CHL1   H17  543   0.408   0.525   9.643 -1.0190  0.3447 -0.7751
    8CHL1   C13  544   0.378   0.340   9.741 -0.4709 -0.2484  0.5009
    8CHL1   C18  545   0.322   0.197   9.717 -0.0188  0.4267 -0.0916
    8CHL1  H18A  546   0.402   0.144   9.661 -0.2597  1.8443 -1.8507
    8CHL1  H18B  547   0.287   0.143   9.808 -2.1810 -0.2843 -1.2801
    8CHL1  H18C  548   0.227   0.185   9.660  0.0346 -0.4140 -0.0198
    8CHL1   C12  549   0.511   0.330   9.804  0.8062  0.3428 -0.0303
    8CHL1  H12A  550   0.576   0.262   9.746 -1.4734 -0.1857 -2.1248
    8CHL1  H12B  551   0.551   0.433   9.816 -0.7164  0.8422  1.1971
    8CHL1   C11  552   0.492   0.265   9.941  0.2756  0.7804  0.6003
    8CHL1  H11A  553   0.443   0.166   9.929  0.7115  0.7687 -1.4849
    8CHL1  H11B  554   0.592   0.235   9.979 -0.4307 -3.8516 -0.6562
    8CHL1    C9  555   0.404   0.344  10.038 -0.0667  0.1994  0.3362
    8CHL1    H9  556   0.453   0.443  10.052  3.3181 -1.1125 -1.0164
    8CHL1   C10  557   0.391   0.288  10.180 -0.3620 -0.0020 -0.0869
    8CHL1   C19  558   0.362   0.141  10.167  0.4080  0.5500  0.6890
    8CHL1  H19A  559   0.443   0.083  10.118 -0.5342  1.2008 -1.7900
    8CHL1  H19B  560   0.355   0.103  10.271  0.9175 -0.2142  0.4442
    8CHL1  H19C  561   0.269   0.122  10.109  1.0209 -1.2091  0.2566
    8CHL1    C1  562   0.530   0.304  10.247 -0.0289 -0.2457 -0.6689
    8CHL1   H1A  563   0.611   0.245  10.199  0.5622  0.6372 -0.7866
    8CHL1   H1B  564   0.568   0.408  10.238 -0.7213  0.0373 -0.3873
    8CHL1    C2  565   0.527   0.284  10.401  0.3061  0.1513  0.7560
    8CHL1   H2A  566   0.624   0.302  10.452  0.0971 -1.2598  1.6873
    8CHL1   H2B  567   0.511   0.175  10.417 -0.3656 -0.0845 -1.2361
    8CHL1   C20  568   0.446   0.391   9.481 -0.2146 -0.0340  0.3700
    8CHL1   H20  569   0.442   0.280   9.469  0.8408  0.1756 -2.4780
    8CHL1   C21  570   0.593   0.441   9.491  0.1292  1.0671 -0.1447
    8CHL1  H21A  571   0.644   0.395   9.404  2.1015 -0.2284  1.5950
    8CHL1  H21B  572   0.641   0.396   9.581 -1.3707 -0.5248 -0.0757
    8CHL1  H21C  573   0.588   0.552   9.484 -0.2331  0.9971 -1.1150
    8CHL1   C22  574   0.370   0.436   9.354  0.4364 -0.2922  0.1403
    8CHL1  H22A  575   0.267   0.396   9.347 -0.0145  1.0815 -3.1768
    8CHL1  H22B  576   0.365   0.547   9.352 -1.8086 -0.3112 -2.9121
    8CHL1   C23  577   0.434   0.406   9.221 -0.7608  0.0629  0.2770
    8CHL1  H23A  578   0.535   0.452   9.221 -1.3865  1.5731  2.5529
    8CHL1  H23B  579   0.441   0.295   9.223  2.3808  0.1387 -1.2363
    8CHL1   C24  580   0.348   0.451   9.104 -0.6595  0.8533  1.2223
    8CHL1  H24A  581   0.245   0.417   9.126 -0.5043 -1.9673 -1.6941
    8CHL1  H24B  582   0.342   0.562   9.097  2.0210  1.2084  2.8728
    8CHL1   C25  583   0.384   0.393   8.964 -1.1964  0.0854 -0.2240
    8CHL1   H25  584   0.424   0.291   8.979 -1.6815 -0.0235  0.3717
    8CHL1   C26  585   0.266   0.393   8.870 -0.4334  0.9527  0.1234
    8CHL1  H26A  586   0.186   0.330   8.913 -0.9434  1.6614  0.2410
    8CHL1  H26B  587   0.220   0.493   8.852 -0.1714  1.0475 -0.0281
    8CHL1  H26C  588   0.293   0.358   8.768  2.0436  1.4431  0.5491
    8CHL1   C27  589   0.490   0.485   8.907 -0.1972  0.5704 -0.4283
    8CHL1  H27A  590   0.575   0.504   8.976 -1.3925 -1.6265  1.8260
    8CHL1  H27B  591   0.522   0.450   8.806 -0.5016  1.3846 -0.8134
    8CHL1  H27C  592   0.436   0.579   8.885 -3.0777 -1.5842 -3.3961
    9CHL1    C3  593   3.288   2.676  10.253  0.1566  0.0517 -0.1094
    9CHL1    H3  594   3.395   2.670  10.285  0.4352  0.9088 -0.8516
    9CHL1    O3  595   3.202   2.684  10.368  0.0924  0.3712 -0.9274
    9CHL1   H3'  596   3.172   2.593  10.374 -0.0895  0.3281 -2.2576
    9CHL1    C4  597   3.255   2.803  10.173 -0.0515 -0.2843 -0.0327
    9CHL1   H4A  598   3.144   2.816  10.171 -0.3496 -2.4847 -0.1157
    9CHL1   H4B  599   3.302   2.870  10.249 -0.5752 -0.2152  0.2385
    9CHL1    C5  600   3.306   2.799  10.031  0.1745 -0.2670  1.0357
    9CHL1    C6  601   3.392   2.890   9.986 -0.0366  0.0714  0.6431
    9CHL1    H6  602   3.431   2.968  10.052  0.4295 -0.1379  0.6224
    9CHL1    C7  603   3.421   2.891   9.839 -0.8826  0.2089 -0.2904
    9CHL1   H7A  604   3.421   3.001   9.823  2.9903  0.6068  1.4686
    9CHL1   H7B  605   3.525   2.855   9.825 -1.1054 -0.5716  0.0412
    9CHL1    C8  606   3.330   2.804   9.754 -0.3178  0.2411  0.3368
    9CHL1    H8  607   3.229   2.850   9.745 -0.1586  0.5322  0.0009
    9CHL1   C14  608   3.390   2.790   9.619 -0.4942 -0.2635  0.3880
    9CHL1   H14  609   3.486   2.735   9.632 -0.3386 -1.4173 -3.9379
    9CHL1   C15  610   3.427   2.918   9.536  0.5161  1.0506  0.7978
    9CHL1  H15A  611   3.357   3.002   9.554 -2.5832 -1.3166  0.7645
    9CHL1  H15B  612   3.533   2.944   9.556  0.3755  3.5475 -1.1836
    9CHL1   C16  613   3.429   2.864   9.387 -0.1642  0.4627 -0.3802
    9CHL1  H16A  614   3.357   2.922   9.325 -0.6053 -0.0900 -0.3934
    9CHL1  H16B  615   3.529   2.868   9.340 -0.2122  1.3958 -0.4295
    9CHL1   C17  616   3.384   2.713   9.399  0.8913 -0.0107 -0.3077
    9CHL1   H17  617   3.483   2.664   9.416  0.5197 -0.3962  0.8555
    9CHL1   C13  618   3.304   2.702   9.530  0.1002 -0.4584 -0.0573
    9CHL1   C18  619   3.160   2.761   9.509 -0.4360 -0.1439 -0.4405
    9CHL1  H18A  620   3.102   2.774   9.602  1.7219 -0.6934  1.0806
    9CHL1  H18B  621   3.170   2.862   9.463  0.4552 -0.4546 -0.9658
    9CHL1  H18C  622   3.098   2.700   9.440 -0.2205 -0.5604 -0.2689
    9CHL1   C12  623   3.304   2.561   9.587 -0.2411  0.7585 -0.3035
    9CHL1  H12A  624   3.247   2.501   9.512 -1.1625 -0.4396  1.2800
    9CHL1  H12B  625   3.405   2.516   9.597 -0.9473 -0.5327  1.7120
    9CHL1   C11  626   3.239   2.561   9.726 -1.1882  0.1499 -0.0752
    9CHL1  H11A  627   3.131   2.582   9.710 -1.1777 -1.0697 -2.1530
    9CHL1  H11B  628   3.243   2.462   9.776 -0.9795 -0.9635 -2.1928
    9CHL1    C9  629   3.317   2.666   9.816 -0.1384  0.6359 -0.0967
    9CHL1    H9  630   3.421   2.627   9.825 -0.8790 -1.6981 -0.8690
    9CHL1   C10  631   3.257   2.680   9.954  0.0760  0.0547  0.2203
    9CHL1   C19  632   3.103   2.691   9.947  0.6048  0.5884  0.0213
    9CHL1  H19A  633   3.058   2.709  10.047 -1.2757  3.1198 -1.1615
    9CHL1  H19B  634   3.085   2.779   9.882 -1.8919  1.1522  1.3293
    9CHL1  H19C  635   3.059   2.599   9.903 -1.4398  1.3405  0.3719
    9CHL1    C1  636   3.300   2.553  10.035  0.1467  0.5148 -0.1243
    9CHL1   H1A  637   3.250   2.462   9.993 -0.7826  1.0313 -0.1577
    9CHL1   H1B  638   3.410   2.544  10.031 -0.0051 -2.4733 -0.0475
    9CHL1    C2  639   3.254   2.547  10.181  0.1600  0.7605 -0.1239
    9CHL1   H2A  640   3.302   2.457  10.225  0.4806  0.5916 -0.7954
    9CHL1   H2B  641   3.143   2.539  10.180  0.1333  0.1979  2.0820
    9CHL1   C20  642   3.323   2.639   9.272  0.3170 -0.3008  0.2681
    9CHL1   H20  643   3.262   2.553   9.308  1.0282 -0.5354  0.9392
    9CHL1   C21  644   3.446   2.597   9.186 -0.5109 -0.5200  0.4392
    9CHL1  H21A  645   3.517   2.525   9.231  1.1566  0.3366 -0.7235
    9CHL1  H21B  646   3.499   2.692   9.164 -1.1051 -0.6412 -1.7809
    9CHL1  H21C  647   3.414   2.550   9.090  1.2603  0.6374 -0.7762
    9CHL1   C22  648   3.220   2.720   9.193 -0.1049 -0.3499  0.0541
    9CHL1  H22A  649   3.159   2.784   9.260 -1.5250 -0.9210 -0.6475
    9CHL1  H22B  650   3.281   2.785   9.126 -1.3180 -0.5390 -1.2973
    9CHL1   C23  651   3.129   2.640   9.108  0.7157  0.3519 -0.3551
    9CHL1  H23A  652   3.189   2.575   9.041 -1.3194 -1.9870 -0.0666
    9CHL1  H23B  653   3.070   2.574   9.175  1.8086 -0.4342 -0.1421
    9CHL1   C24  654   3.047   2.731   9.019 -0.3759 -0.5197 -0.1146
    9CHL1  H24A  655   2.962   2.774   9.076 -0.4435 -0.7936 -0.0091
    9CHL1  H24B  656   3.097   2.825   8.988 -0.4111 -1.0338 -1.8684
    9CHL1   C25  657   2.990   2.647   8.901  0.6615 -0.0290 -0.3634
    9CHL1   H25  658   2.946   2.553   8.941 -2.8279  2.5319  2.5061
    9CHL1   C26  659   2.893   2.728   8.819  0.0145 -0.8961 -0.0321
    9CHL1  H26A  660   2.840   2.790   8.895  1.1497 -1.6447  1.4199
    9CHL1  H26B  661   2.940   2.779   8.733  4.4902 -1.7917  1.6189
    9CHL1  H26C  662   2.817   2.657   8.779 -0.7054 -0.0891 -0.1330
    9CHL1   C27  663   3.100   2.601   8.802  1.3780 -0.0004  0.5447
    9CHL1  H27A  664   3.168   2.532   8.857 -1.7853 -1.9827  2.2906
    9CHL1  H27B  665   3.050   2.548   8.719 -0.7918  2.2673  0.2893
    9CHL1  H27C  666   3.151   2.696   8.775 -1.3985  1.4886  0.2096
   10CHL1    C3  667   3.385   0.719  10.217  0.0208  0.6604  0.0360
   10CHL1    H3  668   3.370   0.615  10.183 -0.0581  0.3779  0.9212
   10CHL1    O3  669   3.297   0.717  10.327  0.2249  0.4090 -0.0647
   10CHL1   H3'  670   3.330   0.787  10.384 -1.6621 -0.3656  2.1974
   10CHL1    C4  671   3.528   0.752  10.256 -0.5329  0.2017  0.2519
   10CHL1   H4A  672   3.529   0.833  10.332  0.0934 -0.0983  0.5687
   10CHL1   H4B  673   3.574   0.671  10.316  1.0417  0.4467 -0.5658
   10CHL1    C5  674   3.618   0.792  10.141  0.1633 -0.2614 -0.2950
   10CHL1    C6  675   3.735   0.727  10.127 -0.2107  0.1452 -0.6618
   10CHL1    H6  676   3.776   0.662  10.206 -0.5277 -0.8637 -1.3102
   10CHL1    C7  677   3.829   0.742  10.008 -0.2252 -0.6115  0.1047
   10CHL1   H7A  678   3.934   0.742  10.046 -1.1814  1.0823  3.0549
   10CHL1   H7B  679   3.807   0.649   9.952  1.3257 -1.8901  1.5203
   10CHL1    C8  680   3.797   0.864   9.924  0.4185  0.0174 -0.2551
   10CHL1    H8  681   3.825   0.957   9.978  3.8373 -0.7565 -0.4717
   10CHL1   C14  682   3.864   0.851   9.791  0.0634 -0.2793  0.1229
   10CHL1   H14  683   3.824   0.758   9.744 -1.2415 -0.2410  1.1107
   10CHL1   C15  684   4.017   0.820   9.792 -0.2603  0.5208 -0.8367
   10CHL1  H15A  685   4.068   0.879   9.870 -1.7457 -1.6228  1.9570
   10CHL1  H15B  686   4.041   0.713   9.811 -0.2905  0.4319 -1.2862
   10CHL1   C16  687   4.063   0.869   9.654  0.3809  0.0158  0.5212
   10CHL1  H16A  688   4.141   0.948   9.662 -0.4754  1.0365 -0.7272
   10CHL1  H16B  689   4.107   0.788   9.593 -1.5327 -1.2791  0.7702
   10CHL1   C17  690   3.932   0.920   9.575  0.3923  0.2249 -0.8001
   10CHL1   H17  691   3.887   0.828   9.530  1.9418 -0.9186 -0.1003
   10CHL1   C13  692   3.832   0.967   9.692 -0.7002 -0.5027  0.0329
   10CHL1   C18  693   3.879   1.107   9.749  0.0624 -0.4052  0.1007
   10CHL1  H18A  694   3.814   1.153   9.826  2.0405  1.1098  0.9542
   10CHL1  H18B  695   3.976   1.100   9.802 -0.9578 -1.5454  1.9014
   10CHL1  H18C  696   3.890   1.189   9.674  0.7006  1.3001  1.9872
   10CHL1   C12  697   3.687   0.964   9.660  0.1000  0.6393  0.3426
   10CHL1  H12A  698   3.646   1.035   9.584  1.9552 -1.9469 -3.4064
   10CHL1  H12B  699   3.669   0.870   9.603 -0.1900  0.3727  0.8680
   10CHL1   C11  700   3.604   0.966   9.786  0.1489 -0.8992  0.1895
   10CHL1  H11A  701   3.623   1.067   9.828  1.4766 -1.9427  2.2938
   10CHL1  H11B  702   3.496   0.961   9.758  0.0843  1.1270 -0.0357
   10CHL1    C9  703   3.645   0.863   9.893 -0.0400  0.2691  0.0070
   10CHL1    H9  704   3.628   0.767   9.838 -0.2059 -0.4047  1.2087
   10CHL1   C10  705   3.555   0.863  10.023  0.0783 -0.2372  0.1803
   10CHL1   C19  706   3.539   1.015  10.059 -0.1592 -0.0958 -0.2302
   10CHL1  H19A  707   3.468   1.060   9.986 -0.6550  3.3488  2.1598
   10CHL1  H19B  708   3.492   1.024  10.159 -1.2002 -2.5591 -0.4218
   10CHL1  H19C  709   3.640   1.060  10.068 -0.3340  0.0052  1.4154
   10CHL1    C1  710   3.418   0.811   9.993 -0.3461 -0.3038 -0.0417
   10CHL1   H1A  711   3.375   0.880   9.918  2.1357 -0.0972 -1.3511
   10CHL1   H1B  712   3.423   0.710   9.947  2.8904 -0.9789  1.5274
   10CHL1    C2  713   3.323   0.812  10.111 -0.9873 -0.1314 -0.2171
   10CHL1   H2A  714   3.226   0.769  10.079 -0.6121 -1.1735 -0.0130
   10CHL1   H2B  715   3.309   0.916  10.146  0.5284 -0.3884  1.3075
   10CHL1   C20  716   3.967   1.017   9.462  0.0092  0.1430 -0.3200
   10CHL1   H20  717   4.017   1.108   9.499  1.0045  0.4059 -2.1866
   10CHL1   C21  718   3.839   1.061   9.390 -0.0448  0.2554  0.1539
   10CHL1  H21A  719   3.780   0.969   9.373  0.7400  0.0399 -1.6538
   10CHL1  H21B  720   3.856   1.105   9.290 -1.2500 -1.1192 -0.6844
   10CHL1  H21C  721   3.780   1.132   9.453 -0.0721  1.2468 -0.9443
   10CHL1   C22  722   4.064   0.944   9.357  0.3112  1.2313  0.1737
   10CHL1  H22A  723   4.081   1.021   9.278 -1.9235  1.9964  0.3693
   10CHL1  H22B  724   4.162   0.919   9.401 -0.0946 -2.1217 -0.5788
   10CHL1   C23  725   4.013   0.825   9.269 -0.5361  0.2990  0.0642
   10CHL1  H23A  726   3.979   0.748   9.342 -1.4982 -1.6119 -2.2474
   10CHL1  H23B  727   3.926   0.847   9.203 -1.4277 -2.1478  0.3048
   10CHL1   C24  728   4.119   0.767   9.188 -0.8427  1.2270  1.0913
   10CHL1  H24A  729   4.167   0.859   9.148 -0.7493  1.2534  1.2653
   10CHL1  H24B  730   4.190   0.711   9.251 -0.2818  0.4065 -0.2296
   10CHL1   C25  731   4.078   0.676   9.070 -0.5824 -0.0131 -0.3080
   10CHL1   H25  732   3.983   0.710   9.024 -0.6581 -0.7665 -0.7356
   10CHL1   C26  733   4.183   0.667   8.963 -0.5360  0.0251  0.0593
   10CHL1  H26A  734   4.160   0.591   8.885 -1.2403  2.3306 -2.1114
   10CHL1  H26B  735   4.201   0.764   8.912  0.0374  0.0770  0.3503
   10CHL1  H26C  736   4.283   0.642   9.005 -0.0850  1.2833 -0.2254
   10CHL1   C27  737   4.040   0.539   9.130  0.1595 -0.2486  0.0426
   10CHL1  H27A  738   3.982   0.470   9.065 -0.5622  1.3704 -1.1079
   10CHL1  H27B  739   4.130   0.487   9.171 -1.5790 -1.1089  3.0716
   10CHL1  H27C  740   3.978   0.557   9.220 -0.1579  0.0387 -0.2324
   11CHL1    C3  741   5.409   2.954  10.370 -0.0178  0.1587  0.3208
   11CHL1    H3  742   5.518   2.972  10.364  0.4875 -2.7025 -4.6495
   11CHL1    O3  743   5.359   2.955  10.501 -0.7254  0.2216  0.0760
   11CHL1   H3'  744   5.283   2.897  10.499  0.2284 -1.0418 -1.1953
   11CHL1    C4  745   5.327   3.052  10.293  0.1475  0.2721 -0.5409
   11CHL1   H4A  746   5.220   3.027  10.306  0.1512  0.3277 -0.4113
   11CHL1   H4B  747   5.352   3.149  10.340  1.3212 -0.1941 -0.1512
   11CHL1    C5  748   5.372   3.049  10.146  0.3669 -0.3330 -0.1502
   11CHL1    C6  749   5.413   3.155  10.078 -0.0589 -0.1865 -0.2841
   11CHL1    H6  750   5.425   3.249  10.132  3.2016 -1.2502  1.0888
   11CHL1    C7  751   5.444   3.157   9.930  1.1213  0.3434 -0.0343
   11CHL1   H7A  752   5.395   3.252   9.899  2.6950  1.3286  0.3775
   11CHL1   H7B  753   5.554   3.165   9.921  0.9702  1.5626 -1.1382
   11CHL1    C8  754   5.385   3.030   9.860 -0.1600  0.1304 -0.1207
   11CHL1    H8  755   5.275   3.043   9.859 -0.0298  1.2650 -0.5171
   11CHL1   C14  756   5.448   3.018   9.719  0.5011  0.2219  0.0968
   11CHL1   H14  757   5.553   2.985   9.737  1.7023  3.4017 -0.4190
   11CHL1   C15  758   5.478   3.145   9.637  0.7593 -0.0772 -0.0691
   11CHL1  H15A  759   5.396   3.218   9.654  0.0239 -0.8883 -0.0419
   11CHL1  H15B  760   5.581   3.173   9.665  0.6199  0.3382  0.0291
   11CHL1   C16  761   5.472   3.100   9.495 -0.2564  0.1185  0.4181
   11CHL1  H16A  762   5.381   3.137   9.444  0.2122  1.4916  0.5189
   11CHL1  H16B  763   5.564   3.133   9.442 -1.0568  0.8882 -0.5180
   11CHL1   C17  764   5.469   2.944   9.499 -0.2561  0.2239 -0.2319
   11CHL1   H17  765   5.576   2.923   9.518 -0.6853 -0.1454  2.1211
   11CHL1   C13  766   5.393   2.911   9.629 -0.4400 -0.5672 -0.3476
   11CHL1   C18  767   5.242   2.925   9.602  0.0741 -0.1420  0.8469
   11CHL1  H18A  768   5.193   2.841   9.549 -0.3730  0.2313  0.6592
   11CHL1  H18B  769   5.189   2.944   9.698  1.2051 -0.4156  1.5511
   11CHL1  H18C  770   5.215   3.019   9.550 -0.5049 -0.2497  0.9475
   11CHL1   C12  771   5.428   2.786   9.703 -0.8249 -0.3302  0.4138
   11CHL1  H12A  772   5.379   2.701   9.651  1.1425 -1.1982 -0.1251
   11CHL1  H12B  773   5.539   2.777   9.708 -0.7341  1.0623  1.5124
   11CHL1   C11  774   5.376   2.783   9.845 -0.3902 -0.4289  0.4994
   11CHL1  H11A  775   5.265   2.787   9.846 -0.3573  1.3119 -0.3317
   11CHL1  H11B  776   5.398   2.683   9.889  0.0414  0.4926  2.4396
   11CHL1    C9  777   5.412   2.902   9.936 -0.6375 -0.2148  0.0159
   11CHL1    H9  778   5.523   2.896   9.945 -0.6647 -3.2508 -0.4493
   11CHL1   C10  779   5.353   2.912  10.076 -0.4289  0.4140  0.1086
   11CHL1   C19  780   5.201   2.880  10.067  0.5060  0.1903  0.2120
   11CHL1  H19A  781   5.153   2.951   9.996 -0.3540 -1.3927 -0.8434
   11CHL1  H19B  782   5.193   2.782  10.016  0.5329  1.3927 -2.2349
   11CHL1  H19C  783   5.146   2.883  10.163 -1.8299  0.8895 -1.0670
   11CHL1    C1  784   5.418   2.802  10.171 -0.2332 -0.8320 -0.3122
   11CHL1   H1A  785   5.396   2.705  10.121  1.6757  0.1822 -3.4021
   11CHL1   H1B  786   5.528   2.810  10.161 -0.4463  0.8805 -1.8398
   11CHL1    C2  787   5.378   2.811  10.318 -0.2449 -0.5268 -0.1088
   11CHL1   H2A  788   5.428   2.732  10.377  0.0981 -0.9421 -0.9462
   11CHL1   H2B  789   5.269   2.797  10.334 -0.6460 -0.5383 -2.5033
   11CHL1   C20  790   5.423   2.873   9.373 -0.4481 -0.3337  0.2868
   11CHL1   H20  791   5.313   2.880   9.360 -0.3423  0.5025 -0.2616
   11CHL1   C21  792   5.460   2.726   9.378  0.1101 -0.3547  0.9320
   11CHL1  H21A  793   5.408   2.661   9.452 -0.2773  0.9159  1.8141
   11CHL1  H21B  794   5.564   2.735   9.415 -0.0945  1.7111  1.1286
   11CHL1  H21C  795   5.459   2.688   9.274  2.1708  0.5685  0.5286
   11CHL1   C22  796   5.485   2.936   9.240  0.7440 -0.0466 -0.3813
   11CHL1  H22A  797   5.475   3.047   9.242 -1.5388 -0.1802  2.8971
   11CHL1  H22B  798   5.594   2.918   9.247  0.5863 -1.0990 -0.5374
   11CHL1   C23  799   5.436   2.871   9.105 -0.3720 -0.1876  0.1671
   11CHL1  H23A  800   5.485   2.773   9.090  0.7093  0.3148  0.3122
   11CHL1  H23B  801   5.328   2.845   9.106 -0.3489 -0.3079  1.6430
   11CHL1   C24  802   5.476   2.974   8.990 -0.1718  1.0272 -0.4459
   11CHL1  H24A  803   5.396   3.050   8.985 -2.1982 -0.8945  0.8506
   11CHL1  H24B  804   5.574   3.026   9.001 -0.1516  0.8389  0.3143
   11CHL1   C25  805   5.485   2.916   8.848  0.8763  0.2282 -0.5984
   11CHL1   H25  806   5.569   2.844   8.848  0.8261  0.0503 -3.3246
   11CHL1   C26  807   5.360   2.828   8.811  0.2894 -0.0163 -0.1343
   11CHL1  H26A  808   5.271   2.895   8.809  0.9954  0.9227 -2.0009
   11CHL1  H26B  809   5.367   2.783   8.710 -0.8545  2.5474 -1.4573
   11CHL1  H26C  810   5.332   2.754   8.890  0.2535  0.8724  0.7097
   11CHL1   C27  811   5.516   3.024   8.743  0.0006 -0.4612 -0.5052
   11CHL1  H27A  812   5.526   2.977   8.643 -0.7960 -0.7207 -0.4731
   11CHL1  H27B  813   5.437   3.103   8.740  1.8836  1.4932 -0.9020
   11CHL1  H27C  814   5.610   3.080   8.763 -1.3040  2.3042 -1.6649
   12CHL1    C3  815   1.678   0.593  10.375 -0.1975 -0.3791  0.8761
   12CHL1    H3  816   1.789   0.585  10.377 -0.2811 -1.7349  1.2195
   12CHL1    O3  817   1.650   0.609  10.510  0.2434 -0.8371 -0.8048
   12CHL1   H3'  818   1.686   0.528  10.548  1.3831  0.0600  0.0917
   12CHL1    C4  819   1.627   0.718  10.298 -0.9800 -0.0401  0.4266
   12CHL1   H4A  820   1.528   0.746  10.340 -0.2754 -1.0522  2.9584
   12CHL1   H4B  821   1.694   0.799  10.333  0.1265 -1.4173  1.5659
   12CHL1    C5  822   1.627   0.715  10.143 -0.9697 -0.1224 -0.4765
   12CHL1    C6  823   1.667   0.816  10.068  0.1925 -0.3336  0.0081
   12CHL1    H6  824   1.703   0.905  10.121  2.3667 -1.1462 -0.0098
   12CHL1    C7  825   1.667   0.812   9.919 -0.6858 -0.3287  0.6194
   12CHL1   H7A  826   1.627   0.906   9.876 -1.5044 -0.8010  0.3224
   12CHL1   H7B  827   1.771   0.795   9.886  0.6147  0.4500  3.8799
   12CHL1    C8  828   1.591   0.697   9.850  0.3452 -0.0198  0.7001
   12CHL1    H8  829   1.485   0.729   9.854  0.0641 -0.4379 -2.0627
   12CHL1   C14  830   1.639   0.678   9.709 -0.7598 -0.1459 -0.1502
   12CHL1   H14  831   1.746   0.648   9.719 -0.5317  0.6562 -0.1112
   12CHL1   C15  832   1.648   0.806   9.614 -0.0854  0.1913  0.4670
   12CHL1  H15A  833   1.555   0.867   9.618  0.2963  0.7863  4.2593
   12CHL1  H15B  834   1.731   0.877   9.637  1.0841 -1.1775  0.5910
   12CHL1   C16  835   1.665   0.736   9.477  0.4948  1.3061 -1.0645
   12CHL1  H16A  836   1.596   0.780   9.402  0.4421  2.3868 -0.4145
   12CHL1  H16B  837   1.765   0.762   9.435 -0.2968  2.7897 -2.1401
   12CHL1   C17  838   1.648   0.579   9.499  0.4968 -0.4735 -0.5681
   12CHL1   H17  839   1.745   0.533   9.525  0.1251  0.8636  3.9814
   12CHL1   C13  840   1.570   0.563   9.629  0.5729 -0.3651 -0.5938
   12CHL1   C18  841   1.423   0.603   9.608 -0.1114  0.5855  0.3178
   12CHL1  H18A  842   1.379   0.520   9.548  1.4535  1.1660 -1.7751
   12CHL1  H18B  843   1.366   0.606   9.703  1.3340 -0.5981  1.2717
   12CHL1  H18C  844   1.413   0.698   9.551 -2.7232 -0.5031 -1.1947
   12CHL1   C12  845   1.589   0.431   9.709  0.0100 -0.6959 -0.3372
   12CHL1  H12A  846   1.518   0.359   9.663  0.3154  0.5109 -2.8416
   12CHL1  H12B  847   1.691   0.388   9.696  0.6890  1.3423 -2.5300
   12CHL1   C11  848   1.551   0.446   9.857 -0.5415 -0.4542 -0.9400
   12CHL1  H11A  849   1.442   0.467   9.852 -0.1472  2.1933 -0.0734
   12CHL1  H11B  850   1.566   0.358   9.922 -0.5142  0.8803  0.9570
   12CHL1    C9  851   1.611   0.569   9.930  0.1410  0.3831  0.0770
   12CHL1    H9  852   1.721   0.551   9.928  0.4707  2.2378 -0.5868
   12CHL1   C10  853   1.577   0.578  10.086  0.2332  0.5106  0.0153
   12CHL1   C19  854   1.425   0.559  10.103  0.4762  0.6961 -0.3280
   12CHL1  H19A  855   1.390   0.563  10.208  0.5147 -0.3874 -0.2604
   12CHL1  H19B  856   1.367   0.640  10.053  0.7305  1.3110  0.3640
   12CHL1  H19C  857   1.389   0.462  10.060 -0.7515  0.8995  0.1999
   12CHL1    C1  858   1.638   0.457  10.169 -0.2227 -0.1786  0.0564
   12CHL1   H1A  859   1.585   0.364  10.143  0.0347 -0.4719  0.5512
   12CHL1   H1B  860   1.746   0.451  10.141 -0.4083 -1.2906 -0.4403
   12CHL1    C2  861   1.625   0.467  10.320  0.0539  0.1306 -0.0045
   12CHL1   H2A  862   1.675   0.378  10.366  0.1119  0.9764  1.6061
   12CHL1   H2B  863   1.519   0.458  10.350  0.0489  1.5708  0.4372
   12CHL1   C20  864   1.606   0.519   9.369  0.2176  1.0327  0.5952
   12CHL1   H20  865   1.504   0.549   9.337 -0.7530 -1.2276  1.3852
   12CHL1   C21  866   1.609   0.364   9.389 -0.5550  0.2005 -0.3481
   12CHL1  H21A  867   1.585   0.305   9.297  0.5875  1.5727 -1.5798
   12CHL1  H21B  868   1.545   0.328   9.472 -0.4953  0.6721 -0.0945
   12CHL1  H21C  869   1.714   0.332   9.407 -0.1086  1.9731  0.3895
   12CHL1   C22  870   1.702   0.555   9.257  0.3145  0.1173 -0.0503
   12CHL1  H22A  871   1.683   0.646   9.198 -2.0639 -1.6793 -2.2862
   12CHL1  H22B  872   1.800   0.573   9.305 -0.3061  1.7492  0.6764
   12CHL1   C23  873   1.723   0.449   9.141  1.0739 -0.4649 -0.3151
   12CHL1  H23A  874   1.756   0.352   9.183 -1.7664 -1.6042 -0.4751
   12CHL1  H23B  875   1.627   0.437   9.086  0.4101  2.1772  0.1084
   12CHL1   C24  876   1.841   0.491   9.044  0.7529  0.1317 -0.3955
   12CHL1  H24A  877   1.811   0.583   8.988  0.0811  0.2919  0.2110
   12CHL1  H24B  878   1.938   0.511   9.093  1.1247 -3.1655  0.4402
   12CHL1   C25  879   1.871   0.386   8.934 -0.3083  0.6674 -0.5529
   12CHL1   H25  880   1.888   0.287   8.980 -1.5063  0.6706 -0.0755
   12CHL1   C26  881   1.759   0.366   8.831  0.3129 -0.0142 -0.6105
   12CHL1  H26A  882   1.666   0.326   8.878  1.0848 -0.8634  0.2331
   12CHL1  H26B  883   1.738   0.461   8.777  2.6869 -0.3072 -2.1879
   12CHL1  H26C  884   1.789   0.287   8.759  0.5583  0.5102 -1.0893
   12CHL1   C27  885   1.997   0.425   8.852 -0.7458  0.4104  0.4687
   12CHL1  H27A  886   2.088   0.430   8.916  0.9179 -2.9000 -1.4156
   12CHL1  H27B  887   2.021   0.333   8.795 -2.5994  0.6689 -0.7996
   12CHL1  H27C  888   1.975   0.513   8.788 -1.5721 -0.3885 -0.3786
   13CHL1    C3  889   0.496   2.264   9.839 -0.2056 -0.6265  0.6879
   13CHL1    H3  890   0.430   2.176   9.826 -1.9310  0.8380 -0.8980
   13CHL1    O3  891   0.505   2.290   9.976  0.4058 -0.0871  0.1216
   13CHL1   H3'  892   0.569   2.228  10.010  0.6802  0.0195 -0.1894
   13CHL1    C4  893   0.636   2.244   9.783  0.3709 -0.4712  0.6505
   13CHL1   H4A  894   0.705   2.313   9.837 -0.9588  2.4099 -1.0636
   13CHL1   H4B  895   0.683   2.147   9.809  1.8060 -0.0579 -0.2664
   13CHL1    C5  896   0.661   2.265   9.633  0.0674  0.2707  0.1578
   13CHL1    C6  897   0.736   2.175   9.574  0.2469  0.0816  0.4778
   13CHL1    H6  898   0.795   2.105   9.634 -0.3514 -0.5222  0.3682
   13CHL1    C7  899   0.758   2.181   9.424  0.6930 -0.1961 -0.5624
   13CHL1   H7A  900   0.869   2.173   9.415  0.9355 -0.4850  1.9953
   13CHL1   H7B  901   0.709   2.102   9.364 -0.3136 -0.1348  0.1619
   13CHL1    C8  902   0.698   2.312   9.356 -0.1940 -0.0060  0.0263
   13CHL1    H8  903   0.769   2.394   9.381 -1.0546  0.6775  0.2885
   13CHL1   C14  904   0.682   2.284   9.213  0.2361  0.0202 -0.2560
   13CHL1   H14  905   0.595   2.216   9.202  0.0556  0.2375 -0.1575
   13CHL1   C15  906   0.792   2.212   9.134 -0.6410 -0.5229 -0.2617
   13CHL1  H15A  907   0.887   2.263   9.159 -0.1691  0.2166 -3.1541
   13CHL1  H15B  908   0.814   2.105   9.156 -1.9926 -0.7199  0.2222
   13CHL1   C16  909   0.768   2.246   8.984 -0.2537 -0.5356 -0.3726
   13CHL1  H16A  910   0.852   2.307   8.944  0.0718 -0.8922 -0.2316
   13CHL1  H16B  911   0.765   2.154   8.923 -2.0901 -0.3623 -0.5959
   13CHL1   C17  912   0.643   2.340   8.988  0.5661  0.1198 -0.0696
   13CHL1   H17  913   0.560   2.266   8.996  1.3696 -0.6655  1.5130
   13CHL1   C13  914   0.639   2.405   9.131  0.2811 -0.4020 -0.6227
   13CHL1   C18  915   0.745   2.515   9.135  0.7819 -0.0530  0.4486
   13CHL1  H18A  916   0.846   2.479   9.109  0.5038 -1.5358  1.3221
   13CHL1  H18B  917   0.702   2.591   9.066 -1.7748 -2.0955 -0.4165
   13CHL1  H18C  918   0.744   2.553   9.239 -0.7042 -0.2527  0.5298
   13CHL1   C12  919   0.499   2.457   9.184 -0.1992  0.4936  0.0739
   13CHL1  H12A  920   0.483   2.555   9.133  1.7956  0.9530  0.2586
   13CHL1  H12B  921   0.427   2.380   9.148  2.3870 -1.2698 -1.6723
   13CHL1   C11  922   0.497   2.474   9.336 -0.2948  0.1828  0.1964
   13CHL1  H11A  923   0.539   2.569   9.374 -2.0465  0.9516  0.3043
   13CHL1  H11B  924   0.388   2.475   9.360 -0.1884 -0.5323  0.7616
   13CHL1    C9  925   0.561   2.358   9.409 -0.1900  0.8027 -0.6605
   13CHL1    H9  926   0.490   2.275   9.390  2.0287 -0.9586 -1.8118
   13CHL1   C10  927   0.575   2.373   9.564 -0.6653 -0.0431  0.5916
   13CHL1   C19  928   0.644   2.509   9.598 -0.1498 -0.3276  0.8009
   13CHL1  H19A  929   0.577   2.596   9.581 -0.5263 -0.7512  0.0583
   13CHL1  H19B  930   0.678   2.504   9.704  2.0726 -0.7723  0.1151
   13CHL1  H19C  931   0.731   2.528   9.532 -1.3362  0.2673 -0.6369
   13CHL1    C1  932   0.433   2.371   9.627 -0.2360  0.4189  0.0409
   13CHL1   H1A  933   0.382   2.463   9.591 -0.4950 -0.4365 -1.9140
   13CHL1   H1B  934   0.371   2.289   9.584  1.4695 -0.2430 -1.2489
   13CHL1    C2  935   0.431   2.386   9.777  0.1753  0.0302  0.1321
   13CHL1   H2A  936   0.327   2.404   9.813 -0.4183  1.1629 -1.9540
   13CHL1   H2B  937   0.491   2.476   9.803  2.8086 -1.8907  1.2372
   13CHL1   C20  938   0.634   2.423   8.861 -0.3980 -0.9855  0.1179
   13CHL1   H20  939   0.730   2.477   8.863 -1.1537  0.3775  1.0596
   13CHL1   C21  940   0.515   2.522   8.859 -0.0903 -0.3230 -0.0752
   13CHL1  H21A  941   0.416   2.475   8.879  0.4911 -0.9388  1.5566
   13CHL1  H21B  942   0.512   2.591   8.772  0.8551 -1.7991 -1.3307
   13CHL1  H21C  943   0.527   2.585   8.950 -1.6842 -0.4859  0.2888
   13CHL1   C22  944   0.622   2.330   8.743 -0.3284  0.2271  0.6583
   13CHL1  H22A  945   0.694   2.246   8.742  0.9210  1.2623  0.7219
   13CHL1  H22B  946   0.524   2.278   8.749  0.3158 -1.3172 -1.1014
   13CHL1   C23  947   0.621   2.395   8.609  0.2903 -0.2976  0.2760
   13CHL1  H23A  948   0.528   2.455   8.604  0.3576 -0.3271 -2.5705
   13CHL1  H23B  949   0.706   2.464   8.593 -0.2375  0.1313 -0.7490
   13CHL1   C24  950   0.609   2.307   8.485  0.2828  0.3129 -0.7137
   13CHL1  H24A  951   0.701   2.244   8.489 -0.9403 -1.5452 -0.6757
   13CHL1  H24B  952   0.521   2.239   8.493  0.0272  0.5430 -1.4583
   13CHL1   C25  953   0.615   2.384   8.351  0.0885 -1.2330  0.4928
   13CHL1   H25  954   0.529   2.453   8.337  1.8132  0.7363 -1.0600
   13CHL1   C26  955   0.742   2.466   8.342  0.0168  0.0681  0.1673
   13CHL1  H26A  956   0.732   2.513   8.242 -0.4759 -0.3683  0.0025
   13CHL1  H26B  957   0.740   2.549   8.416  0.6472  1.3996 -1.2533
   13CHL1  H26C  958   0.829   2.399   8.355 -0.8365 -1.3131 -0.9869
   13CHL1   C27  959   0.612   2.287   8.236  0.9061  0.2800  0.5155
   13CHL1  H27A  960   0.683   2.316   8.155 -0.7232  1.8411 -0.4422
   13CHL1  H27B  961   0.621   2.179   8.256  0.0290 -0.0289 -0.6152
   13CHL1  H27C  962   0.509   2.295   8.195  1.1867  1.3444 -0.0203
   14CHL1    C3  963   0.331   4.403  10.501 -0.5208 -0.1398  0.4917
   14CHL1    H3  964   0.312   4.293  10.499 -0.7771 -0.2659  4.0524
   14CHL1    O3  965   0.332   4.448  10.633  0.5365 -0.0589  0.6067
   14CHL1   H3'  966   0.347   4.542  10.624  0.0399 -0.0643 -0.3849
   14CHL1    C4  967   0.467   4.439  10.423  0.5652  0.0084 -0.0143
   14CHL1   H4A  968   0.476   4.547  10.447  0.8923 -0.1527  0.6171
   14CHL1   H4B  969   0.548   4.388  10.480  1.6524  1.5429 -0.1258
   14CHL1    C5  970   0.474   4.402  10.279 -0.2257 -0.1956  0.4291
   14CHL1    C6  971   0.563   4.323  10.225  0.5831 -0.6868  0.2199
   14CHL1    H6  972   0.634   4.280  10.297 -1.2047 -4.2231  0.1142
   14CHL1    C7  973   0.567   4.284  10.080 -0.1573  0.0434  0.5826
   14CHL1   H7A  974   0.673   4.277  10.045  0.4005  1.3259  1.8993
   14CHL1   H7B  975   0.523   4.182  10.072  1.4187 -0.5384 -1.5380
   14CHL1    C8  976   0.489   4.384   9.985  0.2189 -0.1597  0.4414
   14CHL1    H8  977   0.545   4.480   9.987 -0.9992  0.5827  2.5255
   14CHL1   C14  978   0.479   4.332   9.839  0.1235  0.3526  0.0915
   14CHL1   H14  979   0.424   4.236   9.846 -1.2448  1.1475  0.4169
   14CHL1   C15  980   0.616   4.298   9.771 -0.5756  0.2672 -0.0070
   14CHL1  H15A  981   0.689   4.378   9.792  1.5376 -1.9426  1.6533
   14CHL1  H15B  982   0.666   4.204   9.802 -1.0778 -0.3106 -0.8938
   14CHL1   C16  983   0.583   4.317   9.620 -0.7905  0.6017 -0.2034
   14CHL1  H16A  984   0.651   4.396   9.582  3.5994 -1.1885  3.0102
   14CHL1  H16B  985   0.606   4.218   9.575  2.0677  0.9817  0.1993
   14CHL1   C17  986   0.429   4.358   9.615 -0.3410 -0.8249  1.0021
   14CHL1   H17  987   0.374   4.261   9.613 -2.1674  0.1671 -0.4884
   14CHL1   C13  988   0.401   4.426   9.746 -0.0802 -0.3831 -0.1510
   14CHL1   C18  989   0.468   4.569   9.753 -0.2386 -0.1429  0.9122
   14CHL1  H18A  990   0.457   4.617   9.853 -0.7620  1.9355 -0.0972
   14CHL1  H18B  991   0.572   4.563   9.714 -0.9831  0.5067 -1.3123
   14CHL1  H18C  992   0.411   4.634   9.684 -0.3166  0.6814  1.7323
   14CHL1   C12  993   0.257   4.444   9.796 -0.0003  0.1503 -0.3352
   14CHL1  H12A  994   0.190   4.506   9.733 -1.9546 -0.9741  0.5324
   14CHL1  H12B  995   0.217   4.340   9.793 -2.2318  0.9105  0.6963
   14CHL1   C11  996   0.247   4.485   9.947 -0.1721  0.2138  0.6076
   14CHL1  H11A  997   0.262   4.595   9.953  2.3350 -0.0232 -0.3285
   14CHL1  H11B  998   0.142   4.465   9.977 -0.3097 -0.2008 -0.1221
   14CHL1    C9  999   0.347   4.413  10.049  0.2248  0.2605 -0.4218
   14CHL1    H9 1000   0.307   4.310  10.051  0.4461  0.1826  0.0621
   14CHL1   C10 1001   0.357   4.458  10.198  0.6718 -0.0555  0.4751
   14CHL1   C19 1002   0.364   4.615  10.187 -0.3878 -0.0539  0.1479
   14CHL1  H19A 1003   0.262   4.657  10.176 -0.6929 -0.5264  1.0921
   14CHL1  H19B 1004   0.415   4.658  10.276  0.6604  1.0593 -0.9309
   14CHL1  H19C 1005   0.432   4.641  10.103 -0.6236 -0.5214 -0.1920
   14CHL1    C1 1006   0.226   4.429  10.275 -0.8455  0.5867  0.7146
   14CHL1   H1A 1007   0.139   4.475  10.223 -1.0872 -0.1769  0.4323
   14CHL1   H1B 1008   0.191   4.323  10.279 -2.3587  0.9489 -1.2920
   14CHL1    C2 1009   0.223   4.469  10.427 -0.0748  0.2162  0.3899
   14CHL1   H2A 1010   0.128   4.439  10.475 -0.4644  1.6666  0.5724
   14CHL1   H2B 1011   0.231   4.579  10.441  1.3040 -0.0700  2.2775
   14CHL1   C20 1012   0.391   4.433   9.487 -0.5715  0.0629 -0.0694
   14CHL1   H20 1013   0.314   4.509   9.513 -0.7992 -0.4829  0.8868
   14CHL1   C21 1014   0.328   4.324   9.403 -0.2162 -0.0073 -0.1593
   14CHL1  H21A 1015   0.408   4.249   9.385  2.1918  1.7537  2.1820
   14CHL1  H21B 1016   0.298   4.351   9.300  0.4592 -1.7834 -0.8597
   14CHL1  H21C 1017   0.236   4.281   9.446 -0.7978  1.0265 -0.3485
   14CHL1   C22 1018   0.502   4.510   9.418  0.2253 -0.3263  0.1102
   14CHL1  H22A 1019   0.573   4.563   9.485  1.1563 -1.9841  0.4776
   14CHL1  H22B 1020   0.570   4.448   9.356  1.7310  0.9100  0.4705
   14CHL1   C23 1021   0.463   4.598   9.297 -0.7367 -0.7877 -0.6336
   14CHL1  H23A 1022   0.424   4.522   9.226 -1.0885 -1.9972  0.7921
   14CHL1  H23B 1023   0.393   4.682   9.313  0.5408 -0.1531  2.1908
   14CHL1   C24 1024   0.587   4.663   9.215  0.4718 -0.0963  0.7429
   14CHL1  H24A 1025   0.621   4.745   9.281 -0.9131  1.7943 -0.7805
   14CHL1  H24B 1026   0.658   4.581   9.194 -0.9985 -1.2726  0.1781
   14CHL1   C25 1027   0.540   4.710   9.074  0.3695  0.3616  0.0821
   14CHL1   H25 1028   0.487   4.621   9.035  1.6985 -1.1101  1.5213
   14CHL1   C26 1029   0.446   4.831   9.081  0.3154 -0.4767  0.6312
   14CHL1  H26A 1030   0.388   4.825   9.176  0.4555 -0.0560  0.7473
   14CHL1  H26B 1031   0.490   4.933   9.094 -0.6281 -0.1014  0.9761
   14CHL1  H26C 1032   0.374   4.839   8.997  0.2201  0.7869  0.8089
   14CHL1   C27 1033   0.663   4.741   8.994 -0.0477 -0.2115  0.2697
   14CHL1  H27A 1034   0.649   4.745   8.884  2.8853  1.7305 -0.1408
   14CHL1  H27B 1035   0.708   4.839   9.018  2.7048 -0.7219 -2.2413
   14CHL1  H27C 1036   0.736   4.660   9.015  0.5446 -0.0577 -1.0862
   15CHL1    C3 1037   6.121   3.852  10.080  0.2680  0.4331 -1.0803
   15CHL1    H3 1038   6.148   3.747  10.053 -0.4475 -0.4271  1.2921
   15CHL1    O3 1039   6.108   3.856  10.223  0.0925 -0.2999  0.3294
   15CHL1   H3' 1040   6.097   3.950  10.238  0.5968 -0.3993  1.4127
   15CHL1    C4 1041   6.232   3.949  10.039  0.3938  0.0069  0.3386
   15CHL1   H4A 1042   6.196   4.051  10.064 -0.5249 -0.6342  1.7415
   15CHL1   H4B 1043   6.318   3.927  10.106 -1.0086 -0.2598  2.1349
   15CHL1    C5 1044   6.264   3.933   9.887 -0.2353 -0.5726  0.7290
   15CHL1    C6 1045   6.382   3.873   9.856  1.0042  0.3857 -0.3690
   15CHL1    H6 1046   6.450   3.842   9.937 -0.9813 -1.2781  0.7339
   15CHL1    C7 1047   6.424   3.856   9.710  0.2215 -0.6764  0.3582
   15CHL1   H7A 1048   6.522   3.907   9.707  0.5047 -1.2520 -0.3338
   15CHL1   H7B 1049   6.443   3.748   9.689  0.9993 -0.3099 -0.9521
   15CHL1    C8 1050   6.322   3.925   9.622  0.5829 -0.6622 -0.7073
   15CHL1    H8 1051   6.343   4.034   9.618  2.3118 -0.9725 -1.0898
   15CHL1   C14 1052   6.337   3.882   9.476 -0.3642  0.3197  0.0512
   15CHL1   H14 1053   6.305   3.776   9.471 -0.8617  0.5147 -1.7270
   15CHL1   C15 1054   6.477   3.895   9.418 -0.5430  1.1987  0.0991
   15CHL1  H15A 1055   6.531   3.982   9.462  2.6471 -0.9498  0.8038
   15CHL1  H15B 1056   6.534   3.803   9.444 -0.4822  1.1239 -0.2832
   15CHL1   C16 1057   6.450   3.909   9.265 -0.5665  0.0084 -0.3361
   15CHL1  H16A 1058   6.494   4.009   9.241 -0.3652  0.2891  1.1005
   15CHL1  H16B 1059   6.496   3.832   9.200 -0.7306 -1.2940  1.0478
   15CHL1   C17 1060   6.296   3.896   9.245 -0.0457 -0.2891 -0.0805
   15CHL1   H17 1061   6.261   3.791   9.242 -1.3824  0.0494  1.5998
   15CHL1   C13 1062   6.239   3.945   9.378 -0.2249 -0.4422  0.2661
   15CHL1   C18 1063   6.243   4.098   9.370 -0.1625 -0.3640 -0.2387
   15CHL1  H18A 1064   6.242   4.147   9.469  1.7769 -4.2035  1.9072
   15CHL1  H18B 1065   6.334   4.142   9.325 -1.0648  0.9245 -0.8962
   15CHL1  H18C 1066   6.153   4.123   9.309 -0.2666  0.3020  0.1781
   15CHL1   C12 1067   6.101   3.893   9.406 -0.7813  0.5309  0.6705
   15CHL1  H12A 1068   6.034   3.923   9.322 -1.0578 -1.1369  0.2707
   15CHL1  H12B 1069   6.096   3.783   9.399 -1.9764  0.5267  1.2040
   15CHL1   C11 1070   6.063   3.935   9.544  0.4737  0.4124 -0.3798
   15CHL1  H11A 1071   6.047   4.045   9.551  3.5530  0.8691  1.3272
   15CHL1  H11B 1072   5.969   3.883   9.574  0.3398 -0.0579 -1.5907
   15CHL1    C9 1073   6.172   3.909   9.653 -0.4877  0.3385 -0.9707
   15CHL1    H9 1074   6.163   3.799   9.664 -0.1291  0.1681 -2.2514
   15CHL1   C10 1075   6.141   3.969   9.795 -0.4402  0.6849  0.2034
   15CHL1   C19 1076   6.121   4.124   9.782  0.1597  0.2630 -0.6350
   15CHL1  H19A 1077   6.115   4.183   9.876 -1.4045 -0.3692 -0.3184
   15CHL1  H19B 1078   6.203   4.170   9.722  0.7413 -1.2194 -1.0104
   15CHL1  H19C 1079   6.020   4.141   9.741 -0.7155 -1.8021  0.5309
   15CHL1    C1 1080   6.012   3.895   9.855 -1.1501 -0.3856  0.3985
   15CHL1   H1A 1081   5.929   3.939   9.797  1.4885  0.9149 -2.7407
   15CHL1   H1B 1082   6.021   3.791   9.816 -1.6938 -0.1046 -0.5072
   15CHL1    C2 1083   5.996   3.904  10.005 -0.8621  0.2430  0.1409
   15CHL1   H2A 1084   5.916   3.836  10.042 -0.0087 -0.1337  1.3710
   15CHL1   H2B 1085   5.966   4.010  10.020  0.3731  0.5836  0.3609
   15CHL1   C20 1086   6.233   3.958   9.115 -0.4233  0.0123 -0.1153
   15CHL1   H20 1087   6.134   4.005   9.135 -0.6864 -0.5637 -0.0275
   15CHL1   C21 1088   6.189   3.833   9.019  0.5118  0.0073  0.3569
   15CHL1  H21A 1089   6.117   3.770   9.076  1.5259 -1.4571  0.0487
   15CHL1  H21B 1090   6.273   3.767   8.992 -0.0948  0.3318 -2.6683
   15CHL1  H21C 1091   6.135   3.885   8.937  0.5211  3.9648  2.5586
   15CHL1   C22 1092   6.316   4.063   9.044  0.6204  0.8536  0.1388
   15CHL1  H22A 1093   6.371   4.138   9.104  1.8778 -0.2393  0.3953
   15CHL1  H22B 1094   6.395   4.007   8.989  1.0453  2.0571 -0.5222
   15CHL1   C23 1095   6.235   4.146   8.940  0.1827  1.2151 -0.1458
   15CHL1  H23A 1096   6.198   4.084   8.855 -1.3397  0.3580  1.0811
   15CHL1  H23B 1097   6.146   4.178   8.999  0.3258  1.1108  0.1257
   15CHL1   C24 1098   6.308   4.267   8.890  0.1621  0.1035  0.1207
   15CHL1  H24A 1099   6.242   4.314   8.814  1.9312  2.2815 -0.1803
   15CHL1  H24B 1100   6.318   4.334   8.978 -0.3787  0.3960 -0.0377
   15CHL1   C25 1101   6.450   4.231   8.829 -0.0645  0.5262  0.5723
   15CHL1   H25 1102   6.511   4.183   8.908  0.2819 -0.1753 -0.1107
   15CHL1   C26 1103   6.437   4.121   8.718 -0.1991  0.6079  1.0825
   15CHL1  H26A 1104   6.387   4.035   8.769  0.8707 -0.0657  1.0179
   15CHL1  H26B 1105   6.369   4.154   8.637  1.1527  0.6566 -0.0694
   15CHL1  H26C 1106   6.530   4.088   8.667 -1.0032  1.0547 -0.7543
   15CHL1   C27 1107   6.520   4.356   8.764  0.1168  0.0218  0.5784
   15CHL1  H27A 1108   6.617   4.336   8.714 -1.1794 -1.6016 -1.4987
   15CHL1  H27B 1109   6.449   4.403   8.692 -0.0927  0.5896  1.1468
   15CHL1  H27C 1110   6.549   4.428   8.843  0.3280  0.2027  0.3363
   16CHL1    C3 1111   1.345   4.037  10.604  0.0356 -0.4119 -0.4964
   16CHL1    H3 1112   1.375   4.141  10.627  0.7741 -0.7422  0.0686
   16CHL1    O3 1113   1.343   3.984  10.741 -0.0625  0.0942  0.5644
   16CHL1   H3' 1114   1.298   4.050  10.794 -2.2646 -1.6623  1.0442
   16CHL1    C4 1115   1.201   4.037  10.551 -0.1816  0.3023 -0.7919
   16CHL1   H4A 1116   1.157   3.935  10.560 -0.5526  0.4557 -0.8540
   16CHL1   H4B 1117   1.145   4.101  10.622 -0.0531 -1.3292  0.8586
   16CHL1    C5 1118   1.193   4.083  10.407 -0.8753 -0.4384 -0.0889
   16CHL1    C6 1119   1.115   4.182  10.380  0.1160 -0.4602  1.0701
   16CHL1    H6 1120   1.054   4.226  10.461 -0.6918 -1.6379  1.1131
   16CHL1    C7 1121   1.094   4.222  10.234  1.3966 -0.0265  0.0601
   16CHL1   H7A 1122   0.984   4.233  10.221  1.4757 -0.1869 -0.7354
   16CHL1   H7B 1123   1.129   4.327  10.225  2.0415 -0.2801 -0.4023
   16CHL1    C8 1124   1.154   4.134  10.131  0.0983  0.2472 -0.1394
   16CHL1    H8 1125   1.084   4.047  10.129  1.4282 -0.9424  1.4935
   16CHL1   C14 1126   1.157   4.206  10.002 -0.1952  0.4561 -0.0369
   16CHL1   H14 1127   1.220   4.296  10.017 -1.4513  1.4887 -0.7098
   16CHL1   C15 1128   1.028   4.264   9.951  0.2982  0.1485 -0.4358
   16CHL1  H15A 1129   0.942   4.199   9.975 -1.7502  1.5175 -3.4249
   16CHL1  H15B 1130   1.011   4.361  10.004 -1.3339 -1.6497  2.5701
   16CHL1   C16 1131   1.057   4.285   9.800 -0.5101 -0.9658  1.1055
   16CHL1  H16A 1132   0.974   4.239   9.741 -3.1901  2.9047  1.4515
   16CHL1  H16B 1133   1.056   4.391   9.766  0.7753 -1.5616 -0.9566
   16CHL1   C17 1134   1.195   4.220   9.766 -1.2077  0.8263 -0.1329
   16CHL1   H17 1135   1.268   4.300   9.789 -1.7610  1.7086 -1.3521
   16CHL1   C13 1136   1.224   4.124   9.885  0.2225  0.6710 -0.4989
   16CHL1   C18 1137   1.135   4.001   9.855 -0.6082 -0.2198 -0.1756
   16CHL1  H18A 1138   1.182   3.932   9.781 -0.0743 -1.3403  1.1546
   16CHL1  H18B 1139   1.126   3.939   9.947 -0.9171 -1.3062 -0.9154
   16CHL1  H18C 1140   1.035   4.033   9.818  0.3610  0.9905 -1.8712
   16CHL1   C12 1141   1.366   4.101   9.928 -0.4417  0.3823 -0.0122
   16CHL1  H12A 1142   1.426   4.069   9.840 -0.5374  0.2503 -0.0292
   16CHL1  H12B 1143   1.413   4.200   9.950  3.3010 -1.5895  1.9669
   16CHL1   C11 1144   1.384   4.027  10.060 -0.6037  0.2053 -0.3097
   16CHL1  H11A 1145   1.355   3.923  10.036  2.9508 -1.3093  1.2763
   16CHL1  H11B 1146   1.493   4.016  10.078 -0.6221 -0.2749 -0.5030
   16CHL1    C9 1147   1.303   4.094  10.176 -0.3423  0.0552 -0.2088
   16CHL1    H9 1148   1.352   4.192  10.193  0.0859 -0.0735 -0.6724
   16CHL1   C10 1149   1.299   4.018  10.308  0.0322 -0.3715 -0.0992
   16CHL1   C19 1150   1.247   3.869  10.284  0.2857  0.4008  0.6600
   16CHL1  H19A 1151   1.318   3.817  10.217  0.5464  0.7940  0.6232
   16CHL1  H19B 1152   1.250   3.807  10.376  1.0588  0.2017  0.5116
   16CHL1  H19C 1153   1.146   3.867  10.238  0.0548  1.1987  1.1055
   16CHL1    C1 1154   1.438   4.018  10.367 -0.4068 -0.3450 -0.6844
   16CHL1   H1A 1155   1.504   3.958  10.300  1.2128 -0.2975  0.7863
   16CHL1   H1B 1156   1.476   4.122  10.362 -1.6208  0.1069 -0.8629
   16CHL1    C2 1157   1.440   3.961  10.511  0.2282  0.0627 -0.5897
   16CHL1   H2A 1158   1.541   3.966  10.558  0.0200  1.5787 -0.2389
   16CHL1   H2B 1159   1.407   3.855  10.501  1.3143 -0.2459 -1.1342
   16CHL1   C20 1160   1.224   4.159   9.620  0.2311  0.2752 -0.9050
   16CHL1   H20 1161   1.193   4.053   9.611  0.7324  0.1491 -1.1822
   16CHL1   C21 1162   1.380   4.160   9.590  0.5294  0.0458 -0.3030
   16CHL1  H21A 1163   1.424   4.262   9.599 -0.3925  0.3353  1.4833
   16CHL1  H21B 1164   1.401   4.131   9.485  0.8324  1.6214 -0.7037
   16CHL1  H21C 1165   1.432   4.091   9.659 -0.4866 -0.7964 -0.3546
   16CHL1   C22 1166   1.152   4.248   9.516 -0.0219 -0.7549  0.6820
   16CHL1  H22A 1167   1.049   4.280   9.545 -0.1219  0.1341 -0.5451
   16CHL1  H22B 1168   1.202   4.346   9.501  2.0228 -2.1972 -3.3878
   16CHL1   C23 1169   1.129   4.187   9.380  0.0021  0.7185 -0.4484
   16CHL1  H23A 1170   1.223   4.174   9.322 -0.0356 -0.4818 -0.2606
   16CHL1  H23B 1171   1.077   4.090   9.389 -2.4975  1.7476 -2.6019
   16CHL1   C24 1172   1.032   4.268   9.296 -0.2748  0.0125 -0.3902
   16CHL1  H24A 1173   0.928   4.248   9.332  0.1904 -2.1677 -0.1528
   16CHL1  H24B 1174   1.044   4.379   9.306 -0.8184  0.1438 -1.1549
   16CHL1   C25 1175   1.032   4.241   9.145 -0.0175  0.7419  0.0325
   16CHL1   H25 1176   1.018   4.131   9.134 -2.0713  1.0478 -0.9054
   16CHL1   C26 1177   0.905   4.292   9.074  0.4781 -0.1225  0.9998
   16CHL1  H26A 1178   0.901   4.400   9.098  0.6013 -0.2949  1.8420
   16CHL1  H26B 1179   0.915   4.277   8.965  1.7671  1.8928  0.7933
   16CHL1  H26C 1180   0.813   4.237   9.104 -0.0853  0.1689 -0.1581
   16CHL1   C27 1181   1.143   4.305   9.065  0.3506  0.0937  0.1812
   16CHL1  H27A 1182   1.124   4.287   8.957  3.0323  0.9938 -0.5241
   16CHL1  H27B 1183   1.145   4.415   9.077  0.2847  0.2439 -1.0102
   16CHL1  H27C 1184   1.247   4.267   9.078  1.2020  1.5350 -1.8510
   17CHL1    C3 1185   2.614   1.086  10.455 -0.9302 -0.2728  0.1695
   17CHL1    H3 1186   2.724   1.072  10.458 -1.2303 -3.1384  2.2708
   17CHL1    O3 1187   2.553   1.060  10.581 -0.3783  0.1935 -0.0296
   17CHL1   H3' 1188   2.574   0.967  10.597  0.7417  0.4407  0.0526
   17CHL1    C4 1189   2.588   1.239  10.421 -0.2691  0.8814  0.1750
   17CHL1   H4A 1190   2.484   1.258  10.452 -1.0044 -3.4945  1.0297
   17CHL1   H4B 1191   2.641   1.304  10.493  1.9547  0.0035 -0.5542
   17CHL1    C5 1192   2.603   1.278  10.274 -0.5253  0.0186 -0.7694
   17CHL1    C6 1193   2.664   1.387  10.233 -0.6928 -0.6184  0.3063
   17CHL1    H6 1194   2.693   1.459  10.311  0.8135 -1.3610  0.4683
   17CHL1    C7 1195   2.684   1.425  10.090  0.0218 -0.5029  0.4902
   17CHL1   H7A 1196   2.701   1.534  10.072  1.9445 -0.7380  0.6941
   17CHL1   H7B 1197   2.778   1.380  10.052  1.2689  0.6781  2.0323
   17CHL1    C8 1198   2.569   1.371  10.003 -0.3153  0.4233  0.0904
   17CHL1    H8 1199   2.474   1.423  10.028  0.1641  1.6223 -0.4951
   17CHL1   C14 1200   2.609   1.398   9.856 -0.1005 -0.3830 -0.0543
   17CHL1   H14 1201   2.709   1.349   9.852  0.6025  0.9324  0.7343
   17CHL1   C15 1202   2.633   1.545   9.817  0.4934  1.1988  0.2576
   17CHL1  H15A 1203   2.548   1.611   9.846 -1.7960 -0.6583 -1.8310
   17CHL1  H15B 1204   2.723   1.589   9.864  0.1041  0.3871  1.8407
   17CHL1   C16 1205   2.642   1.531   9.657 -0.3924  0.6342  0.6390
   17CHL1  H16A 1206   2.576   1.605   9.607  0.0381  1.0219  0.6385
   17CHL1  H16B 1207   2.745   1.545   9.616  0.1220 -2.2782  0.7092
   17CHL1   C17 1208   2.592   1.385   9.620  1.2249 -0.0476  0.0799
   17CHL1   H17 1209   2.677   1.313   9.609 -1.2394 -3.2654  0.5015
   17CHL1   C13 1210   2.516   1.341   9.751  0.2083 -0.3873  0.5189
   17CHL1   C18 1211   2.372   1.391   9.754  1.0148 -0.0792 -0.9862
   17CHL1  H18A 1212   2.327   1.381   9.855 -0.2580 -0.2422 -1.5374
   17CHL1  H18B 1213   2.377   1.496   9.717 -0.6541 -0.1920 -1.6214
   17CHL1  H18C 1214   2.303   1.331   9.690 -0.3617  0.4238 -0.0324
   17CHL1   C12 1215   2.509   1.183   9.777 -0.1132 -0.3311  0.7319
   17CHL1  H12A 1216   2.431   1.142   9.710 -1.1119 -0.4255  1.9075
   17CHL1  H12B 1217   2.612   1.146   9.759  0.1844  0.5454  0.5674
   17CHL1   C11 1218   2.471   1.146   9.918 -0.3284 -0.0370 -0.3477
   17CHL1  H11A 1219   2.361   1.165   9.922 -0.3364 -0.0401 -0.5421
   17CHL1  H11B 1220   2.490   1.038   9.933  0.5957  0.1909  0.2050
   17CHL1    C9 1221   2.560   1.223  10.022  0.2802  0.8759 -0.0839
   17CHL1    H9 1222   2.665   1.191  10.005 -0.7009 -2.4286 -0.6541
   17CHL1   C10 1223   2.534   1.181  10.176 -0.1193  0.5093  0.7559
   17CHL1   C19 1224   2.384   1.187  10.191 -0.6943  0.1571 -0.7656
   17CHL1  H19A 1225   2.331   1.120  10.120 -0.0385 -0.4250 -0.7256
   17CHL1  H19B 1226   2.353   1.156  10.293  2.2049 -1.5179 -0.2764
   17CHL1  H19C 1227   2.346   1.290  10.175  0.4952  0.3690 -2.6149
   17CHL1    C1 1228   2.575   1.037  10.197 -0.3384  0.5802  0.1962
   17CHL1   H1A 1229   2.528   0.965  10.127 -0.9508 -1.5892  2.6709
   17CHL1   H1B 1230   2.682   1.024  10.170  0.2678  1.5314  1.9498
   17CHL1    C2 1231   2.559   0.990  10.347  0.5733  0.3427  0.6122
   17CHL1   H2A 1232   2.596   0.888  10.371 -1.5179 -0.7388 -0.4678
   17CHL1   H2B 1233   2.450   0.982  10.366  0.8428 -0.7501  1.8511
   17CHL1   C20 1234   2.518   1.384   9.483 -0.9495 -0.8250  0.3927
   17CHL1   H20 1235   2.427   1.447   9.495 -0.1085  0.1052  2.3215
   17CHL1   C21 1236   2.485   1.233   9.447  0.1000  0.3023  0.1770
   17CHL1  H21A 1237   2.579   1.180   9.477  0.6755  1.4140  0.3846
   17CHL1  H21B 1238   2.468   1.218   9.338 -0.7528  2.0529  0.0435
   17CHL1  H21C 1239   2.398   1.196   9.505  0.0458 -1.8819 -1.1779
   17CHL1   C22 1240   2.603   1.457   9.374 -0.8737 -0.0069  0.4763
   17CHL1  H22A 1241   2.623   1.562   9.404 -0.4580  0.4427 -1.2827
   17CHL1  H22B 1242   2.697   1.398   9.378 -2.0571 -2.0435 -0.6572
   17CHL1   C23 1243   2.555   1.483   9.232  0.0629  0.3285 -0.2172
   17CHL1  H23A 1244   2.557   1.387   9.177 -0.8371  1.2947 -2.0304
   17CHL1  H23B 1245   2.451   1.521   9.236 -0.3180 -0.6502 -0.5692
   17CHL1   C24 1246   2.639   1.587   9.153  0.3035  0.2700 -0.0616
   17CHL1  H24A 1247   2.634   1.686   9.203 -0.3814  0.2309 -0.0481
   17CHL1  H24B 1248   2.744   1.552   9.169 -0.4294 -1.5661  0.9620
   17CHL1   C25 1249   2.601   1.605   9.008  0.1255  0.1336  0.7838
   17CHL1   H25 1250   2.495   1.636   9.006  0.4887  1.3605 -0.7218
   17CHL1   C26 1251   2.695   1.710   8.954  0.3250 -0.0994  0.2014
   17CHL1  H26A 1252   2.663   1.729   8.849  2.2005 -0.2055 -0.4270
   17CHL1  H26B 1253   2.672   1.806   9.004 -0.2828 -0.8582  1.4292
   17CHL1  H26C 1254   2.802   1.684   8.962  0.6745  1.7584  2.3869
   17CHL1   C27 1255   2.619   1.476   8.933 -0.8783 -0.0577 -0.4611
   17CHL1  H27A 1256   2.543   1.399   8.958 -0.0387 -1.3161 -1.6471
   17CHL1  H27B 1257   2.624   1.495   8.824  1.9027 -0.6256 -0.5085
   17CHL1  H27C 1258   2.717   1.429   8.954 -1.1306 -0.7439 -0.7785
   18CHL1    C3 1259   3.350   6.575  10.384 -0.0974  0.3786  0.0131
   18CHL1    H3 1260   3.256   6.629  10.361 -0.5406  0.3640  1.6813
   18CHL1    O3 1261   3.362   6.552  10.520  0.0574 -0.5001 -0.1030
   18CHL1   H3' 1262   3.456   6.543  10.535 -0.0960 -2.1843  0.0896
   18CHL1    C4 1263   3.351   6.444  10.301 -0.1005 -0.0521  0.1311
   18CHL1   H4A 1264   3.438   6.380  10.327  1.1530  0.7341 -1.8529
   18CHL1   H4B 1265   3.266   6.380  10.333 -0.4955  0.4340  0.0618
   18CHL1    C5 1266   3.353   6.472  10.151  0.2444 -0.2090  0.3006
   18CHL1    C6 1267   3.253   6.424  10.083  0.5751 -0.2873 -0.2757
   18CHL1    H6 1268   3.183   6.353  10.130 -0.2893 -0.3725 -1.6299
   18CHL1    C7 1269   3.230   6.452   9.937  0.1560 -0.9556 -0.2840
   18CHL1   H7A 1270   3.192   6.360   9.888 -0.0555 -0.7418 -0.5208
   18CHL1   H7B 1271   3.150   6.528   9.929  1.1218  0.2877  1.2776
   18CHL1    C8 1272   3.351   6.513   9.863 -0.5313 -0.1808  0.8492
   18CHL1    H8 1273   3.417   6.425   9.848 -0.9745 -0.2271 -1.0700
   18CHL1   C14 1274   3.308   6.577   9.733  0.7667 -0.4819 -0.6446
   18CHL1   H14 1275   3.257   6.674   9.756  0.4551 -0.5289 -1.1183
   18CHL1   C15 1276   3.210   6.504   9.642  0.0571  0.1788  0.2962
   18CHL1  H15A 1277   3.241   6.399   9.627 -2.3319 -1.0434  2.9070
   18CHL1  H15B 1278   3.106   6.506   9.682  0.0132 -0.9451  0.2631
   18CHL1   C16 1279   3.228   6.570   9.505 -0.0895 -0.9764  0.0017
   18CHL1  H16A 1280   3.249   6.488   9.432 -1.0018 -1.0198 -0.2265
   18CHL1  H16B 1281   3.145   6.631   9.464  1.1368 -0.2419 -1.5240
   18CHL1   C17 1282   3.352   6.673   9.518 -0.3502 -0.2634 -0.1506
   18CHL1   H17 1283   3.306   6.772   9.538 -1.4147 -1.1193  1.9502
   18CHL1   C13 1284   3.420   6.629   9.653  0.6818  0.2201  0.1205
   18CHL1   C18 1285   3.515   6.502   9.621  0.2396 -0.6000 -0.2763
   18CHL1  H18A 1286   3.564   6.454   9.709  1.1526  1.2050  0.2453
   18CHL1  H18B 1287   3.459   6.425   9.565  1.2658 -1.3850 -0.2592
   18CHL1  H18C 1288   3.596   6.553   9.565 -0.5396  1.6309  0.4827
   18CHL1   C12 1289   3.487   6.739   9.739  0.6966 -0.2648 -0.9660
   18CHL1  H12A 1290   3.580   6.765   9.683  0.7740 -0.1080 -0.7629
   18CHL1  H12B 1291   3.421   6.825   9.760  0.6820 -0.9767  2.3552
   18CHL1   C11 1292   3.533   6.689   9.880 -0.1810 -0.0865 -0.4388
   18CHL1  H11A 1293   3.614   6.614   9.870  0.1840  0.0670  1.0689
   18CHL1  H11B 1294   3.572   6.776   9.937  0.1142 -1.5278  1.6917
   18CHL1    C9 1295   3.421   6.612   9.956  0.0272 -0.4317 -0.3167
   18CHL1    H9 1296   3.341   6.688   9.970  0.5090  0.0184  0.0160
   18CHL1   C10 1297   3.457   6.566  10.098 -0.0516 -0.5273  0.3188
   18CHL1   C19 1298   3.583   6.479  10.097 -1.0499 -0.5990  0.0762
   18CHL1  H19A 1299   3.599   6.424  10.192 -0.3508  0.6238  0.7018
   18CHL1  H19B 1300   3.571   6.414  10.007  0.7409 -1.8682  0.7014
   18CHL1  H19C 1301   3.681   6.532  10.089 -2.5663  2.2597 -1.2368
   18CHL1    C1 1302   3.467   6.684  10.195  0.3437  0.5154 -0.3545
   18CHL1   H1A 1303   3.548   6.760  10.181 -0.2275  1.0966 -0.5458
   18CHL1   H1B 1304   3.377   6.748  10.182  0.3029  0.3352 -0.9969
   18CHL1    C2 1305   3.479   6.650  10.346  0.3568 -0.6153  1.0249
   18CHL1   H2A 1306   3.486   6.749  10.395  2.7621  0.6646 -1.6379
   18CHL1   H2B 1307   3.571   6.592  10.367  0.9850  0.0635  0.1621
   18CHL1   C20 1308   3.422   6.683   9.386 -0.1916  0.0220 -0.4501
   18CHL1   H20 1309   3.475   6.585   9.375 -1.2315 -1.3797  4.6402
   18CHL1   C21 1310   3.542   6.786   9.402 -0.0447 -0.0844  0.4766
   18CHL1  H21A 1311   3.588   6.817   9.306 -1.2404  1.7258  0.4489
   18CHL1  H21B 1312   3.627   6.746   9.463 -0.1106  1.1779  1.4266
   18CHL1  H21C 1313   3.511   6.883   9.445 -1.0523  0.0248 -0.4745
   18CHL1   C22 1314   3.347   6.735   9.264 -0.2271  0.7122 -0.1936
   18CHL1  H22A 1315   3.412   6.751   9.175 -0.3660  2.0994 -0.0669
   18CHL1  H22B 1316   3.266   6.668   9.229  0.6749 -0.4612 -0.1040
   18CHL1   C23 1317   3.293   6.882   9.294 -0.5916 -0.2947 -0.0828
   18CHL1  H23A 1318   3.209   6.879   9.366 -0.4864 -0.6685  0.0221
   18CHL1  H23B 1319   3.372   6.950   9.334  0.6632 -1.5256 -0.4009
   18CHL1   C24 1320   3.252   6.956   9.165  0.2343 -0.2205  0.3902
   18CHL1  H24A 1321   3.341   6.984   9.104 -1.5728  0.1057 -2.2804
   18CHL1  H24B 1322   3.189   6.884   9.109  1.6401 -3.1587  2.3525
   18CHL1   C25 1323   3.166   7.087   9.172 -0.4066 -0.2345 -0.2997
   18CHL1   H25 1324   3.235   7.155   9.226 -0.0591  0.9267 -2.0977
   18CHL1   C26 1325   3.159   7.167   9.033 -0.0666  0.5825  0.2279
   18CHL1  H26A 1326   3.111   7.106   8.953  1.6555 -0.4164 -0.0942
   18CHL1  H26B 1327   3.111   7.266   9.047 -1.4628  0.6856 -4.0004
   18CHL1  H26C 1328   3.259   7.191   8.990 -0.5625  0.0863 -1.2751
   18CHL1   C27 1329   3.035   7.080   9.256 -0.1656 -0.1227  1.1725
   18CHL1  H27A 1330   2.992   6.977   9.255 -0.9916  0.1915 -1.0788
   18CHL1  H27B 1331   3.058   7.095   9.364 -0.8652  0.7220  1.2050
   18CHL1  H27C 1332   2.959   7.154   9.225  0.7683  0.4479  0.1801
   19CHL1    C3 1333   5.784   2.951  10.181  0.4388  0.6347 -0.1165
   19CHL1    H3 1334   5.684   2.971  10.136  0.8835  1.3449 -0.8306
   19CHL1    O3 1335   5.760   2.955  10.318  0.1861 -0.1936  0.0350
   19CHL1   H3' 1336   5.763   2.867  10.356 -3.6344 -0.6032 -0.2677
   19CHL1    C4 1337   5.853   2.828  10.137  0.8955  0.8206  0.5338
   19CHL1   H4A 1338   5.950   2.820  10.191 -0.3915  2.9095  3.4845
   19CHL1   H4B 1339   5.799   2.737  10.170 -0.5638  1.5619  0.2591
   19CHL1    C5 1340   5.868   2.815   9.986  0.6104 -0.4661 -0.5507
   19CHL1    C6 1341   5.824   2.710   9.916  0.4012 -0.5470  0.3222
   19CHL1    H6 1342   5.774   2.624   9.961 -1.7304  0.0322 -0.8232
   19CHL1    C7 1343   5.824   2.714   9.768 -0.3729  0.1922 -0.2764
   19CHL1   H7A 1344   5.852   2.612   9.734  3.7473  0.9608  0.2554
   19CHL1   H7B 1345   5.717   2.727   9.739 -1.2033  0.0788  2.4477
   19CHL1    C8 1346   5.915   2.812   9.703  0.1545  0.4976  0.2866
   19CHL1    H8 1347   6.021   2.784   9.716 -0.2801 -3.3499 -2.7184
   19CHL1   C14 1348   5.881   2.823   9.557 -0.4978  0.0846 -0.6737
   19CHL1   H14 1349   5.784   2.877   9.558 -1.4433 -1.5378  1.1704
   19CHL1   C15 1350   5.866   2.693   9.476 -0.5129  0.7666  0.5426
   19CHL1  H15A 1351   5.953   2.624   9.488 -0.4907  0.7178  0.1336
   19CHL1  H15B 1352   5.773   2.638   9.502 -0.3454  0.7449  1.1031
   19CHL1   C16 1353   5.871   2.751   9.334  0.5349 -0.9916 -0.1587
   19CHL1  H16A 1354   5.943   2.695   9.271 -1.6569 -2.3265 -1.6123
   19CHL1  H16B 1355   5.773   2.738   9.284  0.2035 -0.5440  0.3628
   19CHL1   C17 1356   5.905   2.901   9.338  0.8887 -0.3226  0.6271
   19CHL1   H17 1357   5.803   2.945   9.344  2.2625  3.4737 -0.6082
   19CHL1   C13 1358   5.965   2.926   9.477 -0.8996 -0.2760 -0.2970
   19CHL1   C18 1359   6.112   2.874   9.476 -0.4121 -0.2930 -0.1064
   19CHL1  H18A 1360   6.177   2.952   9.429  0.0219  1.1230  2.6231
   19CHL1  H18B 1361   6.147   2.848   9.578  0.4785  1.4141  0.0756
   19CHL1  H18C 1362   6.122   2.788   9.406 -0.6988  0.0913 -0.6257
   19CHL1   C12 1363   5.953   3.065   9.546 -0.5094  0.4006  0.7418
   19CHL1  H12A 1364   6.022   3.136   9.496 -2.9350 -0.2143 -4.0698
   19CHL1  H12B 1365   5.851   3.105   9.531 -0.5184  0.1603  0.1403
   19CHL1   C11 1366   5.987   3.054   9.695  0.5627 -0.6860  0.3515
   19CHL1  H11A 1367   6.089   3.010   9.703  0.5690 -0.4042  2.2057
   19CHL1  H11B 1368   5.994   3.151   9.747  3.7300 -0.2693 -0.6488
   19CHL1    C9 1369   5.898   2.953   9.770 -0.3051  0.3224 -0.4080
   19CHL1    H9 1370   5.794   2.992   9.767  0.1640  1.6011 -0.9526
   19CHL1   C10 1371   5.928   2.940   9.923  0.3089  0.2284 -0.1302
   19CHL1   C19 1372   6.080   2.925   9.942 -1.1020 -0.1745 -0.5316
   19CHL1  H19A 1373   6.124   3.023   9.913 -0.1980 -0.0086  1.2851
   19CHL1  H19B 1374   6.103   2.930  10.051 -0.0650  1.6741 -0.7994
   19CHL1  H19C 1375   6.127   2.839   9.891  1.5889  0.5964  0.5033
   19CHL1    C1 1376   5.871   3.074   9.980  0.0902  0.6483  0.6423
   19CHL1   H1A 1377   5.948   3.151   9.956  1.8423 -1.7356 -1.9132
   19CHL1   H1B 1378   5.767   3.100   9.950 -0.7740 -2.2714  0.8767
   19CHL1    C2 1379   5.864   3.073  10.137 -0.3735 -0.1393  0.0144
   19CHL1   H2A 1380   5.816   3.169  10.165  1.7699  2.3632 -3.8847
   19CHL1   H2B 1381   5.964   3.064  10.185  0.1619 -0.9076 -1.1682
   19CHL1   C20 1382   5.981   2.945   9.218 -0.2723 -0.0023  0.3375
   19CHL1   H20 1383   6.073   2.885   9.204 -1.3872 -1.3858 -1.5661
   19CHL1   C21 1384   6.007   3.096   9.226  1.0893 -0.3590 -0.3304
   19CHL1  H21A 1385   6.097   3.108   9.289 -0.7852  1.0355  2.2843
   19CHL1  H21B 1386   5.929   3.161   9.271  3.6494  2.1421  0.8171
   19CHL1  H21C 1387   6.035   3.142   9.129 -0.8769  0.3670 -0.6061
   19CHL1   C22 1388   5.895   2.921   9.096  0.1453  0.3393  0.2256
   19CHL1  H22A 1389   5.849   2.820   9.103 -1.8675  1.1452 -0.6734
   19CHL1  H22B 1390   5.806   2.987   9.106 -0.6972 -0.8514  0.8216
   19CHL1   C23 1391   5.963   2.936   8.957 -0.6891 -0.8032 -0.0578
   19CHL1  H23A 1392   6.034   3.021   8.946 -1.3317 -0.4455 -1.7709
   19CHL1  H23B 1393   6.037   2.853   8.949  0.9170  0.7088 -1.7159
   19CHL1   C24 1394   5.855   2.931   8.847 -0.0663 -0.3364 -0.1323
   19CHL1  H24A 1395   5.778   2.853   8.863 -2.6916  1.5252 -2.5294
   19CHL1  H24B 1396   5.798   3.026   8.849  1.4645  0.7830 -3.0088
   19CHL1   C25 1397   5.923   2.906   8.711 -0.8583  0.6866  0.0350
   19CHL1   H25 1398   6.017   2.965   8.708  0.4288 -1.2956  0.2833
   19CHL1   C26 1399   5.957   2.753   8.687  0.1370 -0.4462 -0.0805
   19CHL1  H26A 1400   5.869   2.691   8.711 -0.1584  0.7921  2.3633
   19CHL1  H26B 1401   6.002   2.748   8.585  1.0268 -0.5757  0.3056
   19CHL1  H26C 1402   6.032   2.717   8.761  0.4344  1.7966  0.7969
   19CHL1   C27 1403   5.833   2.951   8.592 -0.1521 -0.6539  0.6882
   19CHL1  H27A 1404   5.795   3.055   8.599 -1.4730 -1.0740  0.0277
   19CHL1  H27B 1405   5.891   2.957   8.497 -0.8524  2.0997  0.3314
   19CHL1  H27C 1406   5.746   2.884   8.582 -0.5484 -0.2193  1.1996
   20CHL1    C3 1407   1.517   3.455  10.313  0.1154  0.3771  0.3256
   20CHL1    H3 1408   1.616   3.422  10.273 -0.8080 -2.2948  0.0364
   20CHL1    O3 1409   1.517   3.423  10.455  0.0023  0.5095  0.0721
   20CHL1   H3' 1410   1.497   3.329  10.456  0.9158  0.3030 -0.3524
   20CHL1    C4 1411   1.497   3.605  10.291 -0.1069  0.2649  0.6238
   20CHL1   H4A 1412   1.399   3.632  10.337  1.0361  0.1334  3.2741
   20CHL1   H4B 1413   1.568   3.670  10.347  1.1396  0.2225 -0.8570
   20CHL1    C5 1414   1.502   3.638  10.142  0.9178 -0.1968  0.2022
   20CHL1    C6 1415   1.585   3.733  10.093 -0.0469 -0.1953  0.2284
   20CHL1    H6 1416   1.657   3.782  10.161  1.6775  1.2998 -2.4717
   20CHL1    C7 1417   1.606   3.770   9.949  0.0932  0.0446  1.0427
   20CHL1   H7A 1418   1.597   3.880   9.940 -3.2545 -0.3117 -1.8262
   20CHL1   H7B 1419   1.702   3.741   9.901 -0.6176 -3.4881  1.4748
   20CHL1    C8 1420   1.487   3.705   9.862  0.1036  0.0792 -0.0890
   20CHL1    H8 1421   1.398   3.768   9.883  0.8232  0.3145  2.6167
   20CHL1   C14 1422   1.527   3.690   9.715 -0.2030  0.0391 -0.1257
   20CHL1   H14 1423   1.618   3.627   9.714 -0.2971 -0.1188 -2.0192
   20CHL1   C15 1424   1.576   3.818   9.652  0.8822 -0.1520 -0.4108
   20CHL1  H15A 1425   1.516   3.903   9.692  1.3312 -0.7197  1.6081
   20CHL1  H15B 1426   1.683   3.827   9.678  0.2813 -0.4083  2.5188
   20CHL1   C16 1427   1.552   3.798   9.503  0.6140 -0.0349  0.6092
   20CHL1  H16A 1428   1.492   3.881   9.460  0.9092 -0.7245 -1.2385
   20CHL1  H16B 1429   1.646   3.805   9.445  0.3169  1.3408  0.2709
   20CHL1   C17 1430   1.485   3.656   9.485 -1.1494 -0.4680 -0.5354
   20CHL1   H17 1431   1.571   3.586   9.490  0.1660  1.1947  2.5638
   20CHL1   C13 1432   1.421   3.636   9.621  0.4086  0.5836 -0.3196
   20CHL1   C18 1433   1.294   3.727   9.634  0.4462  0.2509 -0.1495
   20CHL1  H18A 1434   1.311   3.832   9.601  1.9386  0.9473  2.5275
   20CHL1  H18B 1435   1.207   3.683   9.581  0.0657 -0.0101  0.6762
   20CHL1  H18C 1436   1.253   3.728   9.737 -1.0297  0.0188 -0.7153
   20CHL1   C12 1437   1.385   3.495   9.661  0.2257 -0.6573 -0.1773
   20CHL1  H12A 1438   1.291   3.471   9.608 -0.1946  2.9269 -1.3470
   20CHL1  H12B 1439   1.473   3.433   9.632  1.3069  0.3766  0.7687
   20CHL1   C11 1440   1.355   3.488   9.808  0.2033 -0.1185 -0.2588
   20CHL1  H11A 1441   1.258   3.540   9.818  0.4596  0.7468 -1.8449
   20CHL1  H11B 1442   1.351   3.382   9.841 -0.8962  0.3893  1.3440
   20CHL1    C9 1443   1.453   3.559   9.907 -0.0409 -0.6222 -0.2032
   20CHL1    H9 1444   1.550   3.505   9.896 -0.1188 -0.8326  0.1314
   20CHL1   C10 1445   1.411   3.550  10.059  0.2742  0.0635  0.4077
   20CHL1   C19 1446   1.263   3.585  10.076  0.1096 -0.1069  0.6662
   20CHL1  H19A 1447   1.237   3.579  10.184  0.9341 -1.5857  0.8074
   20CHL1  H19B 1448   1.244   3.688  10.040 -0.6793 -0.0905  1.0959
   20CHL1  H19C 1449   1.192   3.517  10.024 -1.5630  0.5743  1.9504
   20CHL1    C1 1450   1.418   3.399  10.094  0.2242 -0.3664 -0.2417
   20CHL1   H1A 1451   1.332   3.348  10.045 -0.5207 -0.8914  1.5317
   20CHL1   H1B 1452   1.512   3.353  10.056  1.4893  0.9260  1.1757
   20CHL1    C2 1453   1.414   3.370  10.248  0.0475 -0.3185  0.7471
   20CHL1   H2A 1454   1.427   3.260  10.260 -0.3903 -0.5574 -0.8235
   20CHL1   H2B 1455   1.314   3.399  10.285  0.6764  2.0530  0.7536
   20CHL1   C20 1456   1.407   3.646   9.355  0.6439  0.0002 -0.4787
   20CHL1   H20 1457   1.324   3.721   9.358 -0.0447 -0.7109 -1.3477
   20CHL1   C21 1458   1.344   3.502   9.346  0.3011 -0.0851  0.1966
   20CHL1  H21A 1459   1.256   3.484   9.411 -0.9931 -0.0349 -1.4784
   20CHL1  H21B 1460   1.418   3.419   9.343  0.1722 -0.2156  0.6307
   20CHL1  H21C 1461   1.294   3.490   9.248 -0.5356  1.0164  0.4739
   20CHL1   C22 1462   1.481   3.677   9.228  0.0411  0.2761 -0.0457
   20CHL1  H22A 1463   1.513   3.783   9.243 -3.3173  1.1575  1.7903
   20CHL1  H22B 1464   1.576   3.620   9.226 -0.5916 -0.7691 -1.2822
   20CHL1   C23 1465   1.395   3.676   9.102  0.5746 -0.0264 -0.3666
   20CHL1  H23A 1466   1.313   3.602   9.088 -0.7948  1.3654 -0.0133
   20CHL1  H23B 1467   1.338   3.772   9.102  1.5029  0.5731 -1.7786
   20CHL1   C24 1468   1.485   3.673   8.977  0.6489 -0.1778 -0.0211
   20CHL1  H24A 1469   1.553   3.761   8.968  1.1762 -0.7332 -1.7395
   20CHL1  H24B 1470   1.540   3.577   8.978  0.1707 -0.4659 -0.6815
   20CHL1   C25 1471   1.421   3.658   8.832 -0.2515  0.3851  0.7312
   20CHL1   H25 1472   1.344   3.578   8.824  0.9075 -0.6707 -0.1787
   20CHL1   C26 1473   1.356   3.785   8.788  0.3579  0.0731 -0.1696
   20CHL1  H26A 1474   1.329   3.793   8.680  0.4850 -1.4295 -0.3333
   20CHL1  H26B 1475   1.267   3.799   8.852 -0.3880 -1.3892 -0.8365
   20CHL1  H26C 1476   1.434   3.860   8.814  0.6204 -0.6992  1.3966
   20CHL1   C27 1477   1.539   3.625   8.730 -0.1188  0.1116  0.1615
   20CHL1  H27A 1478   1.504   3.639   8.626  0.1771  0.6550  0.1320
   20CHL1  H27B 1479   1.625   3.694   8.744  0.6960 -0.6957 -0.7052
   20CHL1  H27C 1480   1.588   3.525   8.742  0.9315  0.4328 -1.1952
   21CHL1    C3 1481   2.424   6.653  10.411  0.2101  0.3968  0.1918
   21CHL1    H3 1482   2.526   6.655  10.368  0.1200  0.5939 -0.0141
   21CHL1    O3 1483   2.422   6.673  10.555 -0.0680 -0.2913  0.2824
   21CHL1   H3' 1484   2.356   6.611  10.589 -0.1446  0.3961  1.4339
   21CHL1    C4 1485   2.349   6.763  10.338 -0.0003  0.3849 -1.1308
   21CHL1   H4A 1486   2.244   6.779  10.370  0.2492 -0.0273 -0.0544
   21CHL1   H4B 1487   2.395   6.862  10.356 -3.9007  2.7819 -3.1243
   21CHL1    C5 1488   2.342   6.745  10.184 -0.3395 -0.0660  0.7139
   21CHL1    C6 1489   2.381   6.844  10.099 -0.0994  0.0758  0.4361
   21CHL1    H6 1490   2.403   6.944  10.139  1.4710  0.7437 -1.9384
   21CHL1    C7 1491   2.375   6.840   9.953  0.9997 -0.0231  0.2937
   21CHL1   H7A 1492   2.334   6.929   9.900  0.9115 -0.7628 -0.9255
   21CHL1   H7B 1493   2.478   6.838   9.911  1.5938 -0.7136  1.7102
   21CHL1    C8 1494   2.322   6.711   9.896  0.1803  0.2668 -0.7980
   21CHL1    H8 1495   2.212   6.722   9.886 -0.0189  0.0767  1.0194
   21CHL1   C14 1496   2.378   6.688   9.756 -0.1267  0.1146  0.1575
   21CHL1   H14 1497   2.488   6.673   9.768 -0.4304 -2.2785  0.3625
   21CHL1   C15 1498   2.342   6.796   9.651 -0.4487  0.7858 -0.4207
   21CHL1  H15A 1499   2.233   6.817   9.656 -0.5232  0.6322 -1.2560
   21CHL1  H15B 1500   2.409   6.884   9.661  2.8604 -1.4424 -1.1939
   21CHL1   C16 1501   2.379   6.731   9.522 -0.0010  0.6215  0.0111
   21CHL1  H16A 1502   2.295   6.759   9.454 -0.1546  1.7139  0.6261
   21CHL1  H16B 1503   2.471   6.767   9.470  0.3539 -1.4212 -0.9008
   21CHL1   C17 1504   2.395   6.576   9.546  0.0096  0.4799  1.3267
   21CHL1   H17 1505   2.505   6.560   9.551  0.0758 -0.0426 -0.8458
   21CHL1   C13 1506   2.336   6.558   9.684  0.1976 -0.0951 -0.6343
   21CHL1   C18 1507   2.182   6.545   9.669 -0.6585  0.8934 -0.1833
   21CHL1  H18A 1508   2.135   6.578   9.764  0.7045 -0.8182  1.1438
   21CHL1  H18B 1509   2.150   6.625   9.599 -2.8834  0.0108 -0.2519
   21CHL1  H18C 1510   2.154   6.446   9.629 -0.4196 -0.0034  1.7567
   21CHL1   C12 1511   2.390   6.445   9.782  0.4132 -0.2072 -0.0477
   21CHL1  H12A 1512   2.370   6.347   9.734 -0.6920  0.0025 -0.0569
   21CHL1  H12B 1513   2.500   6.458   9.791  0.3786 -1.1230  2.4082
   21CHL1   C11 1514   2.322   6.455   9.922  0.0636 -0.2956 -0.5038
   21CHL1  H11A 1515   2.212   6.445   9.910 -0.4905  2.4121  1.4909
   21CHL1  H11B 1516   2.359   6.362   9.971  1.4633 -1.3121 -3.2513
   21CHL1    C9 1517   2.357   6.591   9.992  0.6717 -0.4253 -0.3544
   21CHL1    H9 1518   2.468   6.585   9.995  0.7395 -0.0038 -1.4600
   21CHL1   C10 1519   2.308   6.605  10.138 -0.0145 -0.2783 -0.5832
   21CHL1   C19 1520   2.153   6.587  10.140 -0.1179 -0.2461  0.4297
   21CHL1  H19A 1521   2.107   6.624  10.234 -0.6289 -0.2805  0.1918
   21CHL1  H19B 1522   2.111   6.653  10.062 -1.8731 -2.1988 -0.3697
   21CHL1  H19C 1523   2.121   6.483  10.117 -1.9281  0.6872 -1.6159
   21CHL1    C1 1524   2.367   6.498  10.229 -0.7729  0.0947 -0.3346
   21CHL1   H1A 1525   2.302   6.409  10.220  0.0407 -0.6098  0.4442
   21CHL1   H1B 1526   2.468   6.480  10.186 -0.5285 -0.2306  0.3473
   21CHL1    C2 1527   2.356   6.519  10.384 -0.4538  0.3449  0.0201
   21CHL1   H2A 1528   2.424   6.447  10.434  0.4804 -0.3871 -2.1499
   21CHL1   H2B 1529   2.254   6.521  10.427  0.1336 -0.7605  1.5721
   21CHL1   C20 1530   2.344   6.499   9.422  0.3781  0.0264 -0.0807
   21CHL1   H20 1531   2.238   6.527   9.406  0.3480  0.7814  1.2900
   21CHL1   C21 1532   2.364   6.350   9.441 -0.8631 -0.7183 -0.3341
   21CHL1  H21A 1533   2.335   6.292   9.350 -0.0268  1.1270 -1.8505
   21CHL1  H21B 1534   2.303   6.311   9.525  1.2687 -0.8171  1.2543
   21CHL1  H21C 1535   2.471   6.324   9.456 -0.9061 -2.2850 -2.2577
   21CHL1   C22 1536   2.421   6.537   9.297 -0.1283 -0.3872 -0.2755
   21CHL1  H22A 1537   2.411   6.647   9.293  2.4180 -0.1062 -0.5084
   21CHL1  H22B 1538   2.528   6.508   9.290 -0.0040  0.0923 -0.4077
   21CHL1   C23 1539   2.360   6.474   9.165  1.0133  0.1061  0.2179
   21CHL1  H23A 1540   2.384   6.366   9.153 -0.7902 -0.0580 -3.2852
   21CHL1  H23B 1541   2.249   6.480   9.170  1.0834  0.9779  1.1238
   21CHL1   C24 1542   2.406   6.540   9.036  0.0957 -0.5098  0.0061
   21CHL1  H24A 1543   2.341   6.493   8.959  1.2952 -0.4674 -1.0635
   21CHL1  H24B 1544   2.378   6.647   9.049  3.4851  0.3153  1.7043
   21CHL1   C25 1545   2.543   6.527   8.987  0.0508 -0.6189 -0.0786
   21CHL1   H25 1546   2.617   6.560   9.063 -0.7357 -1.9614  1.3390
   21CHL1   C26 1547   2.580   6.382   8.961  0.9243  0.4141  0.2252
   21CHL1  H26A 1548   2.638   6.375   8.867 -0.5055 -1.6059 -0.5888
   21CHL1  H26B 1549   2.623   6.349   9.058  0.7279  1.4666  0.6861
   21CHL1  H26C 1550   2.485   6.323   8.966 -0.0904  1.6866 -2.3788
   21CHL1   C27 1551   2.560   6.606   8.857  0.1798  1.0446  0.0364
   21CHL1  H27A 1552   2.501   6.580   8.767 -2.8072  2.2110  1.4924
   21CHL1  H27B 1553   2.538   6.714   8.871  0.0974  1.1676 -0.9876
   21CHL1  H27C 1554   2.664   6.598   8.820 -0.2725  1.0704 -1.2977
   22CHL1    C3 1555   0.656   1.769  10.082  0.6537  0.1713 -0.5121
   22CHL1    H3 1556   0.676   1.877  10.098 -0.1052 -0.0165  2.1833
   22CHL1    O3 1557   0.631   1.709  10.209  0.0008  0.0262  0.2192
   22CHL1   H3' 1558   0.537   1.692  10.213 -0.1851  0.2053 -2.1806
   22CHL1    C4 1559   0.520   1.756  10.010  0.4117 -0.2127 -0.0672
   22CHL1   H4A 1560   0.479   1.656  10.032  0.2580  0.2561  1.9892
   22CHL1   H4B 1561   0.447   1.821  10.063  0.7703  1.9584 -2.0405
   22CHL1    C5 1562   0.518   1.772   9.861 -0.2467 -0.8245  1.0190
   22CHL1    C6 1563   0.430   1.852   9.801  0.2163  0.0606  0.2304
   22CHL1    H6 1564   0.339   1.885   9.853  1.2901  3.5655  0.1215
   22CHL1    C7 1565   0.427   1.870   9.651  0.1427 -0.6697 -0.2478
   22CHL1   H7A 1566   0.325   1.846   9.614  0.0584  0.6024 -0.8838
   22CHL1   H7B 1567   0.435   1.976   9.621 -0.4892 -0.4191  0.4456
   22CHL1    C8 1568   0.529   1.789   9.578  0.3245 -0.8267  0.0016
   22CHL1    H8 1569   0.485   1.687   9.579 -0.9790 -0.2761  0.0084
   22CHL1   C14 1570   0.543   1.840   9.436 -0.0408  0.2737  0.0832
   22CHL1   H14 1571   0.604   1.933   9.444  0.3211 -0.0244  0.8592
   22CHL1   C15 1572   0.418   1.856   9.356 -0.2503 -0.1502 -0.0444
   22CHL1  H15A 1573   0.360   1.761   9.362 -1.0869  0.3194 -0.6102
   22CHL1  H15B 1574   0.344   1.932   9.388 -0.6844 -1.1186  1.3562
   22CHL1   C16 1575   0.467   1.877   9.215  0.3343 -0.2622 -0.0141
   22CHL1  H16A 1576   0.398   1.821   9.148  0.3994  1.9940 -2.1473
   22CHL1  H16B 1577   0.451   1.983   9.183  0.8433 -0.5372 -1.2687
   22CHL1   C17 1578   0.617   1.836   9.210 -0.4512 -0.1609 -0.1612
   22CHL1   H17 1579   0.674   1.931   9.217  0.2999 -0.6174  0.0880
   22CHL1   C13 1580   0.633   1.755   9.347 -0.7596 -0.7238 -0.0239
   22CHL1   C18 1581   0.578   1.613   9.329 -0.0186 -0.8482 -0.1223
   22CHL1  H18A 1582   0.555   1.561   9.424 -0.2822 -0.1056  0.2245
   22CHL1  H18B 1583   0.487   1.614   9.265 -1.6159  4.5083  1.6991
   22CHL1  H18C 1584   0.661   1.560   9.276 -0.1670 -1.5855  0.3750
   22CHL1   C12 1585   0.774   1.752   9.410 -0.8089 -0.6042  0.3014
   22CHL1  H12A 1586   0.838   1.684   9.351 -0.4992  0.9507 -1.2494
   22CHL1  H12B 1587   0.827   1.850   9.402  0.9322 -1.4405  1.1913
   22CHL1   C11 1588   0.767   1.708   9.555 -0.1031  0.0976 -0.2961
   22CHL1  H11A 1589   0.747   1.598   9.557  0.6566 -0.0565  1.8309
   22CHL1  H11B 1590   0.864   1.716   9.608 -0.5718 -0.1324  0.6171
   22CHL1    C9 1591   0.665   1.780   9.650  0.1944  0.8233 -0.0723
   22CHL1    H9 1592   0.705   1.883   9.666 -0.1934  1.0858 -0.7894
   22CHL1   C10 1593   0.641   1.711   9.790 -0.0205  0.3672 -0.4072
   22CHL1   C19 1594   0.608   1.561   9.779  0.7668  0.6741  0.0665
   22CHL1  H19A 1595   0.688   1.505   9.726  0.2020  0.4216 -0.5315
   22CHL1  H19B 1596   0.581   1.514   9.877 -0.1260 -1.7518 -1.2601
   22CHL1  H19C 1597   0.511   1.554   9.724  0.5166  0.4489  0.5230
   22CHL1    C1 1598   0.777   1.733   9.868 -0.2007 -0.9927  0.6112
   22CHL1   H1A 1599   0.842   1.657   9.820 -0.0485 -0.1269 -0.5815
   22CHL1   H1B 1600   0.811   1.838   9.861  1.1897 -1.5190 -4.3945
   22CHL1    C2 1601   0.771   1.689  10.010  0.1006 -0.1364 -0.1634
   22CHL1   H2A 1602   0.868   1.708  10.060  1.2921 -3.0952 -1.1346
   22CHL1   H2B 1603   0.745   1.581  10.023  1.5045 -0.3260  1.5219
   22CHL1   C20 1604   0.666   1.777   9.075  0.2390  0.1047  0.1481
   22CHL1   H20 1605   0.632   1.673   9.057  0.1774 -0.1968  1.8384
   22CHL1   C21 1606   0.817   1.761   9.075 -0.6331  0.2367 -0.6088
   22CHL1  H21A 1607   0.867   1.724   8.982  2.0512  1.8338  0.0818
   22CHL1  H21B 1608   0.857   1.693   9.152  1.6764  1.6454 -0.4674
   22CHL1  H21C 1609   0.856   1.864   9.090 -2.3485  0.7774  0.3414
   22CHL1   C22 1610   0.613   1.848   8.953  0.1878 -0.1186 -0.3658
   22CHL1  H22A 1611   0.511   1.814   8.924  0.5715 -1.5720 -0.0752
   22CHL1  H22B 1612   0.598   1.956   8.974 -0.7177 -0.2103 -0.5160
   22CHL1   C23 1613   0.702   1.848   8.825  0.0560 -0.2678 -0.2851
   22CHL1  H23A 1614   0.790   1.907   8.859 -0.6803  0.0287  1.2114
   22CHL1  H23B 1615   0.732   1.742   8.810 -2.9563 -1.6053  1.9987
   22CHL1   C24 1616   0.624   1.910   8.704  0.7561 -0.3752  0.4338
   22CHL1  H24A 1617   0.523   1.863   8.709 -0.0567  1.2400  0.1473
   22CHL1  H24B 1618   0.596   2.017   8.719  1.7535 -0.3449  2.5418
   22CHL1   C25 1619   0.697   1.893   8.570  0.3521 -0.0651  0.1642
   22CHL1   H25 1620   0.724   1.787   8.548  2.5362  1.0275 -2.9822
   22CHL1   C26 1621   0.610   1.935   8.458 -0.0934 -0.5932  1.0534
   22CHL1  H26A 1622   0.643   1.900   8.358  1.3723  0.8418  0.9931
   22CHL1  H26B 1623   0.518   1.877   8.481  0.1043 -1.0354  0.7392
   22CHL1  H26C 1624   0.580   2.043   8.456  1.9617  0.0695 -2.3017
   22CHL1   C27 1625   0.827   1.982   8.579  0.0822 -0.7196 -0.4082
   22CHL1  H27A 1626   0.904   1.935   8.644 -0.5883 -4.2881 -1.9285
   22CHL1  H27B 1627   0.857   2.001   8.474 -1.6871  3.2693 -0.3738
   22CHL1  H27C 1628   0.790   2.082   8.611  1.1272 -0.0606 -1.1970
   23CHL1    C3 1629   3.582   1.722  10.279  0.3262 -0.2024 -0.0450
   23CHL1    H3 1630   3.634   1.817  10.255  1.0859 -0.6943 -0.3969
   23CHL1    O3 1631   3.524   1.727  10.411 -0.2805 -0.7324  0.5186
   23CHL1   H3' 1632   3.600   1.741  10.468 -1.0258  1.4999  1.0764
   23CHL1    C4 1633   3.467   1.696  10.172 -0.5459 -0.1438 -0.2979
   23CHL1   H4A 1634   3.398   1.613  10.199  0.3705 -0.6258  0.6060
   23CHL1   H4B 1635   3.400   1.784  10.177 -2.4281 -1.4091 -1.7522
   23CHL1    C5 1636   3.526   1.667  10.034 -0.3701 -1.0512 -0.0736
   23CHL1    C6 1637   3.490   1.747   9.931 -0.3301  1.3336 -0.0396
   23CHL1    H6 1638   3.411   1.822   9.949 -1.7451 -0.6294  2.5980
   23CHL1    C7 1639   3.536   1.739   9.784 -0.2697  0.6838  0.7138
   23CHL1   H7A 1640   3.454   1.734   9.710 -0.1430 -0.1377  0.6211
   23CHL1   H7B 1641   3.596   1.826   9.750 -0.0648 -0.7303 -3.0661
   23CHL1    C8 1642   3.620   1.612   9.765  0.2914 -0.0444  0.2127
   23CHL1    H8 1643   3.551   1.525   9.755  0.7231 -0.5244  1.2258
   23CHL1   C14 1644   3.711   1.639   9.644 -0.1701  0.3651  0.0515
   23CHL1   H14 1645   3.773   1.728   9.667 -0.1889  0.3257  0.2548
   23CHL1   C15 1646   3.634   1.679   9.518 -0.0930 -0.5459  0.3729
   23CHL1  H15A 1647   3.545   1.614   9.512  1.2429 -2.4582  0.5436
   23CHL1  H15B 1648   3.597   1.783   9.535  1.9960  0.0750  1.5956
   23CHL1   C16 1649   3.738   1.653   9.414  0.4853  0.0605 -0.3572
   23CHL1  H16A 1650   3.696   1.596   9.329 -1.3193 -0.6180  0.9318
   23CHL1  H16B 1651   3.776   1.747   9.369 -0.1380  0.3792 -0.2392
   23CHL1   C17 1652   3.858   1.571   9.476 -0.1023  0.2072  1.2370
   23CHL1   H17 1653   3.935   1.647   9.501  0.0391 -0.0202  1.4934
   23CHL1   C13 1654   3.803   1.522   9.605  0.6592 -0.2778  0.0280
   23CHL1   C18 1655   3.723   1.393   9.566 -0.1585  0.2315  0.2606
   23CHL1  H18A 1656   3.644   1.404   9.488 -1.6265  2.1648  1.8947
   23CHL1  H18B 1657   3.787   1.306   9.542 -1.3563 -1.0642  1.5664
   23CHL1  H18C 1658   3.671   1.353   9.656 -1.2041 -1.6199 -1.0883
   23CHL1   C12 1659   3.902   1.495   9.713  0.3125  0.4702 -0.7755
   23CHL1  H12A 1660   3.968   1.409   9.693  0.7686  0.5816  0.2072
   23CHL1  H12B 1661   3.972   1.581   9.705  0.1389  0.5240 -1.8202
   23CHL1   C11 1662   3.834   1.485   9.855 -0.0022  0.5218  0.4709
   23CHL1  H11A 1663   3.796   1.382   9.871 -0.9961  1.1694  2.8163
   23CHL1  H11B 1664   3.916   1.501   9.928  0.7525  0.0612 -0.2578
   23CHL1    C9 1665   3.716   1.588   9.885 -0.2217  0.2600 -1.2575
   23CHL1    H9 1666   3.773   1.682   9.899 -0.4743  0.6089 -2.5090
   23CHL1   C10 1667   3.647   1.572  10.023  0.6331 -0.1984 -0.2155
   23CHL1   C19 1668   3.593   1.427  10.036  0.0289  0.0314  0.5615
   23CHL1  H19A 1669   3.543   1.399   9.941 -1.2429  0.4383  1.0893
   23CHL1  H19B 1670   3.671   1.353  10.064  1.7083  0.5817 -2.3051
   23CHL1  H19C 1671   3.513   1.423  10.113  1.2464 -0.4816  1.8342
   23CHL1    C1 1672   3.749   1.607  10.134 -0.4765  0.2108  0.2040
   23CHL1   H1A 1673   3.836   1.539  10.123 -0.6693 -0.1439  0.7967
   23CHL1   H1B 1674   3.788   1.710  10.120  1.3843 -0.2103  1.9228
   23CHL1    C2 1675   3.687   1.609  10.276 -0.0991  1.2826  0.5098
   23CHL1   H2A 1676   3.760   1.629  10.357  0.9498 -0.2071 -0.0310
   23CHL1   H2B 1677   3.640   1.509  10.288 -0.7042  1.0587 -2.7296
   23CHL1   C20 1678   3.920   1.477   9.368 -0.0410 -0.3334 -0.5156
   23CHL1   H20 1679   3.845   1.397   9.347 -0.5380 -0.0711  0.2292
   23CHL1   C21 1680   4.042   1.403   9.431  0.1042  0.7161 -0.3494
   23CHL1  H21A 1681   3.999   1.351   9.520 -1.3642 -0.6544 -1.7907
   23CHL1  H21B 1682   4.112   1.488   9.445 -0.3512  1.5691 -2.8236
   23CHL1  H21C 1683   4.086   1.328   9.363  1.8255 -0.2835  1.7245
   23CHL1   C22 1684   3.958   1.557   9.246  0.0847  0.0059  0.1172
   23CHL1  H22A 1685   3.866   1.591   9.195  0.2505  1.9198  1.0194
   23CHL1  H22B 1686   4.013   1.651   9.268 -0.8953  1.1112 -1.8856
   23CHL1   C23 1687   4.044   1.474   9.142  0.4464 -0.1268 -0.8128
   23CHL1  H23A 1688   4.149   1.474   9.178  0.5724  1.3999 -1.1257
   23CHL1  H23B 1689   4.007   1.369   9.142 -0.3900  0.1087  1.1213
   23CHL1   C24 1690   4.025   1.515   9.002 -0.0671  0.0478  0.6653
   23CHL1  H24A 1691   3.917   1.516   8.979  0.0936  0.6080 -0.0924
   23CHL1  H24B 1692   4.060   1.620   8.989  0.2177 -0.2143 -0.7788
   23CHL1   C25 1693   4.111   1.439   8.896  0.2001 -0.3169  0.4186
   23CHL1   H25 1694   4.218   1.454   8.922  0.5976 -1.7198 -0.3262
   23CHL1   C26 1695   4.085   1.291   8.894 -0.1201  0.2477 -0.3671
   23CHL1  H26A 1696   4.104   1.244   8.993  0.8056  0.1255 -0.5937
   23CHL1  H26B 1697   3.983   1.275   8.854 -0.2873 -0.4158  0.2968
   23CHL1  H26C 1698   4.160   1.253   8.821 -1.4054 -0.3524 -1.4303
   23CHL1   C27 1699   4.075   1.492   8.756  0.1550  0.6054  0.0418
   23CHL1  H27A 1700   3.976   1.453   8.722  1.5286 -1.1565 -2.2330
   23CHL1  H27B 1701   4.063   1.602   8.752 -1.4036  0.4662  0.2823
   23CHL1  H27C 1702   4.150   1.473   8.676  0.3259  1.0310  0.0967
   24CHL1    C3 1703   5.189   3.809  10.259 -0.3709 -0.2198 -1.0133
   24CHL1    H3 1704   5.102   3.741  10.259 -0.5293 -0.0538  0.3673
   24CHL1    O3 1705   5.206   3.850  10.394  0.3600  0.0685 -0.5486
   24CHL1   H3' 1706   5.272   3.920  10.393  0.6248 -0.1386 -2.3884
   24CHL1    C4 1707   5.324   3.744  10.209 -0.3855 -0.0828  1.0002
   24CHL1   H4A 1708   5.396   3.828  10.215 -0.8729  0.3352  1.0975
   24CHL1   H4B 1709   5.368   3.669  10.278  2.5065  0.0590 -0.5477
   24CHL1    C5 1710   5.305   3.700  10.060  0.4060 -0.2103 -0.3026
   24CHL1    C6 1711   5.334   3.576  10.018  0.5719 -0.4729 -0.2396
   24CHL1    H6 1712   5.382   3.504  10.086  0.4744 -0.4818 -0.1800
   24CHL1    C7 1713   5.306   3.526   9.877 -0.5997  0.5294 -0.4799
   24CHL1   H7A 1714   5.390   3.465   9.839 -0.0625  0.0843  1.3218
   24CHL1   H7B 1715   5.218   3.458   9.878 -1.5273  1.6259  1.8164
   24CHL1    C8 1716   5.289   3.648   9.776 -0.5574  0.8377 -0.4803
   24CHL1    H8 1717   5.396   3.677   9.766  0.9655 -3.0694  1.9487
   24CHL1   C14 1718   5.236   3.591   9.642  0.5684  0.2871  0.3802
   24CHL1   H14 1719   5.130   3.569   9.668  0.5209  1.0654  0.8726
   24CHL1   C15 1720   5.291   3.467   9.581  0.4786  0.9908  1.0990
   24CHL1  H15A 1721   5.401   3.460   9.567  0.3522  0.7424  0.1619
   24CHL1  H15B 1722   5.247   3.380   9.633 -0.9626  1.3352  0.5063
   24CHL1   C16 1723   5.237   3.464   9.438  0.2807  0.3010 -0.1199
   24CHL1  H16A 1724   5.312   3.442   9.359  0.5411  1.9183 -0.3536
   24CHL1  H16B 1725   5.153   3.391   9.431  2.6399 -2.8708  2.1004
   24CHL1   C17 1726   5.176   3.605   9.412  0.0947  0.4264 -0.3546
   24CHL1   H17 1727   5.065   3.611   9.421  0.1912  1.4864  0.3330
   24CHL1   C13 1728   5.220   3.694   9.531 -0.4781 -0.0634 -0.3395
   24CHL1   C18 1729   5.360   3.752   9.499  0.2582 -0.0045 -0.5120
   24CHL1  H18A 1730   5.356   3.827   9.417  0.6588 -0.8063 -1.2846
   24CHL1  H18B 1731   5.400   3.798   9.592 -1.1159 -3.0619  1.7769
   24CHL1  H18C 1732   5.439   3.678   9.472  0.0562 -0.6978  0.7285
   24CHL1   C12 1733   5.121   3.800   9.579  0.3677  0.9001  0.0103
   24CHL1  H12A 1734   5.113   3.877   9.500  1.4413 -1.8337 -2.9613
   24CHL1  H12B 1735   5.020   3.753   9.584  1.0641 -0.7376 -0.5153
   24CHL1   C11 1736   5.148   3.860   9.722 -0.1762  0.4944  0.1386
   24CHL1  H11A 1737   5.224   3.941   9.710  0.4857 -0.2582 -0.9821
   24CHL1  H11B 1738   5.059   3.912   9.762  1.9636  1.9117  3.5906
   24CHL1    C9 1739   5.189   3.753   9.826 -0.0554  0.2024  0.6073
   24CHL1    H9 1740   5.092   3.703   9.846  0.7652 -1.4025  0.7637
   24CHL1   C10 1741   5.244   3.807   9.965  0.9265  0.1050  0.8588
   24CHL1   C19 1742   5.366   3.899   9.934  0.4411 -0.6741 -0.2037
   24CHL1  H19A 1743   5.343   3.998   9.890  1.7672 -0.5810 -0.7096
   24CHL1  H19B 1744   5.416   3.924  10.030  1.2758 -1.8211 -0.3105
   24CHL1  H19C 1745   5.448   3.860   9.870 -0.7608 -1.4753 -1.2941
   24CHL1    C1 1746   5.132   3.894  10.028 -0.6481  0.4382 -0.4057
   24CHL1   H1A 1747   5.122   3.986   9.967 -1.2466 -0.7212 -2.1343
   24CHL1   H1B 1748   5.034   3.843  10.023 -1.6473  1.6509  3.7086
   24CHL1    C2 1749   5.148   3.928  10.176  0.0542  0.4920  0.8840
   24CHL1   H2A 1750   5.053   3.966  10.220 -1.0544 -2.3581  1.1701
   24CHL1   H2B 1751   5.231   4.001  10.186  0.2102  0.0141  4.3591
   24CHL1   C20 1752   5.195   3.641   9.261  0.6192 -1.3278  0.1424
   24CHL1   H20 1753   5.305   3.654   9.247  0.4651 -2.1489 -2.3511
   24CHL1   C21 1754   5.122   3.768   9.223 -0.4301 -0.4200 -0.3849
   24CHL1  H21A 1755   5.158   3.799   9.122  1.5500 -0.5013  0.2659
   24CHL1  H21B 1756   5.145   3.853   9.289 -0.8831 -0.2724 -0.4148
   24CHL1  H21C 1757   5.012   3.750   9.226 -0.5741  0.3709 -0.8217
   24CHL1   C22 1758   5.159   3.529   9.155  0.0657 -0.6582 -0.9653
   24CHL1  H22A 1759   5.118   3.440   9.207  0.6128  0.7143  2.0709
   24CHL1  H22B 1760   5.072   3.572   9.101  1.6363  0.1636 -2.9779
   24CHL1   C23 1761   5.265   3.500   9.050  0.3556 -0.0191 -0.1282
   24CHL1  H23A 1762   5.360   3.480   9.104 -0.9690 -1.7194  1.7528
   24CHL1  H23B 1763   5.217   3.413   9.000  1.3137  0.4167 -1.8504
   24CHL1   C24 1764   5.300   3.608   8.947 -0.5953  0.5726 -0.8735
   24CHL1  H24A 1765   5.224   3.623   8.866  0.4734 -0.7310 -2.1751
   24CHL1  H24B 1766   5.305   3.711   8.988 -0.3574 -0.1656  1.0172
   24CHL1   C25 1767   5.427   3.587   8.863 -0.0350  0.4198  0.6503
   24CHL1   H25 1768   5.516   3.560   8.924 -0.6657 -1.5454  0.7852
   24CHL1   C26 1769   5.397   3.464   8.774 -0.0241 -0.0395 -0.1897
   24CHL1  H26A 1770   5.477   3.449   8.699  0.2298 -2.1493  0.4351
   24CHL1  H26B 1771   5.374   3.371   8.831 -1.1375 -0.1901 -0.8551
   24CHL1  H26C 1772   5.306   3.489   8.715 -0.5161  0.4488  0.7437
   24CHL1   C27 1773   5.457   3.708   8.779  0.0299  0.5576  0.2906
   24CHL1  H27A 1774   5.524   3.673   8.697  0.1313  0.5444  0.3805
   24CHL1  H27B 1775   5.358   3.740   8.739  1.1007  1.3755 -1.9018
   24CHL1  H27C 1776   5.492   3.797   8.835 -0.6721  1.4259 -0.6088
   25CHL1    C3 1777   1.356   4.810  10.597 -0.9695  0.1930 -0.5323
   25CHL1    H3 1778   1.249   4.813  10.565 -0.6086  0.8101 -1.7677
   25CHL1    O3 1779   1.349   4.813  10.736  0.0832  0.1843 -0.5982
   25CHL1   H3' 1780   1.338   4.905  10.760 -1.3344 -0.4045  1.2765
   25CHL1    C4 1781   1.421   4.677  10.550  0.3310  0.0830  0.0916
   25CHL1   H4A 1782   1.526   4.666  10.586 -0.2887 -1.8900  1.4843
   25CHL1   H4B 1783   1.370   4.590  10.598 -0.6522  0.8258  0.4309
   25CHL1    C5 1784   1.420   4.670  10.399  0.5587  0.2482 -0.6266
   25CHL1    C6 1785   1.376   4.567  10.330 -0.1187  0.4888  0.9809
   25CHL1    H6 1786   1.351   4.473  10.381  0.9427 -0.0499  0.5405
   25CHL1    C7 1787   1.364   4.560  10.181  0.1544  1.1538  0.2960
   25CHL1   H7A 1788   1.394   4.456  10.154  2.3183  1.1913  2.2383
   25CHL1   H7B 1789   1.258   4.569  10.150 -0.1703 -0.9726  0.6224
   25CHL1    C8 1790   1.451   4.662  10.108 -0.3621 -0.3700  0.5086
   25CHL1    H8 1791   1.560   4.640  10.104 -0.3238 -0.0330 -0.7525
   25CHL1   C14 1792   1.401   4.673   9.972  0.3617 -0.1469  1.5154
   25CHL1   H14 1793   1.293   4.700   9.980  0.4152  0.9778 -0.9920
   25CHL1   C15 1794   1.389   4.542   9.880 -0.6044 -0.3163  0.5114
   25CHL1  H15A 1795   1.482   4.484   9.895 -1.1516 -1.0926  1.0541
   25CHL1  H15B 1796   1.309   4.474   9.918  0.6585 -2.7008 -0.8731
   25CHL1   C16 1797   1.364   4.598   9.744  0.3281  0.0514  0.3230
   25CHL1  H16A 1798   1.444   4.547   9.685  0.2627 -0.8479  1.0028
   25CHL1  H16B 1799   1.263   4.566   9.710 -0.2499 -0.7254  2.6242
   25CHL1   C17 1800   1.383   4.751   9.744  0.6879 -0.2790 -0.1346
   25CHL1   H17 1801   1.283   4.797   9.751  0.2955 -1.3348  2.1727
   25CHL1   C13 1802   1.456   4.782   9.880  0.3355 -0.6813  0.3811
   25CHL1   C18 1803   1.603   4.755   9.857  0.5204  0.1978  0.6182
   25CHL1  H18A 1804   1.665   4.824   9.796  0.1232  0.2462  0.2642
   25CHL1  H18B 1805   1.665   4.722   9.943 -0.8487 -3.4545  0.3706
   25CHL1  H18C 1806   1.609   4.669   9.788 -0.0878 -0.0633  0.8861
   25CHL1   C12 1807   1.425   4.918   9.948  0.3987 -0.5250 -0.0813
   25CHL1  H12A 1808   1.487   4.994   9.896 -1.2109 -0.1090 -1.4473
   25CHL1  H12B 1809   1.319   4.951   9.953  0.9974  1.3599  1.4925
   25CHL1   C11 1810   1.484   4.920  10.090  0.3849  0.6248  0.3886
   25CHL1  H11A 1811   1.594   4.906  10.085  0.3407  0.6728 -2.5994
   25CHL1  H11B 1812   1.470   5.017  10.142  2.0521  0.2974  1.5153
   25CHL1    C9 1813   1.436   4.801  10.176  0.6071  0.2998 -0.4933
   25CHL1    H9 1814   1.326   4.812  10.182  0.8792  3.2966  2.6537
   25CHL1   C10 1815   1.473   4.804  10.325 -0.0527  0.1811 -0.6179
   25CHL1   C19 1816   1.628   4.803  10.335  0.0018 -0.1882 -0.2475
   25CHL1  H19A 1817   1.666   4.899  10.295  2.0775 -0.3051  1.2576
   25CHL1  H19B 1818   1.656   4.795  10.442  0.1791  1.7435 -0.1058
   25CHL1  H19C 1819   1.679   4.716  10.288 -1.4915 -0.6412 -1.0758
   25CHL1    C1 1820   1.412   4.931  10.391  0.0015 -0.5400  0.6326
   25CHL1   H1A 1821   1.456   5.026  10.353 -1.2987  0.5303  1.6830
   25CHL1   H1B 1822   1.306   4.945  10.360  0.7683  3.4024 -0.7041
   25CHL1    C2 1823   1.426   4.932  10.544  0.3033 -0.5370  0.8674
   25CHL1   H2A 1824   1.371   5.021  10.581  1.6532  0.0492  1.5497
   25CHL1   H2B 1825   1.531   4.945  10.578  0.1681 -1.2880  1.5908
   25CHL1   C20 1826   1.447   4.805   9.616 -0.2025 -0.2454 -0.4772
   25CHL1   H20 1827   1.551   4.765   9.609 -0.5314 -1.2723  0.2897
   25CHL1   C21 1828   1.452   4.961   9.615  1.1389  0.9003  0.6309
   25CHL1  H21A 1829   1.508   5.011   9.697  1.2690  4.7708 -1.5800
   25CHL1  H21B 1830   1.354   5.007   9.642  1.2620  1.0553  0.8216
   25CHL1  H21C 1831   1.500   4.995   9.521  1.5972  0.6916  0.7879
   25CHL1   C22 1832   1.383   4.752   9.478  0.4342 -1.2266  0.3186
   25CHL1  H22A 1833   1.278   4.726   9.503 -0.0950 -1.0621 -1.5764
   25CHL1  H22B 1834   1.374   4.839   9.410 -0.5616  0.4771  2.4942
   25CHL1   C23 1835   1.475   4.651   9.411 -0.2230 -0.1368  0.2821
   25CHL1  H23A 1836   1.574   4.697   9.391  0.3506 -1.2672  0.4749
   25CHL1  H23B 1837   1.486   4.562   9.477  1.2205 -1.2229 -1.3273
   25CHL1   C24 1838   1.420   4.603   9.281  1.1699 -0.0547  0.3378
   25CHL1  H24A 1839   1.315   4.567   9.292  1.5655 -0.6350  2.7696
   25CHL1  H24B 1840   1.424   4.696   9.221  0.8173  0.1154  0.5758
   25CHL1   C25 1841   1.493   4.491   9.216 -0.1937  0.0457 -0.1871
   25CHL1   H25 1842   1.600   4.519   9.227 -0.0524 -0.2589 -0.7386
   25CHL1   C26 1843   1.465   4.352   9.275  0.5997  0.1670 -0.4929
   25CHL1  H26A 1844   1.492   4.353   9.383 -0.4317 -0.3898 -0.2124
   25CHL1  H26B 1845   1.355   4.344   9.263  0.3060  0.3875  1.6703
   25CHL1  H26C 1846   1.515   4.265   9.226 -1.4229  0.0143 -2.4271
   25CHL1   C27 1847   1.465   4.483   9.071  0.2916  0.5616 -0.2047
   25CHL1  H27A 1848   1.379   4.416   9.051 -0.6559  1.7034  0.0166
   25CHL1  H27B 1849   1.454   4.584   9.027  1.0969  0.7054 -0.0885
   25CHL1  H27C 1850   1.552   4.435   9.019  0.2716  1.1180 -0.7557
   26CHL1    C3 1851   2.501   0.419  10.382 -0.5165 -0.7930  0.3002
   26CHL1    H3 1852   2.403   0.375  10.354 -1.1651  0.6948  0.1307
   26CHL1    O3 1853   2.510   0.388  10.517 -0.2595 -0.3446  0.0032
   26CHL1   H3' 1854   2.442   0.436  10.566  0.5512  1.5090 -0.6054
   26CHL1    C4 1855   2.620   0.367  10.318 -0.0706 -0.6291  0.0817
   26CHL1   H4A 1856   2.708   0.413  10.369 -0.6861 -0.4249  0.9754
   26CHL1   H4B 1857   2.614   0.258  10.338 -1.5600 -0.5311  0.2240
   26CHL1    C5 1858   2.625   0.398  10.169 -0.6467  0.2569 -0.2929
   26CHL1    C6 1859   2.639   0.299  10.081  0.1033 -0.1130 -0.7304
   26CHL1    H6 1860   2.651   0.195  10.116 -1.1027  0.5396  1.8702
   26CHL1    C7 1861   2.649   0.324   9.935 -0.1563 -0.1609  0.3924
   26CHL1   H7A 1862   2.739   0.272   9.896 -0.7663 -0.4415 -0.6532
   26CHL1   H7B 1863   2.564   0.279   9.880 -0.0779 -1.5209  1.3215
   26CHL1    C8 1864   2.652   0.477   9.899 -0.2605  0.3980 -0.7012
   26CHL1    H8 1865   2.761   0.497   9.910 -0.2326 -0.6409  1.2657
   26CHL1   C14 1866   2.601   0.494   9.758 -0.1260  0.1923 -0.0466
   26CHL1   H14 1867   2.494   0.467   9.773  0.5285 -2.2838  0.6608
   26CHL1   C15 1868   2.656   0.394   9.655  1.2846  0.5280  0.0165
   26CHL1  H15A 1869   2.766   0.379   9.656  1.2096 -0.1922 -1.1685
   26CHL1  H15B 1870   2.610   0.293   9.668 -0.7732  1.5939  1.6500
   26CHL1   C16 1871   2.615   0.462   9.521 -0.1858  0.1568  0.3818
   26CHL1  H16A 1872   2.698   0.459   9.447 -0.9616  0.7606 -0.5416
   26CHL1  H16B 1873   2.533   0.403   9.475 -1.1841  0.8869  1.1602
   26CHL1   C17 1874   2.560   0.606   9.555 -0.8853  0.8859 -0.2568
   26CHL1   H17 1875   2.451   0.603   9.579 -0.9396  1.2550 -0.4474
   26CHL1   C13 1876   2.623   0.629   9.695  0.9622 -0.2637  0.3655
   26CHL1   C18 1877   2.770   0.675   9.693 -0.1338  0.9896 -0.0683
   26CHL1  H18A 1878   2.836   0.604   9.639 -2.5095 -1.7365  0.3778
   26CHL1  H18B 1879   2.773   0.780   9.657 -1.9943  1.1897  0.2233
   26CHL1  H18C 1880   2.816   0.677   9.793  1.6802 -2.6903 -0.6736
   26CHL1   C12 1881   2.531   0.717   9.785  0.0615  0.5468  1.1356
   26CHL1  H12A 1882   2.533   0.822   9.749 -0.4916  0.8385  1.9420
   26CHL1  H12B 1883   2.428   0.679   9.772 -0.1368  1.0110  1.3157
   26CHL1   C11 1884   2.569   0.711   9.931  0.2119  0.9562  0.1981
   26CHL1  H11A 1885   2.665   0.765   9.944  0.1740  1.0543  0.0693
   26CHL1  H11B 1886   2.483   0.763   9.980  0.9335  0.3089  2.2549
   26CHL1    C9 1887   2.567   0.570   9.989 -0.1022 -0.1392  0.3217
   26CHL1    H9 1888   2.463   0.538   9.967 -0.0042 -0.4529  0.3015
   26CHL1   C10 1889   2.601   0.548  10.141  0.3231  0.1153  0.4075
   26CHL1   C19 1890   2.736   0.611  10.173  0.4209  0.2719  0.2877
   26CHL1  H19A 1891   2.729   0.721  10.162  3.8718  0.7355  1.5134
   26CHL1  H19B 1892   2.772   0.594  10.276  1.0497  0.3334  0.0845
   26CHL1  H19C 1893   2.819   0.586  10.104  0.0327  0.3341 -0.2072
   26CHL1    C1 1894   2.481   0.613  10.223 -0.3701  0.7232 -0.6089
   26CHL1   H1A 1895   2.474   0.723  10.205 -0.9837  0.4604 -2.1149
   26CHL1   H1B 1896   2.386   0.571  10.184 -0.1160  1.8125 -2.5703
   26CHL1    C2 1897   2.483   0.568  10.367 -0.5824  0.6203  0.1441
   26CHL1   H2A 1898   2.392   0.605  10.418 -0.7915 -0.6655  0.7466
   26CHL1   H2B 1899   2.564   0.613  10.429  0.1744  0.7379 -0.9022
   26CHL1   C20 1900   2.584   0.715   9.451  0.2288 -1.0356 -0.3646
   26CHL1   H20 1901   2.694   0.727   9.439  0.0108  1.7584 -0.1888
   26CHL1   C21 1902   2.525   0.854   9.500  0.2657 -0.2703 -0.2485
   26CHL1  H21A 1903   2.493   0.915   9.413 -0.8534 -2.7425 -1.6719
   26CHL1  H21B 1904   2.597   0.904   9.569 -1.6695  1.5074  0.5868
   26CHL1  H21C 1905   2.433   0.831   9.558  1.3437  2.1744  2.6915
   26CHL1   C22 1906   2.529   0.678   9.306  0.4721 -0.4304  0.5281
   26CHL1  H22A 1907   2.581   0.584   9.277 -0.4572 -1.0787  0.9214
   26CHL1  H22B 1908   2.418   0.670   9.309  0.4517 -1.0846 -0.9642
   26CHL1   C23 1909   2.563   0.783   9.197  0.1132 -0.6672  0.3588
   26CHL1  H23A 1910   2.538   0.889   9.220  0.8647  0.0016 -1.6010
   26CHL1  H23B 1911   2.674   0.771   9.188  0.0377  0.0840 -3.2637
   26CHL1   C24 1912   2.500   0.741   9.063  0.3643 -0.4472 -0.0466
   26CHL1  H24A 1913   2.521   0.632   9.050  2.0338 -0.2304  0.5984
   26CHL1  H24B 1914   2.391   0.748   9.082  0.0759  0.8191 -1.9306
   26CHL1   C25 1915   2.535   0.813   8.932  0.2269  0.0498 -0.3263
   26CHL1   H25 1916   2.471   0.761   8.857  1.2587 -0.4999 -0.8404
   26CHL1   C26 1917   2.487   0.960   8.932 -0.8716  0.3835 -0.4252
   26CHL1  H26A 1918   2.464   0.984   8.826 -2.4171 -2.4125 -0.8049
   26CHL1  H26B 1919   2.395   0.965   8.994  1.2362 -2.9525  3.4157
   26CHL1  H26C 1920   2.559   1.035   8.973 -1.1618  1.2595 -1.4603
   26CHL1   C27 1921   2.685   0.794   8.893 -0.1830 -0.1863  0.8156
   26CHL1  H27A 1922   2.748   0.777   8.982  2.0569  1.2353 -0.4140
   26CHL1  H27B 1923   2.700   0.701   8.835 -1.4001 -1.6814  2.7925
   26CHL1  H27C 1924   2.731   0.877   8.834  1.0629 -2.1747 -1.1941
   27CHL1    C3 1925   1.713   4.261  10.578  0.0236  0.5854 -0.2959
   27CHL1    H3 1926   1.629   4.197  10.544  0.2941 -1.7953  3.0655
   27CHL1    O3 1927   1.702   4.273  10.719  0.0450 -0.3737 -0.4211
   27CHL1   H3' 1928   1.624   4.327  10.734 -0.7346 -1.5088 -0.2616
   27CHL1    C4 1929   1.857   4.211  10.541  0.5785  0.3424 -0.6300
   27CHL1   H4A 1930   1.933   4.282  10.581 -0.4100  0.5128  1.0503
   27CHL1   H4B 1931   1.887   4.128  10.608 -0.9202  1.4328  1.5542
   27CHL1    C5 1932   1.851   4.192  10.391  0.1418 -0.2461 -0.3207
   27CHL1    C6 1933   1.886   4.075  10.336  0.2508  0.0299  0.4750
   27CHL1    H6 1934   1.921   3.994  10.402  0.2678 -0.6106 -0.3065
   27CHL1    C7 1935   1.907   4.055  10.182  0.8026 -0.0458 -0.6959
   27CHL1   H7A 1936   2.006   4.009  10.162  0.9693 -0.4369  0.9067
   27CHL1   H7B 1937   1.824   3.989  10.149 -0.6653  0.4669  1.6866
   27CHL1    C8 1938   1.900   4.186  10.096  0.4161  0.0170 -0.5500
   27CHL1    H8 1939   1.994   4.242  10.114 -0.3931  0.6013  2.6037
   27CHL1   C14 1940   1.870   4.138   9.958 -1.1379 -0.5787  0.5546
   27CHL1   H14 1941   1.776   4.081   9.945 -0.5074 -1.2354 -1.5972
   27CHL1   C15 1942   1.958   4.029   9.887  0.4500  0.3288 -0.7686
   27CHL1  H15A 1943   2.067   4.047   9.894  0.1549  1.8675  0.3634
   27CHL1  H15B 1944   1.944   3.935   9.944 -0.7021  2.0865  2.0574
   27CHL1   C16 1945   1.902   4.041   9.745  0.0070 -0.4588  0.3155
   27CHL1  H16A 1946   1.977   4.020   9.665 -2.3890 -0.3915 -2.0958
   27CHL1  H16B 1947   1.822   3.966   9.725 -1.7312  1.7177 -1.3055
   27CHL1   C17 1948   1.832   4.176   9.733  0.2207 -0.6960  0.7444
   27CHL1   H17 1949   1.722   4.164   9.740  0.3352 -0.8484  3.0266
   27CHL1   C13 1950   1.869   4.257   9.860  0.4554  1.0589 -0.8356
   27CHL1   C18 1951   2.003   4.320   9.843 -0.0017  0.1754 -0.0634
   27CHL1  H18A 1952   2.001   4.397   9.763  0.9447 -0.7886 -1.0441
   27CHL1  H18B 1953   2.033   4.377   9.934  2.9894  2.1362 -2.1056
   27CHL1  H18C 1954   2.086   4.247   9.832 -2.3261 -2.3423 -2.2525
   27CHL1   C12 1955   1.767   4.360   9.910  1.0751 -0.7898 -0.0800
   27CHL1  H12A 1956   1.794   4.446   9.845 -3.9240  1.3657  0.2362
   27CHL1  H12B 1957   1.663   4.324   9.897  1.2602 -1.9840  1.4354
   27CHL1   C11 1958   1.774   4.399  10.058 -0.4829 -0.0798  0.1301
   27CHL1  H11A 1959   1.869   4.457  10.064  0.2595 -1.3317  0.7948
   27CHL1  H11B 1960   1.683   4.459  10.080 -0.4877  0.9779 -2.3967
   27CHL1    C9 1961   1.788   4.275  10.151  0.2745  0.2731 -0.0528
   27CHL1    H9 1962   1.699   4.209  10.138  1.9612 -1.9686 -0.8911
   27CHL1   C10 1963   1.812   4.317  10.305  0.5932  0.0687  0.4638
   27CHL1   C19 1964   1.920   4.409  10.322 -0.1679 -0.2200  0.2505
   27CHL1  H19A 1965   2.007   4.375  10.263  1.4703  0.0707  2.3493
   27CHL1  H19B 1966   1.901   4.506  10.271  0.8294  1.0225  2.1031
   27CHL1  H19C 1967   1.950   4.437  10.426 -0.9684 -0.2069  0.4878
   27CHL1    C1 1968   1.681   4.377  10.357 -0.5228  0.1751  0.0269
   27CHL1   H1A 1969   1.664   4.475  10.307 -1.8689  0.2975  0.6713
   27CHL1   H1B 1970   1.600   4.308  10.327  1.2384 -1.4396 -1.2305
   27CHL1    C2 1971   1.683   4.395  10.512  0.2635  0.1364  1.1112
   27CHL1   H2A 1972   1.584   4.430  10.550  0.2983 -0.9401  2.2624
   27CHL1   H2B 1973   1.763   4.468  10.539  2.8008 -2.0396 -0.1892
   27CHL1   C20 1974   1.848   4.236   9.593 -0.0590 -0.1260 -0.4260
   27CHL1   H20 1975   1.953   4.265   9.573 -0.0515 -0.1425 -0.4099
   27CHL1   C21 1976   1.765   4.371   9.575 -0.1954  0.1783 -0.1433
   27CHL1  H21A 1977   1.742   4.393   9.469 -1.5164 -0.9069 -0.1021
   27CHL1  H21B 1978   1.814   4.461   9.619 -1.0612 -1.0701  3.8067
   27CHL1  H21C 1979   1.666   4.369   9.624  0.5751  2.9235  1.7762
   27CHL1   C22 1980   1.795   4.132   9.492  0.1868 -0.5458  0.3849
   27CHL1  H22A 1981   1.832   4.030   9.515 -1.0830 -1.4242 -1.2011
   27CHL1  H22B 1982   1.685   4.140   9.506  0.2975 -2.1062  2.6861
   27CHL1   C23 1983   1.824   4.148   9.335 -0.6766 -0.5162 -0.0213
   27CHL1  H23A 1984   1.808   4.253   9.306  2.3522 -0.2978 -1.2412
   27CHL1  H23B 1985   1.933   4.130   9.339 -0.5614  0.3213  1.3013
   27CHL1   C24 1986   1.762   4.042   9.246  0.3657 -0.0196  0.6902
   27CHL1  H24A 1987   1.803   3.947   9.285 -0.3384  0.2485  2.1813
   27CHL1  H24B 1988   1.651   4.033   9.250  0.4694 -1.6025  0.4109
   27CHL1   C25 1989   1.811   4.046   9.096  0.0457  0.2473 -0.4709
   27CHL1   H25 1990   1.922   4.040   9.108 -0.1366 -2.4944  0.5674
   27CHL1   C26 1991   1.753   3.929   9.011 -0.1718 -0.0457  0.3596
   27CHL1  H26A 1992   1.757   3.827   9.056 -1.8899 -0.1911  0.2407
   27CHL1  H26B 1993   1.644   3.949   9.005 -0.5366 -1.5460  1.3992
   27CHL1  H26C 1994   1.799   3.931   8.910 -1.3822 -0.5142 -0.2218
   27CHL1   C27 1995   1.765   4.186   9.040 -0.3163  0.2985 -0.0089
   27CHL1  H27A 1996   1.660   4.202   9.071 -0.0683 -1.0475  1.6947
   27CHL1  H27B 1997   1.820   4.277   9.073 -1.2435  0.6246  0.6522
   27CHL1  H27C 1998   1.777   4.188   8.929  0.5141 -0.4411  0.0575
   28CHL1    C3 1999   5.861   3.454   9.998  0.3934  0.3890 -0.3149
   28CHL1    H3 2000   5.926   3.364  10.008  2.2388  1.7336  0.4955
   28CHL1    O3 2001   5.848   3.502  10.126  0.0814 -0.3499 -0.1768
   28CHL1   H3' 2002   5.820   3.593  10.116  2.1759  0.6200  1.9469
   28CHL1    C4 2003   5.928   3.564   9.916  0.3334  0.3279  0.7889
   28CHL1   H4A 2004   5.864   3.654   9.930 -0.7595 -0.3704  0.4099
   28CHL1   H4B 2005   6.025   3.592   9.962 -0.5514  0.1371  2.8825
   28CHL1    C5 2006   5.934   3.536   9.763 -0.5247 -0.7562 -0.9080
   28CHL1    C6 2007   6.042   3.535   9.688  0.5837 -0.7300 -0.6178
   28CHL1    H6 2008   6.133   3.569   9.739 -0.3645 -2.2351  2.2572
   28CHL1    C7 2009   6.049   3.524   9.538  0.0228  0.2743 -0.3251
   28CHL1   H7A 2010   6.117   3.609   9.511  2.9502 -0.8082  2.8716
   28CHL1   H7B 2011   6.106   3.431   9.516 -0.1345 -0.4535  2.1066
   28CHL1    C8 2012   5.916   3.533   9.473  0.2525 -0.9556  0.7802
   28CHL1    H8 2013   5.888   3.640   9.465 -1.8511 -1.6046 -1.5238
   28CHL1   C14 2014   5.936   3.475   9.338 -0.3297  0.5423  0.1418
   28CHL1   H14 2015   5.956   3.368   9.365 -1.2154  0.2013 -0.5257
   28CHL1   C15 2016   6.055   3.527   9.254  0.1371 -0.0234 -1.1270
   28CHL1  H15A 2017   6.081   3.634   9.269  2.2224 -0.6512  0.0524
   28CHL1  H15B 2018   6.154   3.479   9.271 -0.4969 -1.1479 -0.5064
   28CHL1   C16 2019   6.006   3.499   9.113  0.0095 -0.0537 -0.4361
   28CHL1  H16A 2020   6.002   3.596   9.057 -1.4124 -0.7610 -1.6265
   28CHL1  H16B 2021   6.079   3.432   9.063 -0.1056 -0.6749  0.2260
   28CHL1   C17 2022   5.870   3.424   9.128  0.5002  0.0915 -0.1210
   28CHL1   H17 2023   5.879   3.315   9.148 -0.1333 -0.0919 -0.7649
   28CHL1   C13 2024   5.810   3.478   9.257 -0.0071 -1.1109 -0.5151
   28CHL1   C18 2025   5.749   3.627   9.241 -0.0321  0.3802  0.1201
   28CHL1  H18A 2026   5.653   3.625   9.186 -0.1881  1.2888  0.3481
   28CHL1  H18B 2027   5.732   3.681   9.336 -1.3068  1.0825 -0.4873
   28CHL1  H18C 2028   5.823   3.690   9.187 -0.1366  2.5412  2.3615
   28CHL1   C12 2029   5.705   3.390   9.326 -0.1117  0.6921  0.7598
   28CHL1  H12A 2030   5.607   3.396   9.274 -0.3829  0.0373  1.1776
   28CHL1  H12B 2031   5.739   3.284   9.332 -3.2823 -0.4044  1.3962
   28CHL1   C11 2032   5.683   3.434   9.471 -0.1279 -0.0248  0.2465
   28CHL1  H11A 2033   5.638   3.535   9.462 -2.3106 -0.8025  1.5146
   28CHL1  H11B 2034   5.602   3.374   9.519 -0.2789 -0.2063 -0.2352
   28CHL1    C9 2035   5.816   3.452   9.556 -0.4717  0.3173 -0.2982
   28CHL1    H9 2036   5.861   3.351   9.564 -2.0344 -0.3066  1.2021
   28CHL1   C10 2037   5.798   3.498   9.703 -0.2392 -0.2351  0.1753
   28CHL1   C19 2038   5.710   3.629   9.700 -0.4205 -0.1758 -0.8023
   28CHL1  H19A 2039   5.750   3.693   9.618 -0.2035  0.3550 -0.2935
   28CHL1  H19B 2040   5.603   3.605   9.682 -1.1679  2.4579 -0.3758
   28CHL1  H19C 2041   5.712   3.681   9.798 -0.4801 -1.9349  0.1665
   28CHL1    C1 2042   5.733   3.382   9.787 -0.0337  0.1103  0.3617
   28CHL1   H1A 2043   5.632   3.362   9.744  1.7193  1.2486 -5.2047
   28CHL1   H1B 2044   5.784   3.286   9.766 -0.7114  0.1804 -1.8725
   28CHL1    C2 2045   5.724   3.414   9.934 -0.3623 -0.0886  0.1576
   28CHL1   H2A 2046   5.689   3.323   9.987  0.6317 -1.2606 -1.1278
   28CHL1   H2B 2047   5.652   3.498   9.946  0.1317  0.3279  0.2398
   28CHL1   C20 2048   5.787   3.428   8.997  1.0584 -0.3278 -0.9282
   28CHL1   H20 2049   5.764   3.532   8.964  1.5234  0.2295  0.4271
   28CHL1   C21 2050   5.652   3.350   9.013 -0.0821 -0.0296 -0.2421
   28CHL1  H21A 2051   5.599   3.326   8.918  1.8051 -1.2698 -1.0210
   28CHL1  H21B 2052   5.579   3.397   9.083  0.5837  2.6814 -1.2726
   28CHL1  H21C 2053   5.671   3.249   9.056 -1.2664 -0.3682 -0.4511
   28CHL1   C22 2054   5.865   3.361   8.887 -0.3777  0.2081  0.4235
   28CHL1  H22A 2055   5.936   3.441   8.857 -0.2566  0.6362  1.7515
   28CHL1  H22B 2056   5.926   3.274   8.921  0.3198  0.2878 -0.5998
   28CHL1   C23 2057   5.785   3.332   8.763 -0.0011  0.6783 -0.4679
   28CHL1  H23A 2058   5.736   3.232   8.757 -1.4396  1.4480 -4.2090
   28CHL1  H23B 2059   5.696   3.397   8.752 -0.6609  0.2291  1.7164
   28CHL1   C24 2060   5.870   3.355   8.636 -0.0408 -0.7295  1.1269
   28CHL1  H24A 2061   5.899   3.463   8.640 -2.1372 -0.1507  2.2688
   28CHL1  H24B 2062   5.969   3.304   8.637  0.2379 -0.2008  1.6946
   28CHL1   C25 2063   5.796   3.339   8.501 -0.3984 -0.3197  0.1728
   28CHL1   H25 2064   5.777   3.230   8.491  1.6685 -0.6085 -1.2522
   28CHL1   C26 2065   5.673   3.419   8.481 -0.7189  0.4753  0.2819
   28CHL1  H26A 2066   5.631   3.425   8.379 -0.9337  2.9868  0.4534
   28CHL1  H26B 2067   5.604   3.354   8.539  0.3904  0.8121  2.0659
   28CHL1  H26C 2068   5.692   3.513   8.539  1.2783  0.6228 -0.5225
   28CHL1   C27 2069   5.889   3.364   8.382  0.2202  0.2846 -0.1783
   28CHL1  H27A 2070   5.865   3.306   8.290 -0.1609 -0.2424  0.2449
   28CHL1  H27B 2071   5.900   3.472   8.358 -1.6497  1.2065  2.6522
   28CHL1  H27C 2072   5.986   3.323   8.416  0.2017 -0.5492 -1.0800
   29CHL1    C3 2073   1.448   1.955   6.660  0.2173 -0.3412 -0.3343
   29CHL1    H3 2074   1.556   1.979   6.669  0.1324 -0.5513  1.5962
   29CHL1    O3 2075   1.417   1.978   6.522 -0.1862 -0.7813 -0.0767
   29CHL1   H3' 2076   1.498   1.976   6.471 -0.0355  5.7004 -0.9696
   29CHL1    C4 2077   1.418   1.806   6.691 -0.1502 -0.1599  0.0605
   29CHL1   H4A 2078   1.315   1.794   6.652  0.6880  2.3700 -3.4252
   29CHL1   H4B 2079   1.480   1.737   6.630  0.1502 -0.5289  0.7683
   29CHL1    C5 2080   1.429   1.786   6.840 -0.5177 -0.8733  0.5568
   29CHL1    C6 2081   1.517   1.694   6.883  0.0121 -0.5570  0.7678
   29CHL1    H6 2082   1.580   1.631   6.819 -0.2264 -1.0321  0.9870
   29CHL1    C7 2083   1.535   1.668   7.030  0.4465 -0.4044  0.4422
   29CHL1   H7A 2084   1.546   1.559   7.053  1.1349  0.2748  4.0589
   29CHL1   H7B 2085   1.626   1.719   7.069 -0.0797 -0.2298  1.4789
   29CHL1    C8 2086   1.424   1.722   7.122  0.2181 -0.1005  0.5280
   29CHL1    H8 2087   1.331   1.665   7.103 -1.3559  2.8940 -1.7753
   29CHL1   C14 2088   1.471   1.718   7.270 -0.7028  0.4279 -0.6864
   29CHL1   H14 2089   1.551   1.795   7.268  0.5761 -0.8624 -0.6623
   29CHL1   C15 2090   1.529   1.596   7.327  0.3786  0.5846 -0.1376
   29CHL1  H15A 2091   1.457   1.516   7.299  0.5795  0.0673  0.7642
   29CHL1  H15B 2092   1.631   1.565   7.295 -0.0623  0.1137 -1.1127
   29CHL1   C16 2093   1.522   1.609   7.480 -0.3118 -0.2728  1.6055
   29CHL1  H16A 2094   1.471   1.517   7.516 -0.2573 -1.2456 -0.5948
   29CHL1  H16B 2095   1.623   1.628   7.522  0.1958  2.7282 -0.5744
   29CHL1   C17 2096   1.452   1.749   7.505  0.2801  0.7899  1.1160
   29CHL1   H17 2097   1.536   1.819   7.521  1.0516  0.1526 -0.0420
   29CHL1   C13 2098   1.376   1.774   7.368 -0.6506  0.0928  0.5140
   29CHL1   C18 2099   1.252   1.678   7.368  0.4475 -0.4345 -0.6478
   29CHL1  H18A 2100   1.204   1.688   7.268 -1.5543  1.5564  0.4306
   29CHL1  H18B 2101   1.278   1.574   7.396 -0.1855 -1.1543 -2.5712
   29CHL1  H18C 2102   1.175   1.715   7.439  0.6996 -0.6710 -0.2440
   29CHL1   C12 2103   1.359   1.924   7.336  0.0622  0.0583  0.8870
   29CHL1  H12A 2104   1.278   1.967   7.399 -0.5335 -0.1972  0.3116
   29CHL1  H12B 2105   1.454   1.970   7.372  0.4342 -0.3773  0.4848
   29CHL1   C11 2106   1.306   1.940   7.189  0.4721  0.2420  0.1439
   29CHL1  H11A 2107   1.206   1.892   7.192 -0.8773  2.8583  2.6416
   29CHL1  H11B 2108   1.283   2.045   7.163  1.1653 -0.0747 -1.9135
   29CHL1    C9 2109   1.398   1.873   7.083 -0.0430  0.4153  0.5813
   29CHL1    H9 2110   1.486   1.941   7.085 -0.7167  1.2930  1.6032
   29CHL1   C10 2111   1.350   1.879   6.928  0.2372 -0.2946 -0.2726
   29CHL1   C19 2112   1.199   1.843   6.925  0.2251  0.0754  0.8978
   29CHL1  H19A 2113   1.185   1.741   6.968 -2.8715 -0.0478 -0.1443
   29CHL1  H19B 2114   1.138   1.911   6.989 -0.9022 -1.9750  2.1235
   29CHL1  H19C 2115   1.149   1.848   6.826  0.3560 -0.0094  0.8278
   29CHL1    C1 2116   1.371   2.028   6.880  0.1177  0.8608  0.2565
   29CHL1   H1A 2117   1.293   2.088   6.930  0.2827  0.3880  1.1016
   29CHL1   H1B 2118   1.473   2.063   6.907 -0.9192  1.9250  3.1729
   29CHL1    C2 2119   1.360   2.053   6.732  0.5744  1.2490  0.1958
   29CHL1   H2A 2120   1.386   2.158   6.707  3.9402  0.7156  1.0283
   29CHL1   H2B 2121   1.251   2.035   6.716  1.1062 -1.4548 -0.9373
   29CHL1   C20 2122   1.366   1.753   7.635 -0.4886  0.8842  0.3736
   29CHL1   H20 2123   1.260   1.727   7.614 -0.2559 -1.8787  2.1159
   29CHL1   C21 2124   1.361   1.903   7.683  0.4235  0.1204 -0.7780
   29CHL1  H21A 2125   1.462   1.950   7.684  0.9982 -1.1025  0.2250
   29CHL1  H21B 2126   1.314   1.905   7.784 -0.2703  0.8116 -1.1011
   29CHL1  H21C 2127   1.308   1.973   7.615  1.9086  0.9092 -1.1502
   29CHL1   C22 2128   1.416   1.667   7.756 -0.1997 -0.4097 -0.0945
   29CHL1  H22A 2129   1.436   1.564   7.721 -0.8304  0.0605 -1.9394
   29CHL1  H22B 2130   1.517   1.706   7.781 -0.3870  1.6886 -2.1594
   29CHL1   C23 2131   1.328   1.661   7.884  0.5128 -0.4676  0.2348
   29CHL1  H23A 2132   1.345   1.758   7.936  2.0085  0.2800 -1.5372
   29CHL1  H23B 2133   1.223   1.645   7.851 -0.9959  4.8819  1.5268
   29CHL1   C24 2134   1.378   1.557   7.987 -0.2987  0.7205  0.8068
   29CHL1  H24A 2135   1.377   1.460   7.932  0.9356  0.1634  1.7159
   29CHL1  H24B 2136   1.485   1.573   8.010 -0.3537  1.1876  0.7365
   29CHL1   C25 2137   1.299   1.537   8.114 -0.2535  0.3813  0.4146
   29CHL1   H25 2138   1.207   1.480   8.088  1.7858 -3.0126  0.1103
   29CHL1   C26 2139   1.368   1.440   8.213  0.0642 -0.0980 -0.7551
   29CHL1  H26A 2140   1.372   1.336   8.174 -0.3797 -0.5607  0.3827
   29CHL1  H26B 2141   1.471   1.475   8.239  0.2994 -0.4192 -1.2446
   29CHL1  H26C 2142   1.301   1.441   8.302  0.5933 -0.3539 -0.3481
   29CHL1   C27 2143   1.277   1.669   8.186  0.0716 -0.1394  0.3384
   29CHL1  H27A 2144   1.375   1.722   8.186 -0.0083  0.2347  3.5400
   29CHL1  H27B 2145   1.199   1.726   8.133 -0.7390 -1.3551  0.1753
   29CHL1  H27C 2146   1.251   1.649   8.292 -1.9912 -0.3848 -0.1856
   30CHL1    C3 2147   0.481   0.292   7.360 -0.2491  0.1518  0.7921
   30CHL1    H3 2148   0.386   0.340   7.393 -0.1345  2.2333 -1.5803
   30CHL1    O3 2149   0.487   0.277   7.218 -0.0567 -0.5154  0.3652
   30CHL1   H3' 2150   0.399   0.283   7.182  0.3478  0.2076 -0.5203
   30CHL1    C4 2151   0.596   0.367   7.421 -0.2153 -0.3696  0.5726
   30CHL1   H4A 2152   0.685   0.325   7.369 -1.0759 -3.2313  1.2573
   30CHL1   H4B 2153   0.582   0.475   7.396  1.3157 -0.1321  0.6200
   30CHL1    C5 2154   0.597   0.348   7.574  0.8053 -0.1672  0.4810
   30CHL1    C6 2155   0.596   0.455   7.658 -0.0034  0.4046  0.9492
   30CHL1    H6 2156   0.591   0.557   7.616 -0.0839  0.1199  0.2521
   30CHL1    C7 2157   0.605   0.441   7.812 -0.1917 -0.2733  0.7022
   30CHL1   H7A 2158   0.671   0.524   7.845 -0.2663  1.2538 -2.5235
   30CHL1   H7B 2159   0.502   0.456   7.852 -0.9810 -1.7954 -0.6173
   30CHL1    C8 2160   0.659   0.313   7.855  0.0303  0.1684  0.7330
   30CHL1    H8 2161   0.763   0.292   7.821 -1.6215 -1.7943 -3.9424
   30CHL1   C14 2162   0.637   0.297   8.002  0.0188  0.5299  0.0190
   30CHL1   H14 2163   0.527   0.303   8.022 -0.2855  0.0830 -1.3595
   30CHL1   C15 2164   0.707   0.406   8.081 -0.0742  0.3707 -0.0706
   30CHL1  H15A 2165   0.808   0.428   8.042 -0.2283  1.9062  0.3381
   30CHL1  H15B 2166   0.651   0.502   8.074  0.6584  0.7765 -0.5017
   30CHL1   C16 2167   0.699   0.351   8.226 -0.3656 -0.7632  0.3517
   30CHL1  H16A 2168   0.798   0.355   8.277 -0.1309 -4.0738  0.3716
   30CHL1  H16B 2169   0.620   0.405   8.283  0.4347 -0.3774  1.1279
   30CHL1   C17 2170   0.664   0.200   8.214 -0.3031  0.7331  0.3998
   30CHL1   H17 2171   0.557   0.199   8.243 -0.5032  1.0147 -0.3113
   30CHL1   C13 2172   0.686   0.165   8.065 -0.0920  0.1216 -0.0030
   30CHL1   C18 2173   0.836   0.149   8.048 -0.0419  0.1826 -0.4595
   30CHL1  H18A 2174   0.887   0.227   8.108 -1.3142  0.5879  0.1299
   30CHL1  H18B 2175   0.866   0.048   8.082 -1.0997 -0.1784 -0.5581
   30CHL1  H18C 2176   0.869   0.160   7.942  1.1368 -0.5615 -0.1818
   30CHL1   C12 2177   0.605   0.048   7.999 -0.2346  0.3520  0.4493
   30CHL1  H12A 2178   0.651  -0.046   8.038 -1.7054  0.9048  3.8570
   30CHL1  H12B 2179   0.499   0.062   8.029 -0.3364 -0.5582  0.5393
   30CHL1   C11 2180   0.619   0.057   7.847  0.1714 -0.5164  0.4619
   30CHL1  H11A 2181   0.726   0.040   7.823 -0.1290 -2.3757  0.3439
   30CHL1  H11B 2182   0.552  -0.012   7.791 -0.2272  1.1710 -1.2835
   30CHL1    C9 2183   0.584   0.197   7.783 -0.0309  0.0910 -0.4944
   30CHL1    H9 2184   0.479   0.226   7.805  0.4190  1.5725 -0.1800
   30CHL1   C10 2185   0.597   0.202   7.632 -0.6326 -0.5227  0.3382
   30CHL1   C19 2186   0.732   0.144   7.586  0.4247 -0.1479  0.4991
   30CHL1  H19A 2187   0.737   0.036   7.614 -1.9514 -0.1875  1.0007
   30CHL1  H19B 2188   0.733   0.147   7.475 -1.4634 -2.5173  0.3231
   30CHL1  H19C 2189   0.809   0.210   7.632 -1.8375  1.1628  2.6564
   30CHL1    C1 2190   0.477   0.131   7.562  0.1254  0.2207 -0.5066
   30CHL1   H1A 2191   0.484   0.020   7.573 -0.6285  0.1632 -0.5812
   30CHL1   H1B 2192   0.381   0.159   7.610  0.6391  0.4676  0.3911
   30CHL1    C2 2193   0.466   0.145   7.411 -0.3153 -0.6320  0.5995
   30CHL1   H2A 2194   0.368   0.106   7.376 -1.5349  2.1449  0.6029
   30CHL1   H2B 2195   0.548   0.080   7.375  0.8309  1.5683 -0.9803
   30CHL1   C20 2196   0.735   0.121   8.331  0.3260 -0.6629  0.3828
   30CHL1   H20 2197   0.844   0.114   8.310  0.3811  1.3982 -0.2591
   30CHL1   C21 2198   0.681  -0.020   8.335  0.3331  0.3697  0.2937
   30CHL1  H21A 2199   0.571  -0.011   8.347  0.3562 -1.6342  2.9808
   30CHL1  H21B 2200   0.708  -0.075   8.428  0.2812 -0.5688 -0.2331
   30CHL1  H21C 2201   0.717  -0.085   8.252 -1.2871 -0.0140 -0.1484
   30CHL1   C22 2202   0.723   0.193   8.470  0.2116 -0.0491 -0.2330
   30CHL1  H22A 2203   0.772   0.292   8.484  2.5225 -1.2667  0.7228
   30CHL1  H22B 2204   0.619   0.225   8.489  0.7612  2.9281 -1.5740
   30CHL1   C23 2205   0.785   0.106   8.587 -0.3390 -0.0607  0.7616
   30CHL1  H23A 2206   0.764  -0.003   8.593 -1.7705  0.2281  1.4340
   30CHL1  H23B 2207   0.896   0.103   8.582 -0.3139 -2.6052  1.1956
   30CHL1   C24 2208   0.738   0.166   8.722  0.1266 -0.3510 -0.2242
   30CHL1  H24A 2209   0.752   0.275   8.712  0.9815 -0.2274  1.8783
   30CHL1  H24B 2210   0.628   0.153   8.736 -0.0019  1.3452  0.5597
   30CHL1   C25 2211   0.805   0.129   8.857  0.5789 -0.5938  0.1225
   30CHL1   H25 2212   0.748   0.186   8.934 -1.4024 -1.5320 -0.5790
   30CHL1   C26 2213   0.776  -0.026   8.886  0.2598  0.9695  0.6401
   30CHL1  H26A 2214   0.679  -0.054   8.839  0.0285  1.8309  0.5839
   30CHL1  H26B 2215   0.855  -0.097   8.853 -0.3279  0.2679  0.7259
   30CHL1  H26C 2216   0.762  -0.037   8.995 -0.1924  1.9084  0.6930
   30CHL1   C27 2217   0.951   0.169   8.868 -0.1604 -0.6089 -0.1517
   30CHL1  H27A 2218   0.980   0.271   8.835 -1.0596 -0.2520  0.1264
   30CHL1  H27B 2219   0.969   0.171   8.978 -2.1410  2.8618  0.2756
   30CHL1  H27C 2220   1.014   0.095   8.815  0.2507 -1.9684  2.0738
   31CHL1    C3 2221   6.678   1.047   6.835 -0.2159 -0.5131 -0.1620
   31CHL1    H3 2222   6.657   0.938   6.831 -1.8460 -0.1900 -1.7710
   31CHL1    O3 2223   6.703   1.086   6.703  0.3230 -0.4097 -0.1178
   31CHL1   H3' 2224   6.616   1.119   6.680  0.0273 -0.4650  0.8690
   31CHL1    C4 2225   6.565   1.126   6.892  1.3453 -0.1124  0.0796
   31CHL1   H4A 2226   6.580   1.236   6.882 -0.0618  0.1455  0.5057
   31CHL1   H4B 2227   6.472   1.093   6.842 -0.9283  0.9024  3.2771
   31CHL1    C5 2228   6.546   1.121   7.042  0.5342 -0.5957 -0.0703
   31CHL1    C6 2229   6.430   1.076   7.087 -0.3732 -0.1115  0.2885
   31CHL1    H6 2230   6.357   1.046   7.011 -1.4686  2.5390  0.1926
   31CHL1    C7 2231   6.397   1.058   7.234  0.3737  0.5212  0.2447
   31CHL1   H7A 2232   6.307   1.119   7.255  0.9791  0.9013  1.9260
   31CHL1   H7B 2233   6.386   0.952   7.265  1.4983  0.7193  1.4008
   31CHL1    C8 2234   6.511   1.114   7.325  0.5566  0.5053 -0.7178
   31CHL1    H8 2235   6.497   1.224   7.330 -0.0828  0.3853  0.4013
   31CHL1   C14 2236   6.499   1.067   7.472  0.0793  0.3886 -0.2359
   31CHL1   H14 2237   6.517   0.957   7.475  1.6408  0.6306  0.7757
   31CHL1   C15 2238   6.372   1.097   7.545  0.3257  0.5866 -0.3011
   31CHL1  H15A 2239   6.349   1.205   7.540  0.3883  0.5446 -2.0154
   31CHL1  H15B 2240   6.288   1.044   7.495 -0.3805 -0.4340  1.8250
   31CHL1   C16 2241   6.399   1.064   7.689 -0.1611 -0.0885 -0.0983
   31CHL1  H16A 2242   6.364   1.150   7.750 -1.7776  0.7787 -2.1252
   31CHL1  H16B 2243   6.349   0.970   7.721  0.1818 -1.1924 -2.5871
   31CHL1   C17 2244   6.555   1.037   7.699 -0.3743  0.1242 -0.0528
   31CHL1   H17 2245   6.560   0.931   7.668 -0.0580  0.6058 -1.7480
   31CHL1   C13 2246   6.606   1.101   7.570 -0.1699 -0.4304  0.7907
   31CHL1   C18 2247   6.612   1.258   7.591  0.0515 -0.4457  0.2856
   31CHL1  H18A 2248   6.585   1.307   7.495  0.3655 -0.8788 -0.0252
   31CHL1  H18B 2249   6.535   1.293   7.663  0.6760 -1.2952  1.4061
   31CHL1  H18C 2250   6.708   1.291   7.635 -1.1997  1.3177  1.8463
   31CHL1   C12 2251   6.738   1.050   7.515 -0.2714 -0.2860  0.2066
   31CHL1  H12A 2252   6.829   1.059   7.578  1.1640 -1.5457 -1.5953
   31CHL1  H12B 2253   6.731   0.940   7.500  0.9607 -0.2400 -0.8545
   31CHL1   C11 2254   6.767   1.109   7.378 -0.3485  0.0998 -0.6925
   31CHL1  H11A 2255   6.785   1.218   7.385 -2.9962  0.4935  1.4266
   31CHL1  H11B 2256   6.856   1.061   7.331 -0.3309 -1.1981  0.6044
   31CHL1    C9 2257   6.649   1.084   7.276 -0.1725  0.0538  0.0715
   31CHL1    H9 2258   6.646   0.974   7.264  3.5242 -0.1480 -0.2749
   31CHL1   C10 2259   6.671   1.144   7.130 -0.6993  0.7968  0.1206
   31CHL1   C19 2260   6.708   1.290   7.139  0.8140 -0.7363  0.0274
   31CHL1  H19A 2261   6.800   1.300   7.202  2.1747 -0.6668 -1.8804
   31CHL1  H19B 2262   6.731   1.330   7.038  0.2761  0.3574  0.3159
   31CHL1  H19C 2263   6.625   1.352   7.178 -0.6954 -1.6321 -1.6581
   31CHL1    C1 2264   6.787   1.065   7.065  0.1548  0.3002  1.0130
   31CHL1   H1A 2265   6.886   1.081   7.111 -0.9719  1.3973  3.2275
   31CHL1   H1B 2266   6.772   0.955   7.074  0.7041  0.1443  0.1903
   31CHL1    C2 2267   6.805   1.085   6.910 -0.1218  1.1789  0.1785
   31CHL1   H2A 2268   6.889   1.026   6.869  0.0530 -0.3678  2.5817
   31CHL1   H2B 2269   6.829   1.193   6.901 -1.0131  1.3574 -0.1653
   31CHL1   C20 2270   6.628   1.059   7.838  0.4925  0.6047 -0.1591
   31CHL1   H20 2271   6.633   1.167   7.863 -1.3965  0.6477  0.1550
   31CHL1   C21 2272   6.767   1.003   7.839 -0.5773 -0.0990 -0.0315
   31CHL1  H21A 2273   6.813   0.999   7.941 -1.1752  2.4641  0.4071
   31CHL1  H21B 2274   6.842   1.056   7.777 -0.4672 -0.5465 -0.2867
   31CHL1  H21C 2275   6.752   0.902   7.797 -1.9733 -0.0789  0.3751
   31CHL1   C22 2276   6.544   0.996   7.958 -0.1676  0.3266 -0.2183
   31CHL1  H22A 2277   6.446   1.049   7.963 -0.6517 -0.6228  1.0081
   31CHL1  H22B 2278   6.524   0.887   7.952  0.2230  0.2441 -0.0382
   31CHL1   C23 2279   6.599   1.028   8.099 -0.3365 -0.6417  0.1212
   31CHL1  H23A 2280   6.692   0.969   8.113 -0.3293 -0.3245  1.6047
   31CHL1  H23B 2281   6.624   1.135   8.111 -0.5898 -0.7410  1.8719
   31CHL1   C24 2282   6.492   1.007   8.210 -0.3572  0.2411  0.3956
   31CHL1  H24A 2283   6.399   1.063   8.184 -0.1271 -0.1228 -1.3035
   31CHL1  H24B 2284   6.461   0.901   8.217 -2.8594  0.9320  1.0845
   31CHL1   C25 2285   6.539   1.050   8.353  0.4373 -0.1193 -0.4732
   31CHL1   H25 2286   6.561   1.159   8.343 -0.7196  0.3260  1.3274
   31CHL1   C26 2287   6.430   1.058   8.463  0.5137  0.5725  0.6713
   31CHL1  H26A 2288   6.348   1.110   8.409  1.7560  0.5842 -1.3303
   31CHL1  H26B 2289   6.391   0.954   8.472  2.4607 -0.3397 -0.7332
   31CHL1  H26C 2290   6.458   1.089   8.565  2.0100 -1.7504  1.0342
   31CHL1   C27 2291   6.659   0.959   8.392 -0.4581 -0.0005 -0.1327
   31CHL1  H27A 2292   6.744   0.991   8.328  0.5642 -4.3556 -1.2531
   31CHL1  H27B 2293   6.627   0.853   8.382  1.1351 -0.2715 -3.9949
   31CHL1  H27C 2294   6.698   0.967   8.496  0.3113 -0.1508 -0.4021
   32CHL1    C3 2295   1.491   0.068   7.022  0.8176  0.0626 -0.0429
   32CHL1    H3 2296   1.522  -0.037   7.033  2.2269  0.6031  1.4866
   32CHL1    O3 2297   1.475   0.092   6.881  0.3581 -0.3530  0.3453
   32CHL1   H3' 2298   1.446   0.181   6.861 -2.0014 -1.5554 -2.3344
   32CHL1    C4 2299   1.359   0.108   7.083  0.0353 -0.0368  0.0218
   32CHL1   H4A 2300   1.316   0.200   7.038 -1.3981 -0.4138  0.5669
   32CHL1   H4B 2301   1.286   0.033   7.047  1.0520 -1.2046  0.3128
   32CHL1    C5 2302   1.353   0.101   7.231 -0.3756  0.2189 -0.9704
   32CHL1    C6 2303   1.271   0.022   7.299  0.1439 -0.6668  0.2950
   32CHL1    H6 2304   1.201  -0.032   7.234  0.5022  0.5657 -1.1687
   32CHL1    C7 2305   1.261  -0.005   7.448 -0.5880  0.7711  0.2399
   32CHL1   H7A 2306   1.154  -0.013   7.477 -0.3251  1.2079  1.4107
   32CHL1   H7B 2307   1.312  -0.101   7.472 -1.0939 -0.4432 -3.0710
   32CHL1    C8 2308   1.348   0.098   7.522 -0.1520 -0.4360 -0.4811
   32CHL1    H8 2309   1.290   0.192   7.533  0.1072 -0.5029  1.7640
   32CHL1   C14 2310   1.383   0.056   7.660 -0.0472 -0.2539 -0.7309
   32CHL1   H14 2311   1.449  -0.031   7.641 -1.0081 -0.6444 -2.5606
   32CHL1   C15 2312   1.267   0.002   7.743  0.2732 -0.4194  0.0721
   32CHL1  H15A 2313   1.179   0.069   7.730  2.1453  1.8523 -1.7660
   32CHL1  H15B 2314   1.259  -0.107   7.723  3.8167 -1.0274  1.3132
   32CHL1   C16 2315   1.319   0.017   7.890  0.0132 -0.5124 -0.1293
   32CHL1  H16A 2316   1.240   0.078   7.939 -0.4469 -0.3765 -1.0284
   32CHL1  H16B 2317   1.318  -0.080   7.945 -4.2683  0.6807  2.4059
   32CHL1   C17 2318   1.456   0.090   7.884  0.2794  0.2897  0.0899
   32CHL1   H17 2319   1.532   0.009   7.881  0.7303  0.6162  1.7298
   32CHL1   C13 2320   1.463   0.153   7.746  0.3133 -0.6054  0.3520
   32CHL1   C18 2321   1.399   0.285   7.755  0.8900 -0.0960 -0.0069
   32CHL1  H18A 2322   1.304   0.287   7.814  0.4316  2.6141 -0.6866
   32CHL1  H18B 2323   1.463   0.357   7.812 -1.5892 -0.0105  2.9379
   32CHL1  H18C 2324   1.372   0.333   7.659  2.2307  2.7531  0.9252
   32CHL1   C12 2325   1.600   0.170   7.683  0.5363 -0.0161  0.1283
   32CHL1  H12A 2326   1.649   0.256   7.734 -1.2792  1.1598  0.0175
   32CHL1  H12B 2327   1.648   0.071   7.695 -1.6396 -1.1268  0.2289
   32CHL1   C11 2328   1.588   0.205   7.530 -0.3611 -0.1743 -0.1276
   32CHL1  H11A 2329   1.565   0.312   7.511  0.7235 -0.2343 -2.1106
   32CHL1  H11B 2330   1.689   0.181   7.490  0.5828  0.2650  1.8497
   32CHL1    C9 2331   1.482   0.126   7.453  0.6825  0.4737 -0.1479
   32CHL1    H9 2332   1.527   0.025   7.457  3.6718  1.7075  0.2174
   32CHL1   C10 2333   1.472   0.166   7.302 -0.3377 -1.2530  0.2239
   32CHL1   C19 2334   1.442   0.325   7.293  0.0977  0.3801  0.1007
   32CHL1  H19A 2335   1.357   0.354   7.359  0.1344  0.1412  0.2550
   32CHL1  H19B 2336   1.522   0.394   7.328  1.4410 -0.1786 -1.7500
   32CHL1  H19C 2337   1.410   0.348   7.189 -0.9049 -0.3492  0.2303
   32CHL1    C1 2338   1.608   0.136   7.228 -0.0832  0.2288 -0.4812
   32CHL1   H1A 2339   1.683   0.204   7.274  0.2089  0.6576 -1.5463
   32CHL1   H1B 2340   1.638   0.030   7.245 -0.8069  0.2563  1.0798
   32CHL1    C2 2341   1.604   0.154   7.083  0.2631 -0.4267  0.1133
   32CHL1   H2A 2342   1.702   0.136   7.034 -0.8433 -0.7251 -2.0992
   32CHL1   H2B 2343   1.575   0.258   7.057 -0.3282  0.1301  2.6758
   32CHL1   C20 2344   1.475   0.168   8.014  0.0679 -0.3310 -0.1870
   32CHL1   H20 2345   1.412   0.259   8.006  0.0370 -0.0520  2.3523
   32CHL1   C21 2346   1.632   0.215   8.028  1.0185 -0.0999 -0.0555
   32CHL1  H21A 2347   1.638   0.287   8.112 -0.8066  0.7510 -0.5994
   32CHL1  H21B 2348   1.658   0.270   7.936  1.1996 -0.4211 -0.1984
   32CHL1  H21C 2349   1.698   0.127   8.048  1.3350 -0.3403 -1.9985
   32CHL1   C22 2350   1.426   0.088   8.145 -0.5707  0.3613  0.8080
   32CHL1  H22A 2351   1.319   0.058   8.139 -0.2620 -0.5187 -1.0326
   32CHL1  H22B 2352   1.481  -0.007   8.159  0.5095  1.0642  1.4077
   32CHL1   C23 2353   1.439   0.171   8.271 -0.4671  0.0288  0.1718
   32CHL1  H23A 2354   1.543   0.203   8.296  0.3285 -1.1197 -1.5119
   32CHL1  H23B 2355   1.386   0.267   8.251  1.2558  1.2838  1.2502
   32CHL1   C24 2356   1.373   0.101   8.391  0.2488 -0.1747 -0.3410
   32CHL1  H24A 2357   1.263   0.091   8.378 -0.1771 -1.7444  3.2921
   32CHL1  H24B 2358   1.412  -0.002   8.385  0.1854 -0.1639 -1.0219
   32CHL1   C25 2359   1.389   0.174   8.526 -0.0462 -0.2477 -0.6904
   32CHL1   H25 2360   1.388   0.284   8.513  1.1143 -0.3366 -1.6714
   32CHL1   C26 2361   1.287   0.131   8.632  0.3016  0.2439  1.1081
   32CHL1  H26A 2362   1.314   0.026   8.654  0.5766 -0.5862 -2.5304
   32CHL1  H26B 2363   1.292   0.187   8.728  1.2412 -2.6296  2.8494
   32CHL1  H26C 2364   1.186   0.148   8.590  0.9821  0.3494 -0.5714
   32CHL1   C27 2365   1.533   0.154   8.599 -0.1800 -0.3405 -0.1405
   32CHL1  H27A 2366   1.613   0.210   8.546 -0.3883  2.6003  2.3554
   32CHL1  H27B 2367   1.528   0.190   8.704 -0.1889  1.4815 -0.7486
   32CHL1  H27C 2368   1.549   0.044   8.607 -0.1186 -0.4505 -1.5767
   33CHL1    C3 2369   1.573   5.801   7.011  0.2895 -0.3880  0.8390
   33CHL1    H3 2370   1.682   5.793   6.994  0.3897  1.4276  0.4246
   33CHL1    O3 2371   1.520   5.798   6.876  0.2086 -0.7959 -0.7725
   33CHL1   H3' 2372   1.596   5.782   6.819  0.1362  1.0451 -1.4370
   33CHL1    C4 2373   1.529   5.689   7.102 -0.4407  0.1842  0.2828
   33CHL1   H4A 2374   1.418   5.693   7.102 -0.4335  0.5074 -0.7163
   33CHL1   H4B 2375   1.555   5.603   7.037 -1.1133  2.1265 -2.7472
   33CHL1    C5 2376   1.570   5.700   7.250  0.4592 -0.4699  0.1997
   33CHL1    C6 2377   1.626   5.598   7.309  0.8143 -0.0793  0.0210
   33CHL1    H6 2378   1.645   5.514   7.240 -0.2384 -0.5472  0.2863
   33CHL1    C7 2379   1.687   5.599   7.446 -0.3134  0.0365  0.0415
   33CHL1   H7A 2380   1.671   5.507   7.508  1.4665  0.4131  1.1133
   33CHL1   H7B 2381   1.796   5.614   7.437 -0.5589  0.6089 -2.9200
   33CHL1    C8 2382   1.621   5.717   7.535 -0.0184  0.4337  0.1034
   33CHL1    H8 2383   1.516   5.690   7.556  0.1952  0.5091  1.3218
   33CHL1   C14 2384   1.689   5.725   7.671 -0.6027  0.0355 -0.6896
   33CHL1   H14 2385   1.795   5.748   7.647 -1.3153  3.2430 -1.2122
   33CHL1   C15 2386   1.673   5.606   7.768 -0.2587 -0.9776 -0.4391
   33CHL1  H15A 2387   1.566   5.577   7.775 -0.8223  1.1147  0.5088
   33CHL1  H15B 2388   1.724   5.513   7.735 -0.3942 -1.2683  0.1574
   33CHL1   C16 2389   1.728   5.659   7.898 -0.0888  0.7825  0.5470
   33CHL1  H16A 2390   1.663   5.617   7.978  1.8900  0.4164  2.0447
   33CHL1  H16B 2391   1.828   5.611   7.902 -1.6127 -2.6079  2.5579
   33CHL1   C17 2392   1.739   5.812   7.879 -0.5656 -0.3234  0.5280
   33CHL1   H17 2393   1.845   5.837   7.856  0.0065 -1.3278  1.9538
   33CHL1   C13 2394   1.647   5.843   7.756 -0.4259 -0.6229 -0.4284
   33CHL1   C18 2395   1.497   5.841   7.794 -0.4949 -0.2905  0.2887
   33CHL1  H18A 2396   1.470   5.935   7.847 -1.3939 -0.3090 -0.1243
   33CHL1  H18B 2397   1.432   5.827   7.705 -1.6657 -3.1145  1.4831
   33CHL1  H18C 2398   1.478   5.758   7.865 -2.0744 -0.3523 -0.1769
   33CHL1   C12 2399   1.678   5.971   7.679 -0.0381  0.0543  0.0997
   33CHL1  H12A 2400   1.637   6.053   7.742 -0.0730  0.3926 -0.3587
   33CHL1  H12B 2401   1.786   5.986   7.659 -0.4316  2.7945 -0.3910
   33CHL1   C11 2402   1.598   5.980   7.546 -0.4548 -0.3918 -0.6431
   33CHL1  H11A 2403   1.488   5.985   7.558 -0.4932 -2.0882  0.0126
   33CHL1  H11B 2404   1.619   6.075   7.492  1.6139  0.5660  1.6682
   33CHL1    C9 2405   1.628   5.854   7.451  0.0026  0.0745 -0.4586
   33CHL1    H9 2406   1.736   5.876   7.436  0.2306  2.0730  2.9899
   33CHL1   C10 2407   1.555   5.842   7.314 -0.4486 -0.5404 -0.9898
   33CHL1   C19 2408   1.402   5.869   7.334 -0.6150  0.5312  0.6046
   33CHL1  H19A 2409   1.344   5.838   7.245 -0.9450  1.0194  0.6456
   33CHL1  H19B 2410   1.363   5.817   7.424  0.3884 -1.4639 -0.0654
   33CHL1  H19C 2411   1.383   5.978   7.345  0.6523  0.7904  0.3806
   33CHL1    C1 2412   1.614   5.950   7.221  0.3871 -0.6212 -0.4531
   33CHL1   H1A 2413   1.599   6.053   7.261 -2.6175 -1.3775  0.6294
   33CHL1   H1B 2414   1.723   5.931   7.212  0.6133 -0.3263  1.3857
   33CHL1    C2 2415   1.557   5.940   7.076  0.1293 -0.3139 -0.8468
   33CHL1   H2A 2416   1.607   6.011   7.007 -2.3571 -0.2365 -2.7080
   33CHL1   H2B 2417   1.448   5.958   7.073 -0.0878 -1.2426  0.5643
   33CHL1   C20 2418   1.711   5.878   8.017 -0.0276  0.2929  0.1080
   33CHL1   H20 2419   1.603   5.864   8.041 -0.5810  2.3392 -0.8750
   33CHL1   C21 2420   1.722   6.034   8.001  0.2888  0.3527  0.0129
   33CHL1  H21A 2421   1.747   6.090   8.094  2.6161  0.3527 -0.5532
   33CHL1  H21B 2422   1.629   6.077   7.958 -0.0902 -0.7776 -0.3118
   33CHL1  H21C 2423   1.805   6.048   7.928 -0.5753 -0.1607 -1.0856
   33CHL1   C22 2424   1.810   5.827   8.133  0.1868  0.3368  0.8451
   33CHL1  H22A 2425   1.844   5.723   8.120  0.4270  0.5558 -0.4418
   33CHL1  H22B 2426   1.905   5.884   8.129  0.2347  0.2104 -0.0275
   33CHL1   C23 2427   1.735   5.829   8.265 -0.5488  0.1520  0.2094
   33CHL1  H23A 2428   1.667   5.917   8.263  1.2436  1.5800 -1.0511
   33CHL1  H23B 2429   1.673   5.737   8.272  1.6135 -1.7626 -3.0728
   33CHL1   C24 2430   1.829   5.843   8.387 -0.2781  0.1584 -0.2681
   33CHL1  H24A 2431   1.760   5.820   8.471 -1.2955 -1.8299 -1.5675
   33CHL1  H24B 2432   1.903   5.761   8.376  0.9558  1.1268  0.4643
   33CHL1   C25 2433   1.912   5.970   8.403 -0.3781 -0.0586  0.5453
   33CHL1   H25 2434   1.959   5.995   8.305 -0.6812  0.4284  0.5206
   33CHL1   C26 2435   1.830   6.100   8.433  0.0533 -0.2235 -0.0878
   33CHL1  H26A 2436   1.765   6.116   8.345  2.2832 -2.7303 -2.3681
   33CHL1  H26B 2437   1.783   6.093   8.533  0.2183 -0.3952 -0.0226
   33CHL1  H26C 2438   1.889   6.194   8.438 -1.0556  0.6167 -1.7882
   33CHL1   C27 2439   2.028   5.956   8.501  0.1907 -0.1469  0.3783
   33CHL1  H27A 2440   2.100   5.876   8.472 -1.4347 -1.4326 -0.2698
   33CHL1  H27B 2441   2.092   6.045   8.519  0.2236  0.1583 -1.1079
   33CHL1  H27C 2442   1.990   5.944   8.604  0.1353  0.4494  0.4284
   34CHL1    C3 2443   2.230   4.206   7.222 -0.2111 -0.1766  0.3745
   34CHL1    H3 2444   2.122   4.218   7.243  0.2943  2.3357  1.9226
   34CHL1    O3 2445   2.249   4.160   7.091 -0.2515 -0.3025  0.3650
   34CHL1   H3' 2446   2.268   4.241   7.043  0.3286 -0.3538  0.5002
   34CHL1    C4 2447   2.288   4.347   7.241  0.1217  0.7915  0.1567
   34CHL1   H4A 2448   2.391   4.364   7.205  0.5351  1.2329  1.4889
   34CHL1   H4B 2449   2.234   4.419   7.175  1.0272  1.2036 -0.1520
   34CHL1    C5 2450   2.282   4.394   7.394 -0.0361 -0.1523 -0.2754
   34CHL1    C6 2451   2.221   4.505   7.420 -0.0768 -0.0845 -0.2690
   34CHL1    H6 2452   2.170   4.566   7.344 -0.8229 -0.6826 -0.2579
   34CHL1    C7 2453   2.209   4.558   7.563 -0.4669 -0.3535 -0.0675
   34CHL1   H7A 2454   2.239   4.665   7.573 -0.1361 -0.4069 -0.4909
   34CHL1   H7B 2455   2.102   4.555   7.596 -0.2916  1.5830  0.8463
   34CHL1    C8 2456   2.302   4.491   7.665  0.0347 -1.0822  0.1215
   34CHL1    H8 2457   2.404   4.533   7.656 -0.3091 -0.6220 -3.3173
   34CHL1   C14 2458   2.245   4.512   7.808 -0.5062  0.0589 -0.6521
   34CHL1   H14 2459   2.150   4.456   7.816 -0.0658 -0.5966  0.2128
   34CHL1   C15 2460   2.213   4.657   7.840 -0.0444 -0.3722 -0.8166
   34CHL1  H15A 2461   2.303   4.721   7.826  1.5243 -1.9388  1.3944
   34CHL1  H15B 2462   2.123   4.699   7.790  0.2315 -0.0945 -1.0816
   34CHL1   C16 2463   2.175   4.637   7.991  0.1790 -0.0035 -0.6017
   34CHL1  H16A 2464   2.221   4.720   8.050 -1.2865  1.5936 -1.6083
   34CHL1  H16B 2465   2.067   4.638   8.013  0.5419 -0.1367  1.3714
   34CHL1   C17 2466   2.232   4.497   8.036  0.4101  0.2876  0.5610
   34CHL1   H17 2467   2.143   4.432   8.047 -0.5781  1.3225 -0.9293
   34CHL1   C13 2468   2.322   4.445   7.923  0.1294 -0.1319  0.3583
   34CHL1   C18 2469   2.462   4.515   7.931 -0.4380 -0.1731  0.0081
   34CHL1  H18A 2470   2.510   4.472   8.022  0.2413  0.4905 -0.0218
   34CHL1  H18B 2471   2.523   4.498   7.840 -0.7936  0.5950 -0.3803
   34CHL1  H18C 2472   2.456   4.625   7.951 -1.7570 -0.2578  0.1090
   34CHL1   C12 2473   2.331   4.296   7.890  0.2064  0.4771 -1.0176
   34CHL1  H12A 2474   2.393   4.259   7.974  0.8978  2.1658 -0.7423
   34CHL1  H12B 2475   2.229   4.249   7.891  0.6773 -0.5965  0.7082
   34CHL1   C11 2476   2.398   4.267   7.751  0.5134 -0.0052  0.1016
   34CHL1  H11A 2477   2.502   4.306   7.751 -1.0045  4.5342  0.9216
   34CHL1  H11B 2478   2.389   4.156   7.742  0.6159 -0.1249  1.2858
   34CHL1    C9 2479   2.310   4.338   7.637 -0.4717  0.3922 -0.8850
   34CHL1    H9 2480   2.209   4.292   7.647 -0.4194  0.3325 -0.6431
   34CHL1   C10 2481   2.342   4.295   7.492  0.2999 -0.4086  0.4024
   34CHL1   C19 2482   2.503   4.302   7.472 -0.0800 -0.1018 -0.2054
   34CHL1  H19A 2483   2.541   4.405   7.489  1.2135 -0.3447 -1.4323
   34CHL1  H19B 2484   2.562   4.246   7.547  0.8945  1.2616  0.1061
   34CHL1  H19C 2485   2.531   4.280   7.366 -1.1175  3.9572 -1.5153
   34CHL1    C1 2486   2.289   4.156   7.460  0.1533 -0.0322 -0.1026
   34CHL1   H1A 2487   2.363   4.088   7.508  3.3642  0.4449 -3.8674
   34CHL1   H1B 2488   2.189   4.151   7.509  0.2400  0.7861  0.1743
   34CHL1    C2 2489   2.302   4.108   7.316 -0.0661 -0.3917  0.7752
   34CHL1   H2A 2490   2.267   4.003   7.307 -0.4396 -0.3139  1.2280
   34CHL1   H2B 2491   2.407   4.119   7.283 -0.8698 -1.1894 -2.4117
   34CHL1   C20 2492   2.291   4.491   8.179 -0.0117  0.4031  0.0094
   34CHL1   H20 2493   2.376   4.562   8.175  0.1337  0.1992 -0.6542
   34CHL1   C21 2494   2.341   4.340   8.213 -0.6110 -0.3717 -0.2150
   34CHL1  H21A 2495   2.355   4.317   8.321 -1.4488  0.4874  0.0904
   34CHL1  H21B 2496   2.436   4.328   8.157  0.0340  0.5358  0.6492
   34CHL1  H21C 2497   2.265   4.271   8.170 -2.1348  1.2329 -0.2221
   34CHL1   C22 2498   2.197   4.530   8.296 -0.0785 -0.3796 -0.4558
   34CHL1  H22A 2499   2.132   4.615   8.269  1.6211  0.8947 -0.6718
   34CHL1  H22B 2500   2.137   4.438   8.315  0.2432 -0.3400  0.8707
   34CHL1   C23 2501   2.273   4.552   8.433  0.3189  0.6802  1.1461
   34CHL1  H23A 2502   2.186   4.544   8.501 -0.6528 -0.6087 -0.1645
   34CHL1  H23B 2503   2.338   4.464   8.456 -1.3795 -1.1787 -0.6888
   34CHL1   C24 2504   2.335   4.691   8.441  0.0383  0.3873  0.1527
   34CHL1  H24A 2505   2.402   4.703   8.353  1.4881  1.7826  1.3780
   34CHL1  H24B 2506   2.254   4.766   8.438 -0.1981  0.1647  0.8381
   34CHL1   C25 2507   2.421   4.714   8.567 -0.2351 -0.0769  0.3422
   34CHL1   H25 2508   2.453   4.820   8.571  3.7753 -1.1225  3.6509
   34CHL1   C26 2509   2.329   4.684   8.684 -0.0117 -0.3415 -0.4862
   34CHL1  H26A 2510   2.305   4.577   8.701  0.6849 -0.1664  1.9503
   34CHL1  H26B 2511   2.383   4.711   8.777 -0.9830 -1.1498  0.3478
   34CHL1  H26C 2512   2.238   4.748   8.676 -0.0244 -0.3663 -0.5377
   34CHL1   C27 2513   2.553   4.635   8.582 -0.4971 -0.0710 -0.6318
   34CHL1  H27A 2514   2.529   4.528   8.597 -0.3467 -0.0173  0.0203
   34CHL1  H27B 2515   2.621   4.650   8.496  0.5037  1.2545  0.3312
   34CHL1  H27C 2516   2.605   4.664   8.676 -1.7801  1.8125 -0.4463
   35CHL1    C3 2517   5.053   5.065   7.236 -0.4740  0.4003  0.1984
   35CHL1    H3 2518   5.113   4.989   7.290  2.7763  2.0770 -0.7765
   35CHL1    O3 2519   5.122   5.083   7.111  0.0729 -0.4844  0.0963
   35CHL1   H3' 2520   5.146   5.176   7.108  0.9154 -0.7163 -0.6302
   35CHL1    C4 2521   4.906   5.027   7.219  0.0030 -0.1632 -0.5651
   35CHL1   H4A 2522   4.865   5.121   7.176  1.6007  2.2664  2.7736
   35CHL1   H4B 2523   4.894   4.947   7.144  2.8985 -1.3920  0.1450
   35CHL1    C5 2524   4.837   5.000   7.349  0.3311  0.1476  0.5422
   35CHL1    C6 2525   4.770   4.880   7.361 -1.0417 -0.0476 -0.1483
   35CHL1    H6 2526   4.776   4.811   7.276  0.7439  2.0872 -1.8480
   35CHL1    C7 2527   4.699   4.843   7.485 -0.6052 -0.0451  0.0329
   35CHL1   H7A 2528   4.597   4.814   7.453 -1.0435  2.5822 -1.1941
   35CHL1   H7B 2529   4.748   4.756   7.534  0.6052  0.6760  0.1389
   35CHL1    C8 2530   4.697   4.957   7.594 -0.8760 -0.8252 -0.0133
   35CHL1    H8 2531   4.615   5.031   7.584 -0.5339 -0.3139  0.8616
   35CHL1   C14 2532   4.675   4.895   7.736 -0.1633  0.6185  0.4079
   35CHL1   H14 2533   4.761   4.828   7.754 -0.3964  0.7439  2.1682
   35CHL1   C15 2534   4.547   4.813   7.761 -0.4100  0.3730  0.1140
   35CHL1  H15A 2535   4.462   4.868   7.714 -0.7474 -0.7390 -0.6255
   35CHL1  H15B 2536   4.567   4.716   7.711 -1.1833  0.3878 -0.2307
   35CHL1   C16 2537   4.530   4.821   7.917  0.7098  0.6517  0.7365
   35CHL1  H16A 2538   4.432   4.863   7.952 -0.5035 -0.9460 -0.6222
   35CHL1  H16B 2539   4.546   4.724   7.968  0.4844 -0.8969 -1.9923
   35CHL1   C17 2540   4.639   4.912   7.977  0.2056 -0.0184  0.2313
   35CHL1   H17 2541   4.733   4.853   7.988 -0.0999 -0.9302 -1.6111
   35CHL1   C13 2542   4.673   4.997   7.857 -0.4008 -0.1249  0.6882
   35CHL1   C18 2543   4.568   5.100   7.832  0.4690  0.8190  0.0085
   35CHL1  H18A 2544   4.601   5.170   7.752  1.7986  0.3736  0.1464
   35CHL1  H18B 2545   4.473   5.048   7.810  0.7426  1.5875 -3.5416
   35CHL1  H18C 2546   4.539   5.156   7.924 -0.1122  0.4262  0.0677
   35CHL1   C12 2547   4.816   5.064   7.850  0.8077  0.0605  0.4674
   35CHL1  H12A 2548   4.841   5.142   7.925 -0.8105  0.2625  0.8550
   35CHL1  H12B 2549   4.886   4.983   7.879  0.4103 -0.5806 -0.3316
   35CHL1   C11 2550   4.852   5.126   7.717  0.1363  0.6151  0.2358
   35CHL1  H11A 2551   4.811   5.227   7.697 -2.3590  0.3150  3.0216
   35CHL1  H11B 2552   4.959   5.153   7.722  0.6281 -0.7790 -1.6240
   35CHL1    C9 2553   4.831   5.031   7.593  0.1420 -0.3225  0.2280
   35CHL1    H9 2554   4.908   4.952   7.607  0.6793  0.0223 -0.7031
   35CHL1   C10 2555   4.858   5.105   7.457 -0.0907 -0.4773 -0.3568
   35CHL1   C19 2556   4.755   5.218   7.435 -0.5385  0.2345 -0.4008
   35CHL1  H19A 2557   4.704   5.259   7.525  0.8500 -0.1057  0.5584
   35CHL1  H19B 2558   4.803   5.299   7.376 -0.5708 -1.1294 -2.4250
   35CHL1  H19C 2559   4.664   5.187   7.379 -1.4120  0.7485  0.6961
   35CHL1    C1 2560   5.006   5.159   7.458 -0.8983  0.0831 -0.3433
   35CHL1   H1A 2561   5.020   5.250   7.521  1.9141 -0.7407  0.3698
   35CHL1   H1B 2562   5.074   5.082   7.499 -1.2045  0.3157  0.6362
   35CHL1    C2 2563   5.062   5.192   7.320 -0.0387 -0.1389 -0.3883
   35CHL1   H2A 2564   5.164   5.236   7.328 -0.6809  1.3546 -0.0716
   35CHL1   H2B 2565   5.007   5.279   7.277 -2.3545 -1.5297 -0.4401
   35CHL1   C20 2566   4.589   4.975   8.107  0.7213 -0.0144  0.5411
   35CHL1   H20 2567   4.498   5.036   8.093  1.9936  1.9437  0.3309
   35CHL1   C21 2568   4.700   5.067   8.166  1.0102 -0.0014 -0.0237
   35CHL1  H21A 2569   4.725   5.149   8.095 -1.2545 -1.5986 -2.9125
   35CHL1  H21B 2570   4.798   5.016   8.167  0.2945 -1.4229  0.4295
   35CHL1  H21C 2571   4.670   5.098   8.268  0.3716 -1.3656  0.2250
   35CHL1   C22 2572   4.550   4.872   8.209  0.3405 -0.0430  0.2009
   35CHL1  H22A 2573   4.461   4.818   8.168 -0.8959  1.3966  0.8868
   35CHL1  H22B 2574   4.630   4.795   8.206  0.0236 -0.3522 -0.7124
   35CHL1   C23 2575   4.507   4.913   8.352 -0.7299 -0.3343  0.0367
   35CHL1  H23A 2576   4.595   4.963   8.398 -0.7314 -1.8944  1.8373
   35CHL1  H23B 2577   4.422   4.982   8.337  1.1541  1.8773 -1.2988
   35CHL1   C24 2578   4.470   4.796   8.442  0.5449 -0.0467  0.1258
   35CHL1  H24A 2579   4.388   4.743   8.389  1.2823  0.5861 -1.7647
   35CHL1  H24B 2580   4.552   4.723   8.462  0.7173  0.7809  2.6876
   35CHL1   C25 2581   4.417   4.836   8.581  0.1695  0.7074 -0.3237
   35CHL1   H25 2582   4.330   4.902   8.557  0.7838  1.0050 -1.8591
   35CHL1   C26 2583   4.374   4.717   8.661 -0.5554 -0.1940 -0.1659
   35CHL1  H26A 2584   4.321   4.652   8.588  1.5954 -0.9931 -1.1193
   35CHL1  H26B 2585   4.470   4.669   8.691 -0.9035 -1.0387 -0.3730
   35CHL1  H26C 2586   4.304   4.743   8.743  2.0215 -1.6634  2.7020
   35CHL1   C27 2587   4.512   4.937   8.659  0.0047  0.5521 -0.2176
   35CHL1  H27A 2588   4.563   5.021   8.607  1.5208 -1.4769 -2.1674
   35CHL1  H27B 2589   4.594   4.877   8.703 -0.1726 -3.0486 -4.1499
   35CHL1  H27C 2590   4.460   4.982   8.746  0.9467 -1.5096  1.4913
   36CHL1    C3 2591   5.546   5.179   7.112  0.1802  0.4249 -0.1403
   36CHL1    H3 2592   5.441   5.193   7.078 -0.1299 -2.8126 -0.8744
   36CHL1    O3 2593   5.630   5.199   7.002 -0.1300 -0.3267  0.4911
   36CHL1   H3' 2594   5.674   5.282   7.022  1.2275 -0.7810 -0.4816
   36CHL1    C4 2595   5.587   5.259   7.237  0.0151  0.6675  0.0745
   36CHL1   H4A 2596   5.694   5.244   7.262 -0.3214 -1.8296  0.2232
   36CHL1   H4B 2597   5.582   5.364   7.200  1.7545 -0.0560 -2.5035
   36CHL1    C5 2598   5.504   5.225   7.354 -1.0846 -0.2215 -0.6359
   36CHL1    C6 2599   5.448   5.321   7.431 -0.0291  0.4101  0.7459
   36CHL1    H6 2600   5.453   5.423   7.390 -2.4944  0.8460  1.3660
   36CHL1    C7 2601   5.375   5.296   7.558  0.0198 -0.1074 -0.2459
   36CHL1   H7A 2602   5.394   5.375   7.635  3.3165 -2.3358  1.4926
   36CHL1   H7B 2603   5.266   5.306   7.540 -0.6744 -1.0502  2.8281
   36CHL1    C8 2604   5.410   5.157   7.622 -0.0871 -0.2493  0.5145
   36CHL1    H8 2605   5.513   5.166   7.663  1.1167 -2.1581 -1.8488
   36CHL1   C14 2606   5.314   5.119   7.730 -1.0845  0.7535 -0.2941
   36CHL1   H14 2607   5.212   5.109   7.688 -2.2775  0.7292  2.4228
   36CHL1   C15 2608   5.278   5.213   7.839  0.1637 -0.2222  0.5816
   36CHL1  H15A 2609   5.371   5.252   7.886 -0.8892  1.9841  0.9705
   36CHL1  H15B 2610   5.215   5.299   7.807  0.8649  0.1462  0.1693
   36CHL1   C16 2611   5.205   5.133   7.946  0.3839 -0.7375  0.0859
   36CHL1  H16A 2612   5.254   5.153   8.043 -2.3098  0.0213  1.3784
   36CHL1  H16B 2613   5.094   5.141   7.943  0.4278 -0.2140 -2.0304
   36CHL1   C17 2614   5.224   4.986   7.898 -0.1852 -0.5059 -0.3726
   36CHL1   H17 2615   5.137   4.947   7.840 -0.8400 -0.3226  0.4664
   36CHL1   C13 2616   5.344   4.987   7.792  0.7582 -0.0026  0.3723
   36CHL1   C18 2617   5.481   4.983   7.862 -0.2007 -0.0143 -0.1150
   36CHL1  H18A 2618   5.475   4.891   7.925 -1.3225 -0.6382 -1.0986
   36CHL1  H18B 2619   5.564   4.980   7.788  0.7814 -2.0380  0.9636
   36CHL1  H18C 2620   5.492   5.071   7.930  0.0796  1.3255 -1.8386
   36CHL1   C12 2621   5.334   4.878   7.680  0.0992  0.1834 -0.4244
   36CHL1  H12A 2622   5.364   4.785   7.733 -0.2708 -0.0900 -0.6872
   36CHL1  H12B 2623   5.234   4.854   7.639 -0.5999 -0.2982  1.4667
   36CHL1   C11 2624   5.430   4.903   7.564  0.1642 -0.1920 -0.9345
   36CHL1  H11A 2625   5.532   4.882   7.602 -0.8080 -0.8295  1.4888
   36CHL1  H11B 2626   5.397   4.829   7.487 -0.5972  2.7730 -3.6800
   36CHL1    C9 2627   5.408   5.044   7.512 -0.8322  0.0852  0.0821
   36CHL1    H9 2628   5.307   5.052   7.467 -0.8475 -0.7768 -0.0355
   36CHL1   C10 2629   5.509   5.072   7.387  0.6121 -0.1074  0.0165
   36CHL1   C19 2630   5.651   5.034   7.438  0.0045 -1.3579 -0.1022
   36CHL1  H19A 2631   5.718   5.062   7.355 -1.0027  1.6790 -0.0304
   36CHL1  H19B 2632   5.680   5.093   7.528  1.8972  0.0168 -1.5438
   36CHL1  H19C 2633   5.661   4.925   7.458 -0.6025 -1.4336 -0.1697
   36CHL1    C1 2634   5.473   4.982   7.269 -0.2270 -0.0575 -0.2988
   36CHL1   H1A 2635   5.486   4.877   7.303  1.5015 -0.7696 -2.9053
   36CHL1   H1B 2636   5.365   5.005   7.255 -0.1561 -0.1097 -0.9748
   36CHL1    C2 2637   5.546   5.027   7.143  0.2798  0.5147 -0.0273
   36CHL1   H2A 2638   5.507   4.983   7.049  0.5185  0.2857 -0.0170
   36CHL1   H2B 2639   5.652   4.997   7.150  0.1935  0.3451  0.5645
   36CHL1   C20 2640   5.238   4.891   8.017 -0.4318  0.1171 -0.6508
   36CHL1   H20 2641   5.330   4.918   8.073 -0.1043  1.7753 -1.9084
   36CHL1   C21 2642   5.249   4.742   7.980 -1.0036 -0.3827 -0.2976
   36CHL1  H21A 2643   5.262   4.682   8.072  1.8175 -0.7726 -0.8554
   36CHL1  H21B 2644   5.342   4.729   7.921 -1.5335  1.5675 -1.6589
   36CHL1  H21C 2645   5.168   4.715   7.908  0.3263  0.1088 -2.0663
   36CHL1   C22 2646   5.114   4.905   8.115 -1.2046  0.3060 -0.1454
   36CHL1  H22A 2647   5.077   5.007   8.140  1.8365  0.9763  2.2759
   36CHL1  H22B 2648   5.032   4.850   8.064  0.3626 -1.1389 -1.1980
   36CHL1   C23 2649   5.124   4.833   8.251 -1.1877 -0.7827 -0.0844
   36CHL1  H23A 2650   5.118   4.722   8.247 -1.3107 -0.8163  0.9549
   36CHL1  H23B 2651   5.223   4.861   8.292 -2.1320  1.6330  0.6989
   36CHL1   C24 2652   5.011   4.876   8.354  0.7883 -1.0957  0.9249
   36CHL1  H24A 2653   4.983   4.980   8.330 -1.0326 -1.7156  0.1872
   36CHL1  H24B 2654   4.920   4.821   8.321  0.5175 -0.4342  0.5651
   36CHL1   C25 2655   5.033   4.854   8.506  0.3180 -0.1066  0.5135
   36CHL1   H25 2656   5.133   4.899   8.525 -0.0605  0.0935  2.1633
   36CHL1   C26 2657   4.931   4.922   8.594 -0.3919 -0.2171  0.0429
   36CHL1  H26A 2658   4.842   4.857   8.599 -1.5099  1.1733 -0.9633
   36CHL1  H26B 2659   4.961   4.955   8.695 -0.8899  0.1112  0.0877
   36CHL1  H26C 2660   4.889   5.011   8.542 -0.6710  1.2921  2.6658
   36CHL1   C27 2661   5.052   4.712   8.538  0.5261  1.1515 -0.6115
   36CHL1  H27A 2662   5.135   4.657   8.490 -1.2223 -1.7831 -0.4709
   36CHL1  H27B 2663   5.071   4.690   8.645 -2.6984  0.0674 -0.1483
   36CHL1  H27C 2664   4.960   4.655   8.516  1.5999 -0.5493 -0.8313
   37CHL1    C3 2665   2.757   0.975   6.969 -0.1416 -0.0984 -0.0623
   37CHL1    H3 2666   2.861   0.948   6.996  0.7424  0.6084 -2.4518
   37CHL1    O3 2667   2.747   0.975   6.829  0.4557 -0.3501  0.5770
   37CHL1   H3' 2668   2.692   1.051   6.807 -2.9073 -2.8924 -0.6431
   37CHL1    C4 2669   2.654   0.885   7.046  0.0491 -0.0751  0.0103
   37CHL1   H4A 2670   2.565   0.933   6.999 -0.2633 -0.0934  0.5795
   37CHL1   H4B 2671   2.654   0.779   7.014 -3.4949  0.2752 -1.5984
   37CHL1    C5 2672   2.655   0.896   7.197  0.1778 -0.0769 -0.3973
   37CHL1    C6 2673   2.679   0.793   7.278 -0.0587  0.2039  0.4133
   37CHL1    H6 2674   2.683   0.694   7.231 -4.2841  0.3989 -0.7085
   37CHL1    C7 2675   2.693   0.800   7.431 -0.5791  0.1232 -0.6784
   37CHL1   H7A 2676   2.647   0.709   7.476 -0.2112  0.2164 -0.1106
   37CHL1   H7B 2677   2.798   0.817   7.463 -1.0376  1.6591  0.1133
   37CHL1    C8 2678   2.624   0.932   7.492 -0.4274  0.9774  1.1957
   37CHL1    H8 2679   2.513   0.927   7.485 -0.4397  1.8963  0.6105
   37CHL1   C14 2680   2.667   0.938   7.641  0.0029  0.0225 -0.5774
   37CHL1   H14 2681   2.777   0.941   7.630 -0.1342  0.0472 -2.0742
   37CHL1   C15 2682   2.649   0.815   7.730  1.4584 -0.2930  0.2268
   37CHL1  H15A 2683   2.540   0.793   7.731  1.8760 -2.6694  1.3945
   37CHL1  H15B 2684   2.715   0.731   7.699  0.2774 -0.7350 -1.2426
   37CHL1   C16 2685   2.680   0.868   7.868  0.7305 -0.0375  0.1655
   37CHL1  H16A 2686   2.594   0.853   7.936 -0.7314 -1.1767 -1.8350
   37CHL1  H16B 2687   2.771   0.835   7.923  0.5502 -3.3161 -1.2908
   37CHL1   C17 2688   2.683   1.028   7.854 -0.0730 -0.5855  0.2824
   37CHL1   H17 2689   2.792   1.048   7.844  0.0490 -1.9457 -1.7989
   37CHL1   C13 2690   2.620   1.065   7.714  0.4165  0.1314  0.8373
   37CHL1   C18 2691   2.458   1.063   7.720  0.5842 -0.4863  0.1346
   37CHL1  H18A 2692   2.424   1.157   7.769  1.1085 -0.7451  1.0205
   37CHL1  H18B 2693   2.411   1.055   7.620 -0.4190 -0.4843  0.6019
   37CHL1  H18C 2694   2.429   0.973   7.777  1.9670 -0.1254  1.5005
   37CHL1   C12 2695   2.677   1.183   7.632  0.2749  0.2690 -0.5048
   37CHL1  H12A 2696   2.615   1.273   7.653 -1.6953 -0.2676 -3.4638
   37CHL1  H12B 2697   2.780   1.197   7.671 -0.5029 -0.3773  2.0096
   37CHL1   C11 2698   2.645   1.181   7.475 -0.4513  0.1206 -0.7450
   37CHL1  H11A 2699   2.535   1.199   7.466 -0.9549 -0.3201  3.0967
   37CHL1  H11B 2700   2.708   1.261   7.431  1.6158 -1.5369 -0.9361
   37CHL1    C9 2701   2.677   1.050   7.410 -0.0913 -0.1111  0.3771
   37CHL1    H9 2702   2.788   1.048   7.419  0.0266  0.8141 -0.6845
   37CHL1   C10 2703   2.641   1.040   7.253 -0.6202 -1.0251  0.3399
   37CHL1   C19 2704   2.494   1.090   7.237 -0.5009  0.3357  0.4489
   37CHL1  H19A 2705   2.473   1.192   7.275  2.1054  0.6541  1.2426
   37CHL1  H19B 2706   2.452   1.086   7.134 -1.0826  0.8620  0.6539
   37CHL1  H19C 2707   2.439   1.017   7.300  0.4711 -0.3782  0.4830
   37CHL1    C1 2708   2.739   1.134   7.169  0.2848 -0.2278  0.2121
   37CHL1   H1A 2709   2.707   1.237   7.194 -1.0194 -0.3160 -0.9818
   37CHL1   H1B 2710   2.843   1.110   7.202  0.7230  1.1757 -0.0825
   37CHL1    C2 2711   2.736   1.118   7.019 -0.3802 -0.6279 -0.4993
   37CHL1   H2A 2712   2.809   1.194   6.984 -1.8405  1.8630  1.5314
   37CHL1   H2B 2713   2.637   1.154   6.985 -0.6610 -2.0350 -1.2619
   37CHL1   C20 2714   2.635   1.100   7.979  0.2994  0.2331  0.1774
   37CHL1   H20 2715   2.524   1.092   7.987 -0.0522 -0.8118 -3.6033
   37CHL1   C21 2716   2.675   1.244   7.966 -0.3389  0.2127 -0.0131
   37CHL1  H21A 2717   2.641   1.306   8.052  1.7660  2.5693 -0.7583
   37CHL1  H21B 2718   2.629   1.291   7.877  0.0174  2.2070  0.8144
   37CHL1  H21C 2719   2.785   1.248   7.951 -0.1336 -0.1748  1.2225
   37CHL1   C22 2720   2.693   1.048   8.117 -0.6757 -0.0100 -0.1320
   37CHL1  H22A 2721   2.678   0.938   8.124 -1.1568  0.0238 -0.5964
   37CHL1  H22B 2722   2.802   1.066   8.112 -0.6552 -0.3570 -1.3015
   37CHL1   C23 2723   2.622   1.107   8.236  0.8074 -0.3296 -0.7219
   37CHL1  H23A 2724   2.664   1.210   8.246  0.7943 -0.3734 -0.2271
   37CHL1  H23B 2725   2.513   1.097   8.219  0.3166 -0.7310  2.2502
   37CHL1   C24 2726   2.642   1.042   8.372 -0.0124  0.8980 -0.1661
   37CHL1  H24A 2727   2.591   0.944   8.362  2.9636 -0.7311 -0.6183
   37CHL1  H24B 2728   2.749   1.014   8.389 -0.5944 -1.7571 -0.4363
   37CHL1   C25 2729   2.606   1.124   8.496 -0.0173 -0.7210  0.0322
   37CHL1   H25 2730   2.665   1.218   8.483 -0.7204 -0.1507  0.8624
   37CHL1   C26 2731   2.460   1.151   8.515 -0.1118 -0.2500  0.3266
   37CHL1  H26A 2732   2.430   1.201   8.421  1.2254 -1.2868 -0.7018
   37CHL1  H26B 2733   2.410   1.052   8.525 -0.2689 -0.3530 -1.2753
   37CHL1  H26C 2734   2.445   1.212   8.607 -0.0715  2.8248 -1.5753
   37CHL1   C27 2735   2.663   1.057   8.623 -0.0960  0.2741 -0.5949
   37CHL1  H27A 2736   2.772   1.033   8.617 -0.4343 -1.4764 -0.3231
   37CHL1  H27B 2737   2.653   1.123   8.712  0.8848 -0.3304 -0.0111
   37CHL1  H27C 2738   2.600   0.969   8.648 -1.4753  1.6457  0.9685
   38CHL1    C3 2739   0.037   1.931   6.987  0.5374 -0.1205 -0.0967
   38CHL1    H3 2740   0.035   2.034   7.027 -1.1090 -0.2161  0.1333
   38CHL1    O3 2741   0.039   1.942   6.852 -0.5618 -0.5223 -0.2175
   38CHL1   H3' 2742   0.009   1.854   6.829  2.6925 -1.8193 -0.0587
   38CHL1    C4 2743   0.148   1.848   7.040 -0.3687  0.2937  0.3477
   38CHL1   H4A 2744   0.134   1.746   7.000  0.1647  0.6139 -0.6818
   38CHL1   H4B 2745   0.248   1.876   7.002 -1.2276  0.0857 -2.2873
   38CHL1    C5 2746   0.144   1.838   7.195 -0.8611  0.1986 -0.1216
   38CHL1    C6 2747   0.253   1.883   7.262 -0.3030 -0.1014 -0.0967
   38CHL1    H6 2748   0.333   1.931   7.204  1.2133 -1.2312  1.0065
   38CHL1    C7 2749   0.265   1.873   7.411 -0.1820 -0.1625 -1.0731
   38CHL1   H7A 2750   0.365   1.832   7.437 -0.4338  0.9812  2.2505
   38CHL1   H7B 2751   0.257   1.970   7.465  0.4044 -0.1899 -0.9256
   38CHL1    C8 2752   0.154   1.779   7.482  0.7553  0.1037  0.3471
   38CHL1    H8 2753   0.176   1.671   7.467 -1.3502 -0.3632  0.2434
   38CHL1   C14 2754   0.140   1.799   7.636 -0.3277 -0.7039 -1.1319
   38CHL1   H14 2755   0.120   1.907   7.652 -2.0868 -1.2970  1.3439
   38CHL1   C15 2756   0.267   1.782   7.719 -0.1711  0.1636  0.4249
   38CHL1  H15A 2757   0.319   1.687   7.691 -2.7261 -1.2307  0.0860
   38CHL1  H15B 2758   0.332   1.872   7.718  0.0661 -0.0036 -0.3673
   38CHL1   C16 2759   0.214   1.758   7.859  0.7785 -0.1078  0.3655
   38CHL1  H16A 2760   0.258   1.661   7.891  0.3413 -0.4191  0.0326
   38CHL1  H16B 2761   0.255   1.830   7.934 -0.6954  0.4602  0.6600
   38CHL1   C17 2762   0.062   1.748   7.850 -0.8955 -0.5523 -0.2562
   38CHL1   H17 2763   0.020   1.851   7.860 -0.5369 -0.5804  1.9520
   38CHL1   C13 2764   0.026   1.722   7.702  0.7330  0.0960  0.1505
   38CHL1   C18 2765   0.041   1.570   7.672 -0.0319  0.0341 -1.1449
   38CHL1  H18A 2766  -0.033   1.506   7.725  1.2243 -1.8050 -1.5429
   38CHL1  H18B 2767   0.029   1.546   7.564 -0.3440 -0.5318 -0.9866
   38CHL1  H18C 2768   0.137   1.530   7.711 -2.0962 -2.1524  2.1658
   38CHL1   C12 2769  -0.107   1.779   7.644  0.4859 -0.2889  0.9964
   38CHL1  H12A 2770  -0.204   1.742   7.685  0.7856 -2.0811  0.1560
   38CHL1  H12B 2771  -0.113   1.885   7.678 -0.4195  0.8722 -2.3657
   38CHL1   C11 2772  -0.105   1.768   7.487  0.2360  0.3316 -0.0107
   38CHL1  H11A 2773  -0.133   1.665   7.457 -0.1557  0.3439  0.2919
   38CHL1  H11B 2774  -0.189   1.824   7.440 -0.4856 -1.3664 -0.8446
   38CHL1    C9 2775   0.018   1.816   7.411 -0.6922  0.1840 -0.1186
   38CHL1    H9 2776   0.015   1.927   7.414  0.7954  0.2596 -0.5464
   38CHL1   C10 2777   0.019   1.783   7.258  0.2650  0.0737 -0.8687
   38CHL1   C19 2778   0.008   1.633   7.219  0.1763  0.3594 -0.2193
   38CHL1  H19A 2779  -0.085   1.587   7.260 -0.6577  0.7873 -1.5870
   38CHL1  H19B 2780  -0.001   1.625   7.109  1.2903 -0.9554 -0.2385
   38CHL1  H19C 2781   0.099   1.574   7.241  0.2609  0.3162 -0.6847
   38CHL1    C1 2782  -0.102   1.858   7.195  0.3356 -0.3776 -0.3290
   38CHL1   H1A 2783  -0.198   1.806   7.216 -0.3558  0.6108 -0.9216
   38CHL1   H1B 2784  -0.101   1.955   7.248  1.5953 -1.2802  1.3859
   38CHL1    C2 2785  -0.097   1.873   7.041  0.4562  1.0281  0.9100
   38CHL1   H2A 2786  -0.186   1.933   7.014  1.1917  1.9123  0.4113
   38CHL1   H2B 2787  -0.111   1.771   7.000 -1.9342  0.8763  1.9014
   38CHL1   C20 2788  -0.003   1.660   7.953  0.2637  0.3146  1.3637
   38CHL1   H20 2789   0.042   1.559   7.946  2.5715  1.1088  3.2896
   38CHL1   C21 2790  -0.157   1.663   7.948  0.5686  0.7732  0.1219
   38CHL1  H21A 2791  -0.197   1.627   7.851  1.4639 -2.3838  0.7976
   38CHL1  H21B 2792  -0.197   1.763   7.976  1.9784  0.7396  2.5461
   38CHL1  H21C 2793  -0.202   1.594   8.023 -0.6702  1.4279  0.0112
   38CHL1   C22 2794   0.042   1.700   8.096  0.5509  0.4446 -0.1855
   38CHL1  H22A 2795   0.151   1.686   8.113  0.4129 -0.5571 -0.1093
   38CHL1  H22B 2796   0.015   1.808   8.103  0.6976  0.4568  0.2054
   38CHL1   C23 2797  -0.021   1.624   8.213 -0.2133 -0.5583  0.3448
   38CHL1  H23A 2798  -0.122   1.669   8.225  0.4076  1.1099 -0.3468
   38CHL1  H23B 2799  -0.025   1.515   8.193  1.2531 -0.7263  0.8792
   38CHL1   C24 2800   0.053   1.645   8.344  0.3171  0.0883  0.0851
   38CHL1  H24A 2801   0.161   1.620   8.340  0.1324 -1.0432  1.3549
   38CHL1  H24B 2802   0.061   1.754   8.364 -0.4313  0.1680 -0.0104
   38CHL1   C25 2803   0.001   1.556   8.462  0.2262  0.3048 -0.8505
   38CHL1   H25 2804  -0.110   1.556   8.457  0.1554 -1.4958  0.0171
   38CHL1   C26 2805   0.056   1.415   8.451 -0.1217 -0.0724  0.2691
   38CHL1  H26A 2806   0.049   1.367   8.351  0.0907  2.4933 -1.0485
   38CHL1  H26B 2807   0.162   1.421   8.483  0.1907  3.7476 -0.9900
   38CHL1  H26C 2808  -0.002   1.345   8.515  0.4936  1.0901  2.1702
   38CHL1   C27 2809   0.037   1.626   8.598 -0.7458  0.1893 -0.2202
   38CHL1  H27A 2810   0.147   1.636   8.611 -1.0470  0.2113  3.0155
   38CHL1  H27B 2811  -0.014   1.725   8.591 -0.3159  0.3244 -2.1836
   38CHL1  H27C 2812  -0.008   1.564   8.678 -1.7917  2.2476  0.8832
   39CHL1    C3 2813   6.376   0.182   7.002  0.5638  1.1843 -0.1186
   39CHL1    H3 2814   6.486   0.174   6.994  0.8217 -1.1446  3.6682
   39CHL1    O3 2815   6.323   0.202   6.870 -0.0629 -0.1589 -0.0717
   39CHL1   H3' 2816   6.228   0.188   6.872 -0.4896  2.2569 -0.4502
   39CHL1    C4 2817   6.326   0.043   7.061 -0.5086  0.1888 -0.3505
   39CHL1   H4A 2818   6.219   0.024   7.042 -0.0676 -1.8361 -0.9932
   39CHL1   H4B 2819   6.379  -0.033   6.999 -2.1924 -0.4878 -1.0175
   39CHL1    C5 2820   6.347   0.027   7.215 -0.8993  0.2600 -0.2020
   39CHL1    C6 2821   6.405  -0.086   7.255  0.6179  0.2552  0.2417
   39CHL1    H6 2822   6.408  -0.162   7.176 -1.4495 -0.6225  0.9460
   39CHL1    C7 2823   6.431  -0.116   7.400 -0.1825  0.2715  0.3696
   39CHL1   H7A 2824   6.386  -0.214   7.431 -0.1567  0.2356  0.2928
   39CHL1   H7B 2825   6.540  -0.121   7.422 -0.0129  0.4868 -0.3953
   39CHL1    C8 2826   6.365  -0.014   7.497 -0.4770 -0.2258  0.1369
   39CHL1    H8 2827   6.255  -0.033   7.503 -0.3697 -1.1412 -0.5507
   39CHL1   C14 2828   6.433  -0.036   7.630  0.1230 -0.5249 -0.2595
   39CHL1   H14 2829   6.540  -0.007   7.626  0.8225 -1.8887  3.5688
   39CHL1   C15 2830   6.450  -0.172   7.691  0.0015 -0.0735 -0.2294
   39CHL1  H15A 2831   6.349  -0.219   7.696  0.6451 -2.0785 -3.1869
   39CHL1  H15B 2832   6.528  -0.238   7.647 -0.5674 -0.3143 -0.8942
   39CHL1   C16 2833   6.485  -0.135   7.838  0.2695  0.0033  0.3015
   39CHL1  H16A 2834   6.424  -0.199   7.905 -0.4897  1.1530  0.7573
   39CHL1  H16B 2835   6.593  -0.155   7.848  0.6800  1.3431 -1.0297
   39CHL1   C17 2836   6.459   0.013   7.863  0.1984 -0.5975 -0.5610
   39CHL1   H17 2837   6.555   0.067   7.850  0.1922 -0.1585  1.0519
   39CHL1   C13 2838   6.374   0.060   7.742 -0.5612  0.8733 -0.5194
   39CHL1   C18 2839   6.231   0.028   7.783 -0.6724 -0.1968  0.7521
   39CHL1  H18A 2840   6.189   0.090   7.865 -1.0893 -0.9674  1.1364
   39CHL1  H18B 2841   6.167   0.035   7.693  1.2341  1.3203 -0.5753
   39CHL1  H18C 2842   6.233  -0.079   7.814 -0.0513 -0.5528 -0.4505
   39CHL1   C12 2843   6.387   0.204   7.695 -0.7312 -0.0576  0.7483
   39CHL1  H12A 2844   6.340   0.278   7.763 -0.1020  0.6811  0.3910
   39CHL1  H12B 2845   6.496   0.226   7.694 -0.8472  0.9673 -3.1134
   39CHL1   C11 2846   6.326   0.226   7.550 -0.2956  0.2571  0.3246
   39CHL1  H11A 2847   6.219   0.199   7.559 -0.4790  0.0875 -1.8851
   39CHL1  H11B 2848   6.335   0.335   7.528  3.0791 -0.3097 -1.8368
   39CHL1    C9 2849   6.388   0.132   7.447  0.5891  0.1873  0.2028
   39CHL1    H9 2850   6.497   0.147   7.433  0.6960  0.0078  0.8396
   39CHL1   C10 2851   6.319   0.151   7.303 -0.2930 -0.0949  0.2256
   39CHL1   C19 2852   6.165   0.156   7.309  0.4584 -0.1808 -1.5108
   39CHL1  H19A 2853   6.128   0.060   7.350 -2.2390  1.4209  0.1191
   39CHL1  H19B 2854   6.130   0.240   7.373 -0.1106  0.0271 -2.0823
   39CHL1  H19C 2855   6.108   0.165   7.213 -0.3730  0.1768 -0.9964
   39CHL1    C1 2856   6.377   0.281   7.238  0.4368  0.0888 -0.2319
   39CHL1   H1A 2857   6.356   0.365   7.308  0.7057 -1.0476  1.2567
   39CHL1   H1B 2858   6.488   0.270   7.238  0.3333 -1.1741  0.9672
   39CHL1    C2 2859   6.335   0.300   7.087 -0.2685 -0.9679 -0.1030
   39CHL1   H2A 2860   6.378   0.389   7.038 -0.7466 -1.2310 -1.0108
   39CHL1   H2B 2861   6.225   0.311   7.095 -0.1328 -0.6120  1.6048
   39CHL1   C20 2862   6.425   0.048   8.012 -0.5271 -0.6138 -0.1920
   39CHL1   H20 2863   6.331   0.002   8.049  0.8292 -1.5144  2.4041
   39CHL1   C21 2864   6.405   0.195   8.038 -0.6290 -1.3240  0.1141
   39CHL1  H21A 2865   6.494   0.254   8.008  0.3962 -2.6698  0.3671
   39CHL1  H21B 2866   6.367   0.220   8.139 -1.0622 -4.7101  0.9244
   39CHL1  H21C 2867   6.332   0.241   7.969  2.6716  2.3559 -1.2806
   39CHL1   C22 2868   6.524  -0.008   8.114 -0.6960 -0.3126 -0.2000
   39CHL1  H22A 2869   6.528  -0.115   8.086 -0.2190 -0.3195 -0.1064
   39CHL1  H22B 2870   6.618   0.047   8.089 -0.9994 -0.3509 -1.4833
   39CHL1   C23 2871   6.485   0.015   8.262  0.2394 -0.3833 -0.0110
   39CHL1  H23A 2872   6.566  -0.036   8.319  0.4353 -1.9503 -1.6182
   39CHL1  H23B 2873   6.484   0.125   8.277 -1.8280  0.1260 -2.9773
   39CHL1   C24 2874   6.351  -0.048   8.297  0.0789 -0.2396 -0.4431
   39CHL1  H24A 2875   6.260  -0.002   8.253  1.1407  1.4284 -0.9966
   39CHL1  H24B 2876   6.348  -0.150   8.252 -2.1342 -0.8565  0.9404
   39CHL1   C25 2877   6.335  -0.060   8.450  0.2489 -0.2952  0.7216
   39CHL1   H25 2878   6.434  -0.083   8.494  0.8728 -0.0623 -0.5240
   39CHL1   C26 2879   6.286   0.067   8.514 -0.1218 -0.3211  0.4384
   39CHL1  H26A 2880   6.345   0.155   8.480  0.7643 -1.8259 -2.2611
   39CHL1  H26B 2881   6.179   0.084   8.488  0.2118  0.8129 -0.2853
   39CHL1  H26C 2882   6.303   0.056   8.623 -0.9230 -0.4246  0.5606
   39CHL1   C27 2883   6.242  -0.177   8.485  0.0854 -0.0946 -0.0485
   39CHL1  H27A 2884   6.145  -0.171   8.431  0.9416 -0.2760 -1.6494
   39CHL1  H27B 2885   6.289  -0.270   8.448  0.1277 -0.6056  1.2532
   39CHL1  H27C 2886   6.241  -0.170   8.596 -1.7021  0.6031 -0.0725
   40CHL1    C3 2887   1.807   6.286   7.191 -0.5331 -0.8756 -0.4179
   40CHL1    H3 2888   1.705   6.273   7.232 -0.6723 -0.4556 -0.6265
   40CHL1    O3 2889   1.792   6.279   7.053 -0.4378  0.1433 -0.4614
   40CHL1   H3' 2890   1.878   6.306   7.021 -1.3713  2.3123 -1.3069
   40CHL1    C4 2891   1.858   6.429   7.236 -0.3899  0.3105 -0.6476
   40CHL1   H4A 2892   1.956   6.450   7.189  1.4537 -0.4222  2.5838
   40CHL1   H4B 2893   1.789   6.505   7.193  0.1481  0.9859 -0.3403
   40CHL1    C5 2894   1.870   6.446   7.387  0.7680  0.4045 -0.1964
   40CHL1    C6 2895   1.802   6.545   7.447  0.7815 -0.0112 -0.4906
   40CHL1    H6 2896   1.741   6.617   7.391  0.7352  0.6906  0.4257
   40CHL1    C7 2897   1.810   6.563   7.597 -0.5810 -0.7553 -0.0196
   40CHL1   H7A 2898   1.832   6.670   7.615 -0.7962 -0.3076 -2.0934
   40CHL1   H7B 2899   1.713   6.538   7.646  0.5951  1.3860  3.7701
   40CHL1    C8 2900   1.929   6.486   7.657  0.7464  0.3837 -0.0926
   40CHL1    H8 2901   2.026   6.536   7.635  2.7598 -2.6148  1.3168
   40CHL1   C14 2902   1.899   6.473   7.809  0.4255  0.5460  1.1519
   40CHL1   H14 2903   1.805   6.414   7.815  1.1983 -0.7538  0.9901
   40CHL1   C15 2904   1.881   6.602   7.885 -0.2371  0.2281 -0.2453
   40CHL1  H15A 2905   1.961   6.677   7.865 -1.0785  1.5597  1.2201
   40CHL1  H15B 2906   1.785   6.650   7.858  1.0902  2.4064 -1.3755
   40CHL1   C16 2907   1.895   6.564   8.031  0.0715 -0.1631 -0.3054
   40CHL1  H16A 2908   1.964   6.631   8.088  2.1874 -1.2269 -1.5084
   40CHL1  H16B 2909   1.798   6.560   8.086  1.3434  0.2389  2.1010
   40CHL1   C17 2910   1.954   6.419   8.033 -0.5253 -0.4735 -0.4212
   40CHL1   H17 2911   1.869   6.349   8.043 -1.3068  0.3961 -0.7830
   40CHL1   C13 2912   2.003   6.394   7.888 -0.5182  0.0211 -0.6527
   40CHL1   C18 2913   2.147   6.452   7.878  0.3352  0.0440  0.0751
   40CHL1  H18A 2914   2.173   6.458   7.770 -3.0400 -2.8877 -1.0831
   40CHL1  H18B 2915   2.147   6.557   7.914 -0.6890  0.4943 -1.1654
   40CHL1  H18C 2916   2.213   6.391   7.944  0.3651  1.5609  1.4873
   40CHL1   C12 2917   1.990   6.249   7.841 -0.5772  0.3558  0.6087
   40CHL1  H12A 2918   2.056   6.176   7.893 -0.1453  1.6308  1.9308
   40CHL1  H12B 2919   1.885   6.215   7.847 -0.2742 -0.4455  1.7379
   40CHL1   C11 2920   2.024   6.239   7.688 -0.9743  0.5227  0.9393
   40CHL1  H11A 2921   2.131   6.267   7.680 -1.0491  0.3081 -1.2373
   40CHL1  H11B 2922   2.011   6.138   7.645  0.7647  0.4351  0.5591
   40CHL1    C9 2923   1.935   6.342   7.606 -0.3816  0.6453  0.1398
   40CHL1    H9 2924   1.831   6.304   7.612  0.0752 -0.6707  0.1620
   40CHL1   C10 2925   1.957   6.332   7.452  0.5804 -0.0568  0.4637
   40CHL1   C19 2926   2.103   6.354   7.417  0.5689 -0.0529 -0.3542
   40CHL1  H19A 2927   2.152   6.446   7.456  0.9446 -1.7469  3.5907
   40CHL1  H19B 2928   2.163   6.266   7.448 -2.4164 -2.0881  0.0599
   40CHL1  H19C 2929   2.112   6.347   7.306  0.9546  0.6290 -0.3739
   40CHL1    C1 2930   1.913   6.192   7.393  0.2209 -0.2751 -0.6882
   40CHL1   H1A 2931   1.993   6.126   7.433 -0.5962  0.0141  1.6127
   40CHL1   H1B 2932   1.831   6.153   7.457  2.0374 -2.0026  0.7269
   40CHL1    C2 2933   1.907   6.183   7.241  0.5744 -0.7599  0.2560
   40CHL1   H2A 2934   1.868   6.080   7.223  1.3614 -0.9472 -0.4289
   40CHL1   H2B 2935   2.007   6.195   7.193 -0.4860 -1.0287 -2.1614
   40CHL1   C20 2936   2.044   6.393   8.153 -0.0672  0.2255 -0.1331
   40CHL1   H20 2937   2.136   6.454   8.146 -1.4643  2.4462 -0.2176
   40CHL1   C21 2938   2.090   6.245   8.150 -0.2810 -0.3484 -0.2031
   40CHL1  H21A 2939   2.147   6.227   8.244  0.1287 -0.5901 -0.4943
   40CHL1  H21B 2940   2.158   6.221   8.065  2.0262  1.6613  0.9348
   40CHL1  H21C 2941   2.001   6.178   8.157 -0.5479  0.0991  0.9392
   40CHL1   C22 2942   1.987   6.429   8.286  0.1050 -0.2592  0.0368
   40CHL1  H22A 2943   1.919   6.516   8.274 -0.0978 -0.5317 -0.8788
   40CHL1  H22B 2944   1.927   6.342   8.319  0.2129 -0.9626 -1.5478
   40CHL1   C23 2945   2.098   6.479   8.381 -0.1414 -0.1652 -0.4340
   40CHL1  H23A 2946   2.164   6.396   8.415 -1.9523 -1.1872  0.7726
   40CHL1  H23B 2947   2.179   6.538   8.332  1.7779 -1.2518  1.2704
   40CHL1   C24 2948   2.047   6.556   8.503  0.0618 -0.6329 -0.1482
   40CHL1  H24A 2949   1.999   6.654   8.479 -0.7316 -0.7381  0.9448
   40CHL1  H24B 2950   1.958   6.497   8.536  0.9422 -1.9387 -0.0515
   40CHL1   C25 2951   2.145   6.576   8.619 -0.4272 -0.5001  0.3899
   40CHL1   H25 2952   2.206   6.484   8.618  0.0728 -0.2054 -1.8083
   40CHL1   C26 2953   2.241   6.696   8.596 -1.1125 -0.1073  0.6251
   40CHL1  H26A 2954   2.319   6.707   8.674  0.3004 -2.4764 -0.3347
   40CHL1  H26B 2955   2.299   6.675   8.503 -0.2572 -1.8111  1.4940
   40CHL1  H26C 2956   2.188   6.786   8.559  0.1487  0.7207  0.7677
   40CHL1   C27 2957   2.074   6.596   8.751 -0.9239 -0.3236  0.7115
   40CHL1  H27A 2958   2.013   6.508   8.782  1.4624 -2.3015  0.1411
   40CHL1  H27B 2959   2.161   6.608   8.819 -0.7914  1.5228  0.2557
   40CHL1  H27C 2960   2.010   6.687   8.752  0.8309  0.9559  0.4672
   41CHL1    C3 2961   2.683   6.006   7.140  0.2334  0.3591  0.6333
   41CHL1    H3 2962   2.788   5.986   7.171  0.1915 -1.0507 -0.0225
   41CHL1    O3 2963   2.666   5.995   7.000 -0.1988 -0.3345 -0.3902
   41CHL1   H3' 2964   2.721   6.064   6.963 -1.1756  0.6282 -0.1035
   41CHL1    C4 2965   2.588   5.906   7.204  0.0227  0.0443 -0.8633
   41CHL1   H4A 2966   2.484   5.943   7.187  0.5540  2.2839  0.2706
   41CHL1   H4B 2967   2.606   5.804   7.165 -0.0090  0.0371 -0.8587
   41CHL1    C5 2968   2.596   5.914   7.354  0.1415 -0.4227  0.5230
   41CHL1    C6 2969   2.626   5.807   7.427 -0.6599 -0.6166 -0.7793
   41CHL1    H6 2970   2.648   5.713   7.374  0.1592  0.3211 -2.1525
   41CHL1    C7 2971   2.635   5.803   7.577  0.9306 -0.2808  1.0188
   41CHL1   H7A 2972   2.605   5.706   7.623 -2.5139  0.1020 -0.1374
   41CHL1   H7B 2973   2.740   5.827   7.605  0.7441  1.0714  0.6251
   41CHL1    C8 2974   2.551   5.918   7.634 -0.1914  0.4431  0.2177
   41CHL1    H8 2975   2.442   5.901   7.619 -0.5744  2.2363  0.8050
   41CHL1   C14 2976   2.587   5.918   7.777 -0.1655 -0.2584 -0.4573
   41CHL1   H14 2977   2.694   5.946   7.788 -0.7246  1.8313  0.0368
   41CHL1   C15 2978   2.574   5.789   7.864 -0.1176  0.8940 -0.0384
   41CHL1  H15A 2979   2.510   5.714   7.814  1.8716 -0.6200 -0.4484
   41CHL1  H15B 2980   2.676   5.745   7.856 -0.0235  1.1991 -0.5571
   41CHL1   C16 2981   2.545   5.831   8.008  0.4825  0.3392 -0.4278
   41CHL1  H16A 2982   2.443   5.800   8.038 -0.5038  2.3307 -1.4924
   41CHL1  H16B 2983   2.606   5.777   8.083 -0.2314 -0.6136 -0.5125
   41CHL1   C17 2984   2.561   5.990   8.001 -0.1438 -0.0295  0.1391
   41CHL1   H17 2985   2.670   6.006   8.016 -0.1513 -2.6438  5.3971
   41CHL1   C13 2986   2.521   6.026   7.861 -0.6429  0.0152  0.0495
   41CHL1   C18 2987   2.365   6.022   7.859 -0.1846 -0.0215 -0.1910
   41CHL1  H18A 2988   2.339   5.976   7.762  2.9085 -0.9961 -0.6847
   41CHL1  H18B 2989   2.320   5.962   7.941 -1.4192  1.4146  0.2288
   41CHL1  H18C 2990   2.331   6.127   7.845 -0.0931  0.4009  2.2444
   41CHL1   C12 2991   2.561   6.161   7.799 -0.7156 -0.3803  0.2771
   41CHL1  H12A 2992   2.506   6.240   7.854  1.2592  3.6572 -3.0578
   41CHL1  H12B 2993   2.670   6.178   7.816 -0.5871 -1.7922  1.1008
   41CHL1   C11 2994   2.521   6.172   7.642 -0.3716  0.3387 -0.1953
   41CHL1  H11A 2995   2.410   6.173   7.632 -0.5234  1.5003  1.2222
   41CHL1  H11B 2996   2.564   6.272   7.618 -1.9492  1.5708  1.8011
   41CHL1    C9 2997   2.585   6.052   7.569  0.3100  0.2494  0.2038
   41CHL1    H9 2998   2.696   6.059   7.578  0.5677 -0.9919 -1.6051
   41CHL1   C10 2999   2.568   6.059   7.416  0.5605  0.1972  0.6068
   41CHL1   C19 3000   2.419   6.102   7.387 -0.1606 -0.1522 -0.4429
   41CHL1  H19A 3001   2.406   6.213   7.392 -2.7774 -0.4225 -0.1699
   41CHL1  H19B 3002   2.390   6.078   7.283  0.0804  0.4535 -0.6547
   41CHL1  H19C 3003   2.353   6.060   7.465 -0.3612  2.4939  0.9487
   41CHL1    C1 3004   2.676   6.150   7.341 -0.1762 -0.5558  0.1372
   41CHL1   H1A 3005   2.674   6.251   7.388  1.1068 -0.9644  1.1532
   41CHL1   H1B 3006   2.777   6.117   7.375  0.2369 -0.9810 -1.4031
   41CHL1    C2 3007   2.654   6.139   7.188 -0.0414 -0.2395  1.1414
   41CHL1   H2A 3008   2.730   6.214   7.158 -2.1421  1.7358  0.5075
   41CHL1   H2B 3009   2.553   6.167   7.153  0.5783 -1.3984 -1.8577
   41CHL1   C20 3010   2.487   6.062   8.115 -0.5841 -0.5164  0.0888
   41CHL1   H20 3011   2.380   6.032   8.112 -0.0217 -2.5682 -0.8350
   41CHL1   C21 3012   2.499   6.220   8.105 -0.0996  0.0027 -0.1823
   41CHL1  H21A 3013   2.414   6.259   8.044  1.2134  0.7519 -1.5958
   41CHL1  H21B 3014   2.590   6.253   8.052 -0.8757  3.3201  0.3351
   41CHL1  H21C 3015   2.489   6.279   8.198 -0.5643  2.5399 -1.7477
   41CHL1   C22 3016   2.534   6.002   8.257  0.1239 -1.0655  0.2243
   41CHL1  H22A 3017   2.524   5.891   8.255 -1.9153 -0.9393  1.1574
   41CHL1  H22B 3018   2.639   6.035   8.273 -0.1053 -1.0282  1.7986
   41CHL1   C23 3019   2.437   6.047   8.366  0.6719  0.3927  0.5193
   41CHL1  H23A 3020   2.424   6.157   8.355 -0.8449 -0.0043 -2.3528
   41CHL1  H23B 3021   2.338   6.006   8.339  0.5124  1.9996 -1.6053
   41CHL1   C24 3022   2.480   6.015   8.508  0.0275  0.1704 -0.0219
   41CHL1  H24A 3023   2.391   6.025   8.573 -0.7932 -0.1913 -1.0528
   41CHL1  H24B 3024   2.519   5.912   8.511 -1.1924 -0.2956  0.6850
   41CHL1   C25 3025   2.602   6.103   8.566  0.1344  0.3885  0.8958
   41CHL1   H25 3026   2.668   6.143   8.486  3.6318 -3.3052  1.6705
   41CHL1   C26 3027   2.538   6.219   8.636 -0.1482 -0.0563  0.0892
   41CHL1  H26A 3028   2.520   6.192   8.742  0.5229  2.2709  0.8584
   41CHL1  H26B 3029   2.610   6.303   8.649 -0.0919 -0.1893  0.6349
   41CHL1  H26C 3030   2.453   6.252   8.573 -1.1109 -1.9955  0.3112
   41CHL1   C27 3031   2.694   6.026   8.667 -0.3298 -0.3993 -0.1661
   41CHL1  H27A 3032   2.639   5.992   8.758 -0.8563  1.4784  0.2608
   41CHL1  H27B 3033   2.751   5.941   8.624  1.4395  0.1815  0.9172
   41CHL1  H27C 3034   2.774   6.096   8.698  0.1297 -0.8240 -0.3747
   42CHL1    C3 3035   3.880   3.921   7.195 -0.4458  0.0472  0.6078
   42CHL1    H3 3036   3.854   4.018   7.242  1.2030  0.5483  0.5493
   42CHL1    O3 3037   3.947   3.953   7.076  0.8961  0.0303  0.2457
   42CHL1   H3' 3038   3.992   3.868   7.067  0.0793 -0.4230  0.2684
   42CHL1    C4 3039   3.978   3.856   7.291 -0.4137 -0.4576  0.6390
   42CHL1   H4A 3040   4.029   3.767   7.248  0.1518  0.4509 -0.6639
   42CHL1   H4B 3041   4.060   3.929   7.308 -0.2490 -0.0026 -1.7497
   42CHL1    C5 3042   3.901   3.825   7.413  0.0565 -0.7782 -0.0643
   42CHL1    C6 3043   3.934   3.882   7.526 -0.4171 -0.4650 -0.2390
   42CHL1    H6 3044   4.023   3.946   7.524  1.0166 -2.4109 -1.5858
   42CHL1    C7 3045   3.859   3.865   7.654 -0.6114  0.6270  0.1780
   42CHL1   H7A 3046   3.919   3.881   7.746  0.4134 -2.2362  0.1015
   42CHL1   H7B 3047   3.779   3.942   7.656  0.2183  1.4988  0.3142
   42CHL1    C8 3048   3.786   3.733   7.659 -0.3741 -0.1342 -0.5150
   42CHL1    H8 3049   3.842   3.637   7.662 -1.3041 -0.6832  0.2724
   42CHL1   C14 3050   3.686   3.737   7.774 -0.4774  0.5102 -0.2897
   42CHL1   H14 3051   3.625   3.830   7.764 -0.5185  0.3382 -1.9529
   42CHL1   C15 3052   3.741   3.751   7.915 -0.6040 -0.3782 -0.2967
   42CHL1  H15A 3053   3.825   3.686   7.947 -0.3577  0.2676  0.4142
   42CHL1  H15B 3054   3.776   3.855   7.934 -0.6814 -0.0257 -1.9322
   42CHL1   C16 3055   3.622   3.728   8.010  0.2869  0.3648 -0.1355
   42CHL1  H16A 3056   3.661   3.663   8.091 -0.5299  0.5576  0.4244
   42CHL1  H16B 3057   3.573   3.819   8.051 -2.8864 -2.3735  2.8147
   42CHL1   C17 3058   3.518   3.653   7.918 -0.4127  0.5235 -0.6061
   42CHL1   H17 3059   3.439   3.725   7.887 -2.7307 -0.8323  1.7187
   42CHL1   C13 3060   3.593   3.617   7.781  0.0096 -0.2467 -0.0886
   42CHL1   C18 3061   3.675   3.487   7.814 -0.5070  0.2053  0.1256
   42CHL1  H18A 3062   3.771   3.477   7.760 -0.1222 -2.8835  1.2037
   42CHL1  H18B 3063   3.695   3.472   7.922  0.8049 -0.3210 -0.1771
   42CHL1  H18C 3064   3.613   3.396   7.801  1.3975 -1.2339  0.7419
   42CHL1   C12 3065   3.510   3.601   7.658 -0.8808  0.4196  0.6124
   42CHL1  H12A 3066   3.452   3.506   7.658  1.6849 -1.2610  0.7966
   42CHL1  H12B 3067   3.443   3.689   7.658 -0.6255  0.6938  3.3073
   42CHL1   C11 3068   3.596   3.601   7.532 -0.1253  0.2770  0.0214
   42CHL1  H11A 3069   3.648   3.503   7.537  1.4423  0.9979 -1.2083
   42CHL1  H11B 3070   3.522   3.612   7.450 -1.8007 -2.7480  0.9938
   42CHL1    C9 3071   3.694   3.721   7.535  0.6369  0.2708  0.0559
   42CHL1    H9 3072   3.634   3.814   7.542  0.8856  0.4497 -0.1863
   42CHL1   C10 3073   3.775   3.735   7.402  0.0999  0.9574  0.6817
   42CHL1   C19 3074   3.832   3.596   7.358  0.0911  0.2484 -0.2283
   42CHL1  H19A 3075   3.890   3.562   7.446  1.8323 -0.4251 -1.5650
   42CHL1  H19B 3076   3.747   3.524   7.352 -0.3107  0.4436  2.1943
   42CHL1  H19C 3077   3.898   3.600   7.268 -0.3584  2.4560 -0.5087
   42CHL1    C1 3078   3.683   3.790   7.292 -0.4540 -0.7163  0.4365
   42CHL1   H1A 3079   3.605   3.719   7.259  1.2469 -2.3164 -0.3803
   42CHL1   H1B 3080   3.649   3.890   7.327 -0.8307 -0.4229 -0.7340
   42CHL1    C2 3081   3.754   3.835   7.160 -0.0375  0.9286 -0.3824
   42CHL1   H2A 3082   3.690   3.893   7.089  1.3913  2.8306 -0.2144
   42CHL1   H2B 3083   3.791   3.743   7.111 -0.0782  0.0978  1.1153
   42CHL1   C20 3084   3.436   3.548   7.999 -0.4217 -0.9120 -0.1753
   42CHL1   H20 3085   3.512   3.473   8.028  1.0766  0.6301  0.0775
   42CHL1   C21 3086   3.329   3.482   7.909 -0.4361 -0.4194  0.4468
   42CHL1  H21A 3087   3.262   3.562   7.871 -1.1018 -2.1657 -2.3256
   42CHL1  H21B 3088   3.263   3.408   7.957 -1.8012  1.5373  1.7372
   42CHL1  H21C 3089   3.367   3.446   7.811 -3.0139 -0.7526 -0.5169
   42CHL1   C22 3090   3.371   3.605   8.124  0.0108  0.4371  0.6303
   42CHL1  H22A 3091   3.449   3.667   8.174  1.4915 -2.8570  2.8037
   42CHL1  H22B 3092   3.284   3.672   8.114 -1.0849 -1.0895 -0.5821
   42CHL1   C23 3093   3.324   3.498   8.224 -0.3753 -0.3881 -0.1691
   42CHL1  H23A 3094   3.243   3.433   8.185  1.7534 -3.7327  0.5931
   42CHL1  H23B 3095   3.418   3.438   8.225 -0.4998 -0.6053 -0.9373
   42CHL1   C24 3096   3.296   3.559   8.358 -0.0264 -0.1199  0.0113
   42CHL1  H24A 3097   3.376   3.629   8.393  0.7424 -1.0965  0.2367
   42CHL1  H24B 3098   3.205   3.622   8.359 -0.1702 -0.3262  1.2846
   42CHL1   C25 3099   3.270   3.454   8.474  0.5244  0.2614  0.5574
   42CHL1   H25 3100   3.357   3.385   8.472  0.7358  0.5212  0.7355
   42CHL1   C26 3101   3.259   3.527   8.610 -0.0215  0.1149  0.4039
   42CHL1  H26A 3102   3.358   3.539   8.658  0.6805 -0.3510 -0.8575
   42CHL1  H26B 3103   3.210   3.625   8.593  3.3169  1.6231 -1.6993
   42CHL1  H26C 3104   3.209   3.461   8.684 -1.2015 -2.1912 -2.2189
   42CHL1   C27 3105   3.135   3.385   8.446 -1.1406 -0.0998  0.0922
   42CHL1  H27A 3106   3.123   3.307   8.524  0.5513 -0.6999 -0.2187
   42CHL1  H27B 3107   3.131   3.335   8.347 -0.9407  0.8526 -0.4147
   42CHL1  H27C 3108   3.047   3.452   8.457 -0.8631  0.1743  0.7145
   43CHL1    C3 3109   3.509   0.418   7.021 -0.3590 -1.0096 -0.8954
   43CHL1    H3 3110   3.599   0.477   7.050 -0.8387 -0.5384 -0.3107
   43CHL1    O3 3111   3.507   0.432   6.880 -0.2308  0.4769 -0.2678
   43CHL1   H3' 3112   3.423   0.397   6.852 -0.7634  1.1344  0.4575
   43CHL1    C4 3113   3.521   0.266   7.056 -0.3497 -0.2460  0.4579
   43CHL1   H4A 3114   3.432   0.219   7.010 -1.0271  0.6893  0.7896
   43CHL1   H4B 3115   3.608   0.220   7.004  0.3470  2.8226 -1.4028
   43CHL1    C5 3116   3.513   0.231   7.199  0.0023  0.2381  0.1160
   43CHL1    C6 3117   3.601   0.151   7.263 -0.3168 -0.1514 -0.1758
   43CHL1    H6 3118   3.690   0.118   7.207 -0.9783  1.9285 -2.6898
   43CHL1    C7 3119   3.590   0.116   7.410 -0.1728 -0.0499  0.5870
   43CHL1   H7A 3120   3.619   0.012   7.435 -1.4233 -1.0406 -1.7127
   43CHL1   H7B 3121   3.665   0.183   7.457  0.5063 -1.6907  1.9448
   43CHL1    C8 3122   3.456   0.148   7.477  0.9387  0.2251 -0.0913
   43CHL1    H8 3123   3.386   0.070   7.442 -2.2723  2.8832 -0.1047
   43CHL1   C14 3124   3.466   0.144   7.627  0.1921 -0.0618 -0.2397
   43CHL1   H14 3125   3.537   0.223   7.662 -1.2196  1.5060 -0.7501
   43CHL1   C15 3126   3.516   0.015   7.691  0.7876 -0.6800 -0.7335
   43CHL1  H15A 3127   3.472  -0.078   7.648 -0.8179 -1.5094  2.4157
   43CHL1  H15B 3128   3.627   0.012   7.693  0.8039  0.1127 -0.1617
   43CHL1   C16 3129   3.467   0.018   7.837  0.1432 -0.7383 -0.2323
   43CHL1  H16A 3130   3.409  -0.070   7.872 -2.3082  0.6062 -0.7517
   43CHL1  H16B 3131   3.548   0.036   7.911 -0.8776 -0.2497  0.7979
   43CHL1   C17 3132   3.374   0.151   7.850  0.1668 -0.7185 -0.0903
   43CHL1   H17 3133   3.433   0.243   7.869 -0.0474 -0.4386 -0.7501
   43CHL1   C13 3134   3.334   0.179   7.701  0.0430 -0.1165 -0.7874
   43CHL1   C18 3135   3.228   0.069   7.659 -0.0381  0.3458  0.5166
   43CHL1  H18A 3136   3.261  -0.035   7.677  1.6052 -0.3272 -4.6784
   43CHL1  H18B 3137   3.126   0.088   7.699 -1.2051  0.9583 -2.4216
   43CHL1  H18C 3138   3.202   0.079   7.551 -1.2982  3.2024  0.9738
   43CHL1   C12 3139   3.289   0.325   7.663 -0.2358  0.3911 -0.2836
   43CHL1  H12A 3140   3.194   0.358   7.709  0.0510  0.3804  0.3337
   43CHL1  H12B 3141   3.371   0.394   7.691  1.6332 -2.6166  2.3133
   43CHL1   C11 3142   3.273   0.333   7.506  0.1726 -0.1414  0.0135
   43CHL1  H11A 3143   3.187   0.268   7.476 -0.3457  1.5735 -2.5259
   43CHL1  H11B 3144   3.236   0.436   7.490  0.5000  0.5114  2.9568
   43CHL1    C9 3145   3.399   0.282   7.432  0.4330 -0.3729  0.4302
   43CHL1    H9 3146   3.472   0.362   7.455  1.6860 -1.3723  0.0729
   43CHL1   C10 3147   3.389   0.290   7.276  0.1602 -0.7119 -0.7296
   43CHL1   C19 3148   3.258   0.221   7.232  0.2630  0.4000  0.2264
   43CHL1  H19A 3149   3.255   0.220   7.121  1.0169  0.5070  0.2000
   43CHL1  H19B 3150   3.245   0.115   7.261  1.5534  0.0189 -0.4878
   43CHL1  H19C 3151   3.172   0.279   7.272  0.7248  1.7967 -0.7163
   43CHL1    C1 3152   3.384   0.444   7.242  0.0479  0.2052  0.2375
   43CHL1   H1A 3153   3.287   0.482   7.279 -0.3442  0.4064 -0.9314
   43CHL1   H1B 3154   3.475   0.483   7.292 -0.0115 -0.5905  0.9877
   43CHL1    C2 3155   3.383   0.475   7.084 -0.4009 -1.0652 -0.4908
   43CHL1   H2A 3156   3.380   0.583   7.061  0.4979 -0.9882 -0.2977
   43CHL1   H2B 3157   3.295   0.422   7.042 -0.6026 -0.8900 -0.2865
   43CHL1   C20 3158   3.263   0.141   7.958 -0.3419  0.0412  0.3548
   43CHL1   H20 3159   3.199   0.053   7.936  2.1900 -1.6507 -0.6650
   43CHL1   C21 3160   3.174   0.263   7.952 -0.3611  0.3843 -0.2535
   43CHL1  H21A 3161   3.246   0.347   7.954  0.2583 -0.1314  2.0927
   43CHL1  H21B 3162   3.109   0.267   8.042 -2.2459 -0.7796 -1.4895
   43CHL1  H21C 3163   3.102   0.262   7.867 -0.8039  1.7215  0.0667
   43CHL1   C22 3164   3.324   0.131   8.100 -0.6283 -0.1237 -0.2723
   43CHL1  H22A 3165   3.396   0.047   8.103 -0.7263 -0.1895  1.1363
   43CHL1  H22B 3166   3.376   0.226   8.122  0.8060 -0.7176 -0.9969
   43CHL1   C23 3167   3.232   0.114   8.223 -0.2373 -0.0128 -1.1755
   43CHL1  H23A 3168   3.177   0.208   8.245  1.3488  0.6287  0.2042
   43CHL1  H23B 3169   3.156   0.038   8.196  0.2412 -0.7187 -0.5861
   43CHL1   C24 3170   3.315   0.080   8.357  0.2304  0.1766 -0.8499
   43CHL1  H24A 3171   3.362  -0.016   8.328  0.0727  0.0642 -0.7332
   43CHL1  H24B 3172   3.393   0.159   8.366 -0.8972  1.3586 -1.1546
   43CHL1   C25 3173   3.231   0.057   8.483  0.0895  0.1726  0.6254
   43CHL1   H25 3174   3.161   0.144   8.489 -0.7013 -0.4675  0.8319
   43CHL1   C26 3175   3.132  -0.062   8.468  0.5967 -0.2095  0.5108
   43CHL1  H26A 3176   3.071  -0.047   8.376  3.4043 -1.6080 -1.7895
   43CHL1  H26B 3177   3.186  -0.159   8.458  0.3055 -0.6294  2.5791
   43CHL1  H26C 3178   3.057  -0.075   8.548 -0.7441  1.1432 -0.4796
   43CHL1   C27 3179   3.324   0.048   8.609 -0.2676  0.2452 -0.3994
   43CHL1  H27A 3180   3.389   0.138   8.606 -0.7206  0.5495 -1.8450
   43CHL1  H27B 3181   3.273   0.042   8.707 -0.4351  2.1911 -0.3346
   43CHL1  H27C 3182   3.385  -0.045   8.605 -0.9524 -0.2750  0.6398
   44CHL1    C3 3183   3.685   5.268   6.898 -0.1163  0.5187  0.0401
   44CHL1    H3 3184   3.626   5.173   6.894  0.7922 -0.0341 -0.4667
   44CHL1    O3 3185   3.694   5.300   6.760 -0.5526 -0.2866 -0.0041
   44CHL1   H3' 3186   3.748   5.379   6.755 -0.7136 -0.2690 -3.3297
   44CHL1    C4 3187   3.619   5.380   6.982  0.4263  0.0192  0.2793
   44CHL1   H4A 3188   3.674   5.473   6.958 -0.4693  0.1064 -1.6781
   44CHL1   H4B 3189   3.515   5.401   6.949  0.1637  0.3923  1.3082
   44CHL1    C5 3190   3.616   5.349   7.131 -0.0509 -0.3023  0.7281
   44CHL1    C6 3191   3.500   5.343   7.196 -0.1953  0.0462 -0.8753
   44CHL1    H6 3192   3.408   5.368   7.141  0.1282  0.3157 -1.2962
   44CHL1    C7 3193   3.489   5.315   7.340 -0.6059 -0.2283 -0.4171
   44CHL1   H7A 3194   3.406   5.375   7.383 -0.2335 -0.9831  1.4498
   44CHL1   H7B 3195   3.458   5.208   7.349  1.9792 -0.8636  2.8266
   44CHL1    C8 3196   3.628   5.328   7.409 -0.3518  0.0176  0.1934
   44CHL1    H8 3197   3.643   5.438   7.406 -2.9422  0.4375 -0.5270
   44CHL1   C14 3198   3.616   5.288   7.554 -0.1551 -0.0401  0.2227
   44CHL1   H14 3199   3.587   5.181   7.541  2.9854 -0.9429 -0.3777
   44CHL1   C15 3200   3.504   5.351   7.642 -0.0390  0.2654  0.1456
   44CHL1  H15A 3201   3.480   5.454   7.607  1.1560  0.2168 -0.9150
   44CHL1  H15B 3202   3.415   5.285   7.630  0.1221 -0.7267  3.4172
   44CHL1   C16 3203   3.548   5.324   7.781 -0.9460  0.2976 -0.4146
   44CHL1  H16A 3204   3.569   5.420   7.833  1.0958  0.5010 -1.4976
   44CHL1  H16B 3205   3.465   5.282   7.841  0.5063 -0.1648  1.3317
   44CHL1   C17 3206   3.687   5.243   7.774  0.3324  0.2783 -0.5033
   44CHL1   H17 3207   3.671   5.133   7.766  0.6545  0.2621 -0.9779
   44CHL1   C13 3208   3.748   5.289   7.638  0.3835 -0.5981  0.4294
   44CHL1   C18 3209   3.789   5.439   7.651  0.6331  0.6709 -0.0777
   44CHL1  H18A 3210   3.707   5.496   7.700 -1.8879 -1.8199 -1.1005
   44CHL1  H18B 3211   3.885   5.443   7.706 -0.2792  2.2726  1.4793
   44CHL1  H18C 3212   3.800   5.501   7.559 -0.0930  1.2255  0.1944
   44CHL1   C12 3213   3.862   5.215   7.570 -0.5252  0.0254  0.0224
   44CHL1  H12A 3214   3.960   5.242   7.616 -0.2289 -0.9742 -0.0041
   44CHL1  H12B 3215   3.854   5.105   7.574 -0.8308  0.0787  1.1938
   44CHL1   C11 3216   3.873   5.259   7.425  0.1435 -0.3482 -0.0820
   44CHL1  H11A 3217   3.909   5.364   7.425 -0.7564  0.0133 -1.8843
   44CHL1  H11B 3218   3.956   5.203   7.377 -0.9225 -1.7183 -0.4206
   44CHL1    C9 3219   3.741   5.257   7.338 -0.3717  0.2579 -0.9559
   44CHL1    H9 3220   3.725   5.148   7.329  0.6935  0.2260 -2.8604
   44CHL1   C10 3221   3.756   5.310   7.191  0.2633  0.2551  0.3630
   44CHL1   C19 3222   3.850   5.441   7.190 -0.1674  0.8396 -0.3016
   44CHL1  H19A 3223   3.845   5.490   7.090  2.4824  0.7470 -0.5422
   44CHL1  H19B 3224   3.816   5.517   7.263  2.2421  1.8339 -0.1169
   44CHL1  H19C 3225   3.956   5.413   7.209 -0.3019 -1.2236 -2.2145
   44CHL1    C1 3226   3.824   5.200   7.100 -0.0216  0.4633  0.0219
   44CHL1   H1A 3227   3.931   5.183   7.126 -0.5425 -0.5517  1.5918
   44CHL1   H1B 3228   3.779   5.100   7.114 -0.0256  0.1459 -1.9752
   44CHL1    C2 3229   3.824   5.235   6.949 -0.1425  0.5782 -0.7418
   44CHL1   H2A 3230   3.870   5.155   6.888 -2.0824 -1.1436 -0.0832
   44CHL1   H2B 3231   3.887   5.324   6.928 -1.1815  1.1630 -1.4884
   44CHL1   C20 3232   3.767   5.261   7.897 -0.5092  0.2519 -0.4324
   44CHL1   H20 3233   3.803   5.365   7.888  0.3399  0.0772  0.6719
   44CHL1   C21 3234   3.896   5.182   7.906 -0.4863  0.6173 -0.4067
   44CHL1  H21A 3235   3.963   5.224   7.985 -1.3011  1.8656 -0.3538
   44CHL1  H21B 3236   3.957   5.179   7.814  2.6774 -1.8345  1.5484
   44CHL1  H21C 3237   3.881   5.076   7.936  3.2534 -0.3029 -1.2375
   44CHL1   C22 3238   3.690   5.237   8.030  0.2680  0.1386  0.2640
   44CHL1  H22A 3239   3.598   5.299   8.030 -0.8016 -1.3385 -1.3160
   44CHL1  H22B 3240   3.662   5.129   8.033  1.8606 -0.2987 -0.1238
   44CHL1   C23 3241   3.765   5.288   8.158 -0.5180 -0.0891 -0.1772
   44CHL1  H23A 3242   3.868   5.246   8.163  0.1526  1.5447  0.9007
   44CHL1  H23B 3243   3.781   5.398   8.150 -2.0105  0.0308 -2.0630
   44CHL1   C24 3244   3.699   5.250   8.295 -0.0935 -0.2616  0.4607
   44CHL1  H24A 3245   3.646   5.153   8.283  0.4718 -0.3260 -2.0550
   44CHL1  H24B 3246   3.784   5.240   8.366  2.4204 -0.5228 -2.3899
   44CHL1   C25 3247   3.604   5.349   8.363 -0.2529  0.3575  0.2323
   44CHL1   H25 3248   3.528   5.372   8.285 -0.1816 -2.5960 -0.8304
   44CHL1   C26 3249   3.536   5.298   8.481 -0.0047  0.4006 -0.1454
   44CHL1  H26A 3250   3.489   5.201   8.453 -0.3981  0.7979 -0.8958
   44CHL1  H26B 3251   3.608   5.286   8.565  2.3491  4.3424 -1.3505
   44CHL1  H26C 3252   3.447   5.348   8.523  0.3211  0.5997  0.3175
   44CHL1   C27 3253   3.679   5.480   8.402 -0.0521  0.4691 -0.3869
   44CHL1  H27A 3254   3.746   5.455   8.487 -0.8780  1.2842  0.5447
   44CHL1  H27B 3255   3.724   5.522   8.310 -0.4535 -1.2444 -1.4028
   44CHL1  H27C 3256   3.605   5.560   8.427  0.5911  2.1709 -3.4000
   45CHL1    C3 3257   4.943   3.914   7.143  0.2989 -0.0740  0.8077
   45CHL1    H3 3258   4.834   3.930   7.126 -0.2423 -3.1305  0.7984
   45CHL1    O3 3259   5.009   3.911   7.015  0.0224  0.3223  0.1839
   45CHL1   H3' 3260   5.097   3.876   7.031  0.2021  1.4275  1.8487
   45CHL1    C4 3261   5.009   4.023   7.229 -0.0323  0.5611  0.3761
   45CHL1   H4A 3262   5.120   4.020   7.227 -0.0487  0.0259  0.2153
   45CHL1   H4B 3263   4.981   4.115   7.173 -3.0682  0.4509  1.5327
   45CHL1    C5 3264   4.965   4.011   7.373 -0.1229  0.1397  0.4836
   45CHL1    C6 3265   4.916   4.122   7.444 -0.0762 -0.0922 -0.0217
   45CHL1    H6 3266   4.923   4.219   7.393  1.5549  0.7163  1.6140
   45CHL1    C7 3267   4.864   4.131   7.588  0.0710  0.8712  0.1867
   45CHL1   H7A 3268   4.912   4.210   7.649  1.3765  0.4586 -0.2855
   45CHL1   H7B 3269   4.754   4.145   7.589  0.0390  0.8403  2.2328
   45CHL1    C8 3270   4.889   3.991   7.659 -0.0807  0.0068 -0.5303
   45CHL1    H8 3271   4.995   3.985   7.690 -0.0709 -0.6368 -0.6887
   45CHL1   C14 3272   4.802   3.973   7.786  0.0567 -0.2994  0.1049
   45CHL1   H14 3273   4.701   3.959   7.743  0.6543 -0.7524 -1.2099
   45CHL1   C15 3274   4.794   4.092   7.883 -0.0481  0.0021 -0.6613
   45CHL1  H15A 3275   4.899   4.126   7.899  0.1363 -0.4792 -0.8394
   45CHL1  H15B 3276   4.728   4.172   7.842 -2.9207 -1.4099  0.8736
   45CHL1   C16 3277   4.736   4.027   8.008 -0.4030  0.5426 -0.6723
   45CHL1  H16A 3278   4.811   4.035   8.090 -0.9960 -1.0576  0.0743
   45CHL1  H16B 3279   4.640   4.073   8.039  0.1103 -0.2830  2.6113
   45CHL1   C17 3280   4.716   3.873   7.984  0.5578  0.3112 -0.1717
   45CHL1   H17 3281   4.622   3.859   7.926  0.7038  1.5423 -0.7377
   45CHL1   C13 3282   4.822   3.846   7.870  0.2214 -0.2817  0.2805
   45CHL1   C18 3283   4.965   3.828   7.923 -0.2281 -0.4707 -0.0041
   45CHL1  H18A 3284   4.964   3.732   7.979 -0.2756 -0.8225 -0.5941
   45CHL1  H18B 3285   5.040   3.825   7.842  0.5736  1.1311  0.6475
   45CHL1  H18C 3286   4.989   3.915   7.987 -1.1721 -0.5134  0.4312
   45CHL1   C12 3287   4.788   3.733   7.776  0.3043 -0.7599  0.6031
   45CHL1  H12A 3288   4.791   3.635   7.829 -1.4302 -0.8194  0.6677
   45CHL1  H12B 3289   4.680   3.739   7.749  0.1044 -0.1670  1.4861
   45CHL1   C11 3290   4.882   3.736   7.648 -0.1579 -0.2519 -0.5363
   45CHL1  H11A 3291   4.988   3.723   7.676  0.5765 -1.1254 -3.4522
   45CHL1  H11B 3292   4.861   3.646   7.587  0.6242  0.0028 -1.1953
   45CHL1    C9 3293   4.871   3.869   7.567  1.2833 -0.1033  0.4304
   45CHL1    H9 3294   4.767   3.872   7.528  0.2354 -0.9708  2.9960
   45CHL1   C10 3295   4.956   3.869   7.441  0.1258  0.3382  0.2280
   45CHL1   C19 3296   5.106   3.825   7.479 -0.2720 -0.3949  0.1031
   45CHL1  H19A 3297   5.134   3.868   7.578  0.3685 -0.4585 -0.0492
   45CHL1  H19B 3298   5.115   3.714   7.478  2.2178 -0.2460 -0.2224
   45CHL1  H19C 3299   5.176   3.852   7.398 -1.5124 -0.3198 -0.9762
   45CHL1    C1 3300   4.896   3.762   7.343 -0.1456  0.2875  0.3847
   45CHL1   H1A 3301   4.889   3.657   7.377  0.9105 -0.3910 -1.3543
   45CHL1   H1B 3302   4.794   3.796   7.315  1.0312  2.2534 -1.8979
   45CHL1    C2 3303   4.949   3.774   7.204 -0.9012  0.2184  0.2365
   45CHL1   H2A 3304   4.902   3.701   7.134  1.1535 -0.1112 -0.8886
   45CHL1   H2B 3305   5.057   3.746   7.206 -0.8005  0.6584  1.9843
   45CHL1   C20 3306   4.721   3.786   8.107  0.0644  0.2349 -0.2896
   45CHL1   H20 3307   4.817   3.825   8.146 -0.1237  2.3337 -1.7472
   45CHL1   C21 3308   4.725   3.635   8.093 -0.3578  0.2500 -0.4763
   45CHL1  H21A 3309   4.813   3.587   8.047 -0.8939 -0.5902 -0.6527
   45CHL1  H21B 3310   4.641   3.598   8.029 -0.4709 -1.3374  0.5313
   45CHL1  H21C 3311   4.727   3.584   8.192  0.7110  1.2247  0.0243
   45CHL1   C22 3312   4.619   3.829   8.227 -0.4935 -0.0903  1.4730
   45CHL1  H22A 3313   4.662   3.767   8.309  2.3395 -2.4202 -1.5071
   45CHL1  H22B 3314   4.632   3.938   8.247  1.0468 -0.5328  3.1248
   45CHL1   C23 3315   4.478   3.792   8.185 -0.0213 -0.6637 -0.1165
   45CHL1  H23A 3316   4.454   3.851   8.093  1.2262 -0.1422 -0.1378
   45CHL1  H23B 3317   4.473   3.686   8.154 -0.7526 -0.4788 -0.6444
   45CHL1   C24 3318   4.378   3.813   8.292 -0.0804 -0.3428 -0.0217
   45CHL1  H24A 3319   4.386   3.916   8.333 -1.9191 -1.1318  2.6138
   45CHL1  H24B 3320   4.272   3.800   8.262  0.0319 -2.1406  0.2785
   45CHL1   C25 3321   4.394   3.711   8.408 -0.0122 -0.4826 -0.0455
   45CHL1   H25 3322   4.502   3.716   8.431 -0.2779 -0.9057  1.3956
   45CHL1   C26 3323   4.315   3.753   8.525 -0.1765  0.8215 -0.0770
   45CHL1  H26A 3324   4.318   3.668   8.597 -0.9940  0.3372 -0.6015
   45CHL1  H26B 3325   4.365   3.834   8.583  1.2248 -0.5761  0.7511
   45CHL1  H26C 3326   4.206   3.759   8.508 -0.4753  1.0749  1.6625
   45CHL1   C27 3327   4.352   3.572   8.360 -0.0537  0.2748  0.4735
   45CHL1  H27A 3328   4.253   3.572   8.310 -0.1457 -1.7390  0.5682
   45CHL1  H27B 3329   4.425   3.544   8.281 -0.4237  0.1545  0.1702
   45CHL1  H27C 3330   4.355   3.493   8.438  1.7880  0.1634  0.3301
   46CHL1    C3 3331   4.632   5.967   7.199  0.1172 -0.0141  0.0604
   46CHL1    H3 3332   4.734   5.924   7.197  0.1506  0.0223 -2.4377
   46CHL1    O3 3333   4.598   6.008   7.067  0.6929 -0.4653  0.2682
   46CHL1   H3' 3334   4.533   5.943   7.037 -1.4596  0.9976  1.4815
   46CHL1    C4 3335   4.542   5.856   7.241 -0.2421 -0.4212  0.4015
   46CHL1   H4A 3336   4.438   5.888   7.220 -0.1972  0.6908  1.7489
   46CHL1   H4B 3337   4.556   5.770   7.172  0.6345  1.1138 -1.4523
   46CHL1    C5 3338   4.558   5.825   7.386 -0.1314  0.7611 -0.1426
   46CHL1    C6 3339   4.587   5.701   7.423 -0.0673 -0.0059 -0.0436
   46CHL1    H6 3340   4.602   5.626   7.344 -0.4382  0.5590 -0.6652
   46CHL1    C7 3341   4.609   5.654   7.569  1.3983  0.1361  0.1029
   46CHL1   H7A 3342   4.563   5.560   7.607  1.2266  1.5363  3.7575
   46CHL1   H7B 3343   4.717   5.633   7.586  1.4999 -0.0438 -0.7053
   46CHL1    C8 3344   4.563   5.763   7.668 -0.1695 -0.6001 -0.0299
   46CHL1    H8 3345   4.452   5.757   7.666 -0.2868 -0.2624  2.3679
   46CHL1   C14 3346   4.627   5.752   7.809  0.0769 -0.2300 -0.2989
   46CHL1   H14 3347   4.734   5.770   7.788  0.1080  0.0179  0.0713
   46CHL1   C15 3348   4.637   5.609   7.857 -0.5113 -0.0224  0.6649
   46CHL1  H15A 3349   4.543   5.555   7.830  0.7930 -1.7687 -0.5760
   46CHL1  H15B 3350   4.719   5.559   7.801  1.1089  1.8740  1.2821
   46CHL1   C16 3351   4.663   5.633   8.006  0.0665  0.3698 -0.8927
   46CHL1  H16A 3352   4.591   5.582   8.073 -1.4089 -0.8151 -3.2419
   46CHL1  H16B 3353   4.759   5.591   8.043 -0.3458 -0.1391 -0.4037
   46CHL1   C17 3354   4.676   5.784   8.039  0.0248 -0.5041  0.2304
   46CHL1   H17 3355   4.783   5.811   8.026 -0.1126 -0.3248 -0.5481
   46CHL1   C13 3356   4.599   5.846   7.924 -0.1196  0.0611  0.3463
   46CHL1   C18 3357   4.446   5.853   7.958  0.5887  0.4102 -0.0601
   46CHL1  H18A 3358   4.431   5.932   8.034 -1.4350  0.0533 -0.0482
   46CHL1  H18B 3359   4.396   5.862   7.859  2.0825 -1.7691 -1.0928
   46CHL1  H18C 3360   4.419   5.755   8.002  0.7023  0.5351  0.2854
   46CHL1   C12 3361   4.652   5.983   7.873 -0.2140 -0.0379 -0.8117
   46CHL1  H12A 3362   4.630   6.062   7.949  2.2203 -0.1282  0.0643
   46CHL1  H12B 3363   4.763   5.981   7.877 -0.2464  0.0387  1.8700
   46CHL1   C11 3364   4.603   6.020   7.726 -0.1662  0.5074 -0.2007
   46CHL1  H11A 3365   4.498   6.049   7.752 -0.0851  0.9752 -0.3976
   46CHL1  H11B 3366   4.656   6.111   7.693 -2.1773  1.4853 -0.9242
   46CHL1    C9 3367   4.611   5.904   7.619  0.1284  0.4718 -0.2538
   46CHL1    H9 3368   4.719   5.891   7.596 -0.8883 -1.6339 -5.0153
   46CHL1   C10 3369   4.554   5.947   7.479  0.4258  0.5550 -0.9172
   46CHL1   C19 3370   4.412   6.002   7.482  0.0077 -0.0363  0.1910
   46CHL1  H19A 3371   4.410   6.097   7.540  2.3182  1.9942 -2.7269
   46CHL1  H19B 3372   4.372   6.022   7.380 -1.0531  0.3614  0.6720
   46CHL1  H19C 3373   4.349   5.925   7.530  0.6482 -1.2694 -0.8966
   46CHL1    C1 3374   4.646   6.060   7.434  0.3613 -0.4991 -0.3813
   46CHL1   H1A 3375   4.624   6.152   7.492 -1.4360 -1.8599  1.2458
   46CHL1   H1B 3376   4.751   6.034   7.459  0.4884 -1.2142 -1.5714
   46CHL1    C2 3377   4.628   6.089   7.290  0.5123  0.6180 -0.1752
   46CHL1   H2A 3378   4.707   6.153   7.245  0.4880 -1.2152 -3.0576
   46CHL1   H2B 3379   4.535   6.149   7.279 -1.7348 -2.6836 -0.6489
   46CHL1   C20 3380   4.634   5.816   8.182 -0.4200 -0.2162  0.5475
   46CHL1   H20 3381   4.525   5.811   8.202 -0.3801 -0.3631  0.7290
   46CHL1   C21 3382   4.669   5.957   8.205  0.0454 -0.3100 -0.4370
   46CHL1  H21A 3383   4.664   5.988   8.312  1.5696  0.6489 -0.6201
   46CHL1  H21B 3384   4.605   6.030   8.151  0.2357  0.2431  0.0734
   46CHL1  H21C 3385   4.776   5.972   8.182  0.6762 -2.8560  0.5177
   46CHL1   C22 3386   4.707   5.725   8.285 -0.3640  0.1920 -1.0169
   46CHL1  H22A 3387   4.686   5.616   8.280  0.7503 -0.0133 -1.4572
   46CHL1  H22B 3388   4.816   5.739   8.272 -0.0811  1.3260  1.8392
   46CHL1   C23 3389   4.695   5.756   8.439  0.1186 -0.2716  0.4179
   46CHL1  H23A 3390   4.743   5.854   8.460  1.1852 -0.7895  0.4490
   46CHL1  H23B 3391   4.585   5.757   8.456 -0.5025 -1.9609 -2.8345
   46CHL1   C24 3392   4.744   5.650   8.538  0.8784 -0.1188 -0.6289
   46CHL1  H24A 3393   4.668   5.569   8.540 -0.2243  0.8964  0.2907
   46CHL1  H24B 3394   4.839   5.613   8.494  0.2404 -0.1087 -2.0788
   46CHL1   C25 3395   4.765   5.711   8.685  0.0822  0.3880  0.7343
   46CHL1   H25 3396   4.836   5.795   8.666 -0.4660  1.0066  1.3776
   46CHL1   C26 3397   4.635   5.760   8.742  0.9236  0.0928  0.3734
   46CHL1  H26A 3398   4.580   5.806   8.657  2.1460  0.3187 -0.3122
   46CHL1  H26B 3399   4.579   5.671   8.778  1.4060  0.4817  2.1645
   46CHL1  H26C 3400   4.637   5.820   8.836  1.3579 -0.9598  1.0520
   46CHL1   C27 3401   4.829   5.607   8.780 -0.6696  0.2267  0.3530
   46CHL1  H27A 3402   4.761   5.520   8.775  0.5137 -0.7703  1.0786
   46CHL1  H27B 3403   4.935   5.589   8.752 -0.9528  0.6224 -1.0681
   46CHL1  H27C 3404   4.831   5.643   8.885 -0.4233 -1.0929  0.8108
   47CHL1    C3 3405   3.710   5.834   6.949  0.2304  0.5619 -0.5214
   47CHL1    H3 3406   3.721   5.724   6.944  1.6131  0.6830 -0.6619
   47CHL1    O3 3407   3.718   5.886   6.824  0.2402 -0.1823 -0.2232
   47CHL1   H3' 3408   3.680   5.974   6.835 -1.8159 -0.9971 -0.3224
   47CHL1    C4 3409   3.562   5.855   6.993  0.3777  0.5141  0.1011
   47CHL1   H4A 3410   3.523   5.957   6.974 -2.5183 -0.4942  0.1508
   47CHL1   H4B 3411   3.493   5.786   6.940  0.7768  1.1216 -1.2442
   47CHL1    C5 3412   3.548   5.829   7.142 -0.1231  0.8407 -0.2693
   47CHL1    C6 3413   3.454   5.738   7.183  0.3434  0.0412 -0.1843
   47CHL1    H6 3414   3.391   5.680   7.114 -0.4421  0.0568  0.4963
   47CHL1    C7 3415   3.431   5.697   7.327  0.8859 -0.9130 -0.2424
   47CHL1   H7A 3416   3.322   5.690   7.346  0.5505  0.2107 -1.5615
   47CHL1   H7B 3417   3.480   5.600   7.351 -1.6573 -1.8626  1.4888
   47CHL1    C8 3418   3.491   5.812   7.416  0.7035  0.8306 -0.2644
   47CHL1    H8 3419   3.428   5.901   7.395 -0.1808 -0.0795 -1.6275
   47CHL1   C14 3420   3.480   5.766   7.565 -0.2901  0.1429 -0.5131
   47CHL1   H14 3421   3.537   5.671   7.573  0.3158  0.5021 -0.5248
   47CHL1   C15 3422   3.341   5.737   7.619  0.1457 -0.4660 -0.1615
   47CHL1  H15A 3423   3.273   5.815   7.578  1.6394  0.1363 -1.5713
   47CHL1  H15B 3424   3.310   5.636   7.587 -0.6982 -0.2547 -0.0453
   47CHL1   C16 3425   3.363   5.740   7.765 -0.0407 -0.5674  0.0029
   47CHL1  H16A 3426   3.280   5.801   7.808 -0.5842 -0.0720 -1.6914
   47CHL1  H16B 3427   3.343   5.641   7.814 -2.7908  0.2321  0.6962
   47CHL1   C17 3428   3.500   5.793   7.802  0.3716  0.2616  0.6940
   47CHL1   H17 3429   3.566   5.705   7.817  0.5883  0.3954  0.5208
   47CHL1   C13 3430   3.546   5.862   7.670  0.1348 -0.1129 -0.4669
   47CHL1   C18 3431   3.487   6.008   7.658  0.0342 -0.2647 -0.4195
   47CHL1  H18A 3432   3.379   6.016   7.683  0.1760  3.1990 -0.3374
   47CHL1  H18B 3433   3.543   6.075   7.726 -1.2808 -0.8437  1.2878
   47CHL1  H18C 3434   3.503   6.052   7.557 -1.1965  1.0576 -0.0795
   47CHL1   C12 3435   3.694   5.862   7.643  0.3445 -0.8935  0.3441
   47CHL1  H12A 3436   3.757   5.925   7.709  1.8781 -2.1910  0.2000
   47CHL1  H12B 3437   3.731   5.757   7.645  0.8112 -0.7262  0.7841
   47CHL1   C11 3438   3.721   5.909   7.495  0.3605  0.0244 -0.3211
   47CHL1  H11A 3439   3.700   6.018   7.491  1.2396  0.1734 -1.9096
   47CHL1  H11B 3440   3.830   5.907   7.473  0.9583  2.6185  1.8315
   47CHL1    C9 3441   3.633   5.836   7.385  0.2173 -0.5384  0.5542
   47CHL1    H9 3442   3.685   5.738   7.374 -0.7143 -0.7816 -3.1226
   47CHL1   C10 3443   3.645   5.897   7.246  0.3569 -0.0075 -0.8369
   47CHL1   C19 3444   3.609   6.042   7.241  0.3465 -0.2614  0.0109
   47CHL1  H19A 3445   3.517   6.072   7.295 -0.7868 -1.5110 -1.1615
   47CHL1  H19B 3446   3.692   6.102   7.284 -1.1009  1.7502  0.1356
   47CHL1  H19C 3447   3.601   6.076   7.136  0.1623  1.1036  0.4517
   47CHL1    C1 3448   3.790   5.864   7.201 -0.1703 -0.2926  0.4974
   47CHL1   H1A 3449   3.862   5.921   7.263 -1.0370  0.0813  1.1795
   47CHL1   H1B 3450   3.812   5.756   7.212  1.5244  0.1179  1.6267
   47CHL1    C2 3451   3.813   5.890   7.049 -0.5051  0.2912  0.4997
   47CHL1   H2A 3452   3.908   5.836   7.026 -1.1980 -0.8351  0.2609
   47CHL1   H2B 3453   3.836   5.997   7.026  1.9832  0.4147  2.9027
   47CHL1   C20 3454   3.503   5.870   7.928  0.1482 -0.6518 -0.2217
   47CHL1   H20 3455   3.439   5.960   7.918 -0.9768 -1.4370 -0.3347
   47CHL1   C21 3456   3.642   5.907   7.975 -0.2387  0.5561 -0.1018
   47CHL1  H21A 3457   3.630   5.967   8.068 -4.0708  1.7104 -1.1905
   47CHL1  H21B 3458   3.696   5.967   7.898  0.6366  0.2247  0.2411
   47CHL1  H21C 3459   3.708   5.819   7.991  0.4097  1.0084 -0.2091
   47CHL1   C22 3460   3.431   5.788   8.040 -0.4543 -0.5011 -0.0126
   47CHL1  H22A 3461   3.320   5.793   8.036 -0.7280 -0.5097  3.6872
   47CHL1  H22B 3462   3.466   5.682   8.038  0.1118 -0.3142 -0.2008
   47CHL1   C23 3463   3.462   5.831   8.184 -0.6536 -0.1516  0.0533
   47CHL1  H23A 3464   3.566   5.804   8.212  0.5408  3.3351 -0.5580
   47CHL1  H23B 3465   3.459   5.941   8.194  1.5041  0.0349 -0.7812
   47CHL1   C24 3466   3.374   5.750   8.281  0.0681 -0.1148 -0.3493
   47CHL1  H24A 3467   3.269   5.743   8.246 -0.0227  2.6806 -0.8443
   47CHL1  H24B 3468   3.408   5.645   8.270 -1.1640 -0.7729  1.6814
   47CHL1   C25 3469   3.384   5.795   8.431  0.2796 -0.0908 -0.3724
   47CHL1   H25 3470   3.492   5.819   8.444  0.1967  0.7256 -1.0824
   47CHL1   C26 3471   3.305   5.921   8.465 -0.4443  0.2463  0.1086
   47CHL1  H26A 3472   3.198   5.898   8.445 -0.8051  2.7292 -1.0994
   47CHL1  H26B 3473   3.321   5.952   8.570  2.4581 -2.0924  0.5058
   47CHL1  H26C 3474   3.335   6.009   8.404  0.1531  0.0500  0.1185
   47CHL1   C27 3475   3.350   5.687   8.533  0.1915  0.6372  0.4819
   47CHL1  H27A 3476   3.435   5.620   8.561 -0.6549  0.2218  2.2172
   47CHL1  H27B 3477   3.308   5.736   8.623  0.3837  1.8188 -0.0515
   47CHL1  H27C 3478   3.261   5.631   8.498  0.8665  1.8258 -3.7396
   48CHL1    C3 3479   0.541   1.240   6.478 -0.2018  0.6285  1.0828
   48CHL1    H3 3480   0.430   1.235   6.467 -0.0946  0.0502  0.1342
   48CHL1    O3 3481   0.583   1.235   6.338 -0.3116 -1.0022 -0.6190
   48CHL1   H3' 3482   0.563   1.146   6.307 -1.6333 -0.8002 -0.4138
   48CHL1    C4 3483   0.567   1.373   6.549  0.4073  0.5288 -0.3879
   48CHL1   H4A 3484   0.677   1.384   6.542  0.5029 -0.7752 -1.3528
   48CHL1   H4B 3485   0.513   1.448   6.488 -0.9716 -2.2353 -2.8337
   48CHL1    C5 3486   0.532   1.372   6.698  0.1703  0.6567 -0.2968
   48CHL1    C6 3487   0.467   1.475   6.753  0.7440 -0.5164  0.0712
   48CHL1    H6 3488   0.430   1.546   6.679 -0.2730 -0.2467  0.8192
   48CHL1    C7 3489   0.433   1.487   6.899  0.8941 -0.4065 -0.4497
   48CHL1   H7A 3490   0.456   1.585   6.945  1.3462 -0.3527 -0.7826
   48CHL1   H7B 3491   0.323   1.475   6.905  0.5643  2.5009  1.3552
   48CHL1    C8 3492   0.507   1.378   6.986 -0.3820 -0.5737 -0.5054
   48CHL1    H8 3493   0.608   1.422   7.000 -0.7085  0.1079 -0.2298
   48CHL1   C14 3494   0.431   1.370   7.123  0.0376 -0.0594 -0.6470
   48CHL1   H14 3495   0.331   1.330   7.096 -0.5628 -0.3897  1.8706
   48CHL1   C15 3496   0.400   1.494   7.206 -0.2292 -0.2592  0.9388
   48CHL1  H15A 3497   0.492   1.552   7.227 -0.1942  0.9684 -2.1261
   48CHL1  H15B 3498   0.329   1.569   7.164 -0.5595 -0.1657  1.6435
   48CHL1   C16 3499   0.345   1.425   7.328  0.0849  0.0912  0.0078
   48CHL1  H16A 3500   0.379   1.487   7.414  1.5620 -0.1449 -0.3732
   48CHL1  H16B 3501   0.234   1.428   7.324  0.0364 -1.5139 -0.5338
   48CHL1   C17 3502   0.398   1.277   7.335  0.5414  0.2278  0.3929
   48CHL1   H17 3503   0.310   1.218   7.303  0.2900  0.9770 -0.3246
   48CHL1   C13 3504   0.489   1.265   7.214  0.1726  0.6975  0.3596
   48CHL1   C18 3505   0.638   1.304   7.257  0.4235  0.1056 -0.4236
   48CHL1  H18A 3506   0.695   1.338   7.168  1.4131 -0.7435 -0.1326
   48CHL1  H18B 3507   0.639   1.390   7.327 -0.5629 -0.0801 -0.1616
   48CHL1  H18C 3508   0.700   1.223   7.300  0.9323  0.8647  0.2915
   48CHL1   C12 3509   0.497   1.127   7.140 -0.2407 -0.2160 -0.5522
   48CHL1  H12A 3510   0.550   1.047   7.196  1.0826 -0.5518 -2.2117
   48CHL1  H12B 3511   0.391   1.094   7.125 -0.8522  0.1253  2.4059
   48CHL1   C11 3512   0.577   1.137   7.008  0.8988  0.3782 -0.6012
   48CHL1  H11A 3513   0.684   1.162   7.025  0.2356  2.6411  0.6351
   48CHL1  H11B 3514   0.572   1.031   6.976  1.1316  0.0168  0.4916
   48CHL1    C9 3515   0.514   1.243   6.916 -0.4387 -0.2280 -0.6165
   48CHL1    H9 3516   0.406   1.218   6.907 -0.4784 -1.6620  2.3260
   48CHL1   C10 3517   0.581   1.254   6.772  1.0990  0.4488  0.2965
   48CHL1   C19 3518   0.736   1.286   6.800 -0.2710  0.2564  0.6925
   48CHL1  H19A 3519   0.783   1.201   6.853 -0.7544 -0.9232 -0.6859
   48CHL1  H19B 3520   0.795   1.291   6.706  2.3227 -1.7016  2.0831
   48CHL1  H19C 3521   0.765   1.371   6.864 -0.7805  0.8074  0.2002
   48CHL1    C1 3522   0.572   1.121   6.703  0.0171 -0.0102 -0.0060
   48CHL1   H1A 3523   0.639   1.047   6.751 -2.1559 -0.9315  1.7699
   48CHL1   H1B 3524   0.466   1.087   6.711  0.5019 -1.7045 -0.4742
   48CHL1    C2 3525   0.607   1.128   6.556 -0.0549 -0.0206  0.3741
   48CHL1   H2A 3526   0.588   1.030   6.508 -1.0522  0.0766  0.5485
   48CHL1   H2B 3527   0.716   1.151   6.560  0.6675 -2.0111 -3.4188
   48CHL1   C20 3528   0.433   1.233   7.473  0.2194 -0.1193  0.1904
   48CHL1   H20 3529   0.536   1.269   7.494  1.2051 -3.1067  0.9208
   48CHL1   C21 3530   0.425   1.078   7.469  0.1321 -0.1424  0.0143
   48CHL1  H21A 3531   0.335   1.038   7.419  1.1882 -1.3437 -0.9891
   48CHL1  H21B 3532   0.444   1.037   7.571 -0.0754  0.8803  0.4808
   48CHL1  H21C 3533   0.505   1.044   7.400 -0.5488 -0.8323 -0.4443
   48CHL1   C22 3534   0.334   1.290   7.582  0.1831  0.1801 -0.4699
   48CHL1  H22A 3535   0.351   1.399   7.588  0.5964  0.1517 -1.0067
   48CHL1  H22B 3536   0.232   1.270   7.543 -0.3759  1.9606  0.0162
   48CHL1   C23 3537   0.353   1.223   7.722  0.0140 -0.3354 -0.3107
   48CHL1  H23A 3538   0.335   1.114   7.723  0.6136 -0.4323  0.4505
   48CHL1  H23B 3539   0.460   1.228   7.749  0.2764 -4.1171 -0.1307
   48CHL1   C24 3540   0.270   1.291   7.833  0.6631  0.5121  0.0021
   48CHL1  H24A 3541   0.283   1.401   7.836 -2.0538  0.8911  0.5651
   48CHL1  H24B 3542   0.168   1.292   7.790  0.6653 -1.2719 -0.1120
   48CHL1   C25 3543   0.271   1.250   7.979 -0.5123  0.6226  0.0106
   48CHL1   H25 3544   0.267   1.139   7.982 -0.2018  0.6108  0.0041
   48CHL1   C26 3545   0.407   1.285   8.055  0.1396 -0.1732 -0.2627
   48CHL1  H26A 3546   0.408   1.395   8.072 -0.1598 -0.4364  1.6382
   48CHL1  H26B 3547   0.407   1.233   8.153  3.6954 -1.0462 -0.5838
   48CHL1  H26C 3548   0.504   1.248   8.015  1.5904  2.5011  0.5362
   48CHL1   C27 3549   0.150   1.314   8.049 -0.5350 -0.0508  0.0161
   48CHL1  H27A 3550   0.133   1.263   8.147  0.2024 -0.8658 -0.2661
   48CHL1  H27B 3551   0.167   1.423   8.041 -3.5714  0.4753 -0.2700
   48CHL1  H27C 3552   0.058   1.291   7.992  0.0252  1.0550 -1.3818
   49CHL1    C3 3553   6.080   2.788   6.906  0.2001 -0.0404  0.0227
   49CHL1    H3 3554   6.128   2.688   6.901 -1.7124 -0.9951 -0.5988
   49CHL1    O3 3555   6.069   2.826   6.762  0.4188  0.0024 -0.5519
   49CHL1   H3' 3556   6.121   2.906   6.766  1.1702 -0.5199  2.4087
   49CHL1    C4 3557   5.943   2.773   6.972  0.1701  0.1703  0.3256
   49CHL1   H4A 3558   5.899   2.874   6.959 -1.1484 -0.5563 -1.2577
   49CHL1   H4B 3559   5.886   2.695   6.916  2.6831 -1.0942 -0.6512
   49CHL1    C5 3560   5.954   2.734   7.116 -0.5756  0.1011  0.1657
   49CHL1    C6 3561   5.886   2.630   7.170  0.0993  0.1473  0.4044
   49CHL1    H6 3562   5.825   2.562   7.108  0.3419  0.1636  0.1486
   49CHL1    C7 3563   5.886   2.596   7.313 -0.7740  0.0986  0.5291
   49CHL1   H7A 3564   5.786   2.581   7.360 -0.7768 -0.9973  0.2028
   49CHL1   H7B 3565   5.944   2.503   7.330 -0.9431  0.1875  1.6528
   49CHL1    C8 3566   5.952   2.709   7.404  0.3117 -0.8307  0.7991
   49CHL1    H8 3567   5.878   2.790   7.419  0.3570 -0.4793 -0.7401
   49CHL1   C14 3568   5.996   2.643   7.530  0.5767 -0.5232  0.6088
   49CHL1   H14 3569   6.074   2.573   7.494  0.2769  0.4559 -2.1791
   49CHL1   C15 3570   5.894   2.554   7.607  0.0842 -0.0451 -0.2005
   49CHL1  H15A 3571   5.796   2.604   7.623 -0.1150  0.5793 -2.8186
   49CHL1  H15B 3572   5.888   2.463   7.544  0.6499  1.0697 -1.9667
   49CHL1   C16 3573   5.972   2.530   7.737 -0.7920  0.4925  0.3710
   49CHL1  H16A 3574   5.919   2.540   7.834 -1.7429 -0.6585 -0.0107
   49CHL1  H16B 3575   6.024   2.432   7.729  0.2782  1.0787 -0.1652
   49CHL1   C17 3576   6.098   2.625   7.736  0.7313  0.1536  0.4638
   49CHL1   H17 3577   6.183   2.564   7.697  1.2214  1.1122  0.0014
   49CHL1   C13 3578   6.067   2.733   7.632  0.3210 -0.3261 -0.1942
   49CHL1   C18 3579   5.971   2.835   7.688  0.1024  0.1960 -0.1069
   49CHL1  H18A 3580   5.908   2.783   7.763  0.2097  1.7163  1.0864
   49CHL1  H18B 3581   6.032   2.906   7.748 -1.9376  0.6654  1.5382
   49CHL1  H18C 3582   5.907   2.897   7.623 -0.1931  1.3786  1.2590
   49CHL1   C12 3583   6.180   2.801   7.556 -0.1314 -0.0042 -0.3476
   49CHL1  H12A 3584   6.222   2.877   7.625 -0.2673 -2.0961  2.1521
   49CHL1  H12B 3585   6.261   2.727   7.545  0.9311  1.0505  0.1731
   49CHL1   C11 3586   6.141   2.875   7.428 -0.3898 -0.4489 -1.3967
   49CHL1  H11A 3587   6.067   2.954   7.456 -0.2902 -0.4693 -1.0666
   49CHL1  H11B 3588   6.235   2.922   7.393 -0.2453  1.2137  0.9480
   49CHL1    C9 3589   6.076   2.771   7.331  0.8587 -0.2746  0.3183
   49CHL1    H9 3590   6.154   2.692   7.319  0.6304 -0.5500  0.6148
   49CHL1   C10 3591   6.044   2.833   7.198  0.0081  0.5507  0.3342
   49CHL1   C19 3592   5.979   2.970   7.220  0.2841  0.0241  0.2387
   49CHL1  H19A 3593   5.910   2.960   7.307 -1.1021  0.8002 -0.7304
   49CHL1  H19B 3594   6.058   3.047   7.233  1.0348 -0.2749 -2.1468
   49CHL1  H19C 3595   5.912   3.008   7.140  0.4528 -1.6142 -0.7228
   49CHL1    C1 3596   6.175   2.845   7.131 -0.3823 -0.1313  0.8952
   49CHL1   H1A 3597   6.236   2.918   7.187 -1.1486  2.2889 -1.2258
   49CHL1   H1B 3598   6.231   2.754   7.101 -0.0901  0.0491  0.8915
   49CHL1    C2 3599   6.169   2.895   6.980  0.1098  0.1765 -0.6119
   49CHL1   H2A 3600   6.274   2.897   6.943  0.7525 -1.0116  1.0337
   49CHL1   H2B 3601   6.119   2.994   6.979 -2.0779 -0.8680 -0.2520
   49CHL1   C20 3602   6.143   2.657   7.876  0.3184 -0.1164  0.0325
   49CHL1   H20 3603   6.073   2.725   7.929 -1.6237 -0.9978 -1.2597
   49CHL1   C21 3604   6.270   2.743   7.881 -0.0909  0.1357  0.7755
   49CHL1  H21A 3605   6.313   2.756   7.983  1.9320  0.3257 -0.0596
   49CHL1  H21B 3606   6.247   2.844   7.840 -1.9892 -0.3757  0.4740
   49CHL1  H21C 3607   6.341   2.706   7.805  2.1576  2.4597  1.5824
   49CHL1   C22 3608   6.172   2.533   7.962 -0.1109 -0.5327 -0.8576
   49CHL1  H22A 3609   6.162   2.436   7.909 -1.0266 -2.3506  2.3260
   49CHL1  H22B 3610   6.282   2.540   7.976 -0.3958  1.3845  0.8190
   49CHL1   C23 3611   6.087   2.531   8.088 -0.3553 -0.6331 -0.7818
   49CHL1  H23A 3612   6.103   2.622   8.149 -0.6386  0.3990 -2.1910
   49CHL1  H23B 3613   5.980   2.527   8.059 -0.1785  0.6886 -1.7083
   49CHL1   C24 3614   6.126   2.400   8.174 -0.1634  0.4001  0.3518
   49CHL1  H24A 3615   6.112   2.311   8.109 -0.3676  1.8128 -1.6240
   49CHL1  H24B 3616   6.235   2.397   8.199 -0.4250 -1.9236  1.4676
   49CHL1   C25 3617   6.045   2.384   8.305  0.0585  0.2076 -0.2003
   49CHL1   H25 3618   5.940   2.363   8.274 -0.3319 -1.5653  2.0782
   49CHL1   C26 3619   6.085   2.254   8.383  0.5254  0.0907 -0.1368
   49CHL1  H26A 3620   6.191   2.254   8.416  0.0248 -0.8561  1.6284
   49CHL1  H26B 3621   6.025   2.247   8.476  0.6886 -2.2546 -0.1400
   49CHL1  H26C 3622   6.071   2.161   8.323 -0.0350  1.5081 -2.2913
   49CHL1   C27 3623   6.049   2.515   8.398 -0.3453 -0.2038 -0.2536
   49CHL1  H27A 3624   6.155   2.547   8.411  0.1018 -0.9266 -1.9027
   49CHL1  H27B 3625   5.991   2.596   8.349  0.2367  0.1025 -0.4406
   49CHL1  H27C 3626   5.995   2.495   8.494  2.1758 -0.1651  1.2614
   50CHL1    C3 3627   0.280   2.721   7.077 -0.2231 -0.3906  0.1414
   50CHL1    H3 3628   0.174   2.751   7.089 -0.0509 -0.3571  1.8461
   50CHL1    O3 3629   0.294   2.721   6.937  0.2232  0.0618  0.2602
   50CHL1   H3' 3630   0.335   2.806   6.920 -1.0816  1.3453  2.8684
   50CHL1    C4 3631   0.378   2.826   7.133  0.3044 -0.0307 -0.3368
   50CHL1   H4A 3632   0.485   2.799   7.123  0.5989  0.7180  0.6844
   50CHL1   H4B 3633   0.371   2.930   7.094 -0.8940  0.4163  0.9836
   50CHL1    C5 3634   0.348   2.832   7.283  0.2496 -0.1397 -0.6110
   50CHL1    C6 3635   0.309   2.947   7.340  0.0007 -0.2767 -0.1024
   50CHL1    H6 3636   0.307   3.042   7.285 -0.2612 -1.0529 -1.5073
   50CHL1    C7 3637   0.288   2.957   7.488  0.6656  1.1420 -1.1083
   50CHL1   H7A 3638   0.328   3.055   7.522 -0.7340  1.9232 -1.6414
   50CHL1   H7B 3639   0.179   2.960   7.507  0.7185  3.0138 -0.8525
   50CHL1    C8 3640   0.346   2.843   7.577  0.2180  0.5077  0.1316
   50CHL1    H8 3641   0.457   2.853   7.578  0.0941  2.5880  1.6672
   50CHL1   C14 3642   0.286   2.850   7.717 -0.0103  0.0026  0.3227
   50CHL1   H14 3643   0.179   2.823   7.709 -0.8102  3.0898 -0.9001
   50CHL1   C15 3644   0.281   2.978   7.790 -0.5246 -0.7681 -0.4749
   50CHL1  H15A 3645   0.384   3.020   7.795 -0.7287 -0.1238 -1.4654
   50CHL1  H15B 3646   0.219   3.050   7.733  0.3244 -0.1582 -0.6530
   50CHL1   C16 3647   0.238   2.931   7.931 -0.6625 -0.5272  0.2010
   50CHL1  H16A 3648   0.294   2.989   8.007 -0.2042  2.5203 -2.2553
   50CHL1  H16B 3649   0.130   2.956   7.943 -0.6787 -0.0726 -0.8270
   50CHL1   C17 3650   0.259   2.772   7.935  0.2409 -0.6449 -0.8571
   50CHL1   H17 3651   0.157   2.728   7.927 -0.3942  0.0805  2.0128
   50CHL1   C13 3652   0.338   2.744   7.813 -0.5325  0.5522  0.1194
   50CHL1   C18 3653   0.490   2.764   7.837 -0.5453 -0.0026 -0.6065
   50CHL1  H18A 3654   0.510   2.853   7.901  0.6046 -0.2893 -0.5292
   50CHL1  H18B 3655   0.541   2.683   7.893 -0.6158  0.1177 -0.3661
   50CHL1  H18C 3656   0.543   2.752   7.740 -1.7368 -3.6445 -0.9372
   50CHL1   C12 3657   0.304   2.602   7.747  0.5119 -0.8187  0.2478
   50CHL1  H12A 3658   0.341   2.520   7.812  0.2098 -1.2395 -0.1095
   50CHL1  H12B 3659   0.193   2.600   7.745  0.3963  0.3078  2.5708
   50CHL1   C11 3660   0.352   2.588   7.606  1.1051  1.0030 -0.1618
   50CHL1  H11A 3661   0.460   2.566   7.617  1.0206  0.5366 -0.2226
   50CHL1  H11B 3662   0.311   2.495   7.560  2.8573 -1.1003  2.2631
   50CHL1    C9 3663   0.314   2.712   7.513  0.5199 -0.0923  0.4379
   50CHL1    H9 3664   0.204   2.707   7.505  0.5137  0.3906  0.1595
   50CHL1   C10 3665   0.362   2.700   7.363  0.0459 -0.0762 -0.2051
   50CHL1   C19 3666   0.511   2.669   7.360 -1.0809 -0.1547  0.0952
   50CHL1  H19A 3667   0.527   2.583   7.429 -2.9300 -2.6574 -2.3629
   50CHL1  H19B 3668   0.547   2.644   7.258 -0.4519  1.1357 -0.0170
   50CHL1  H19C 3669   0.579   2.751   7.392  0.4169 -0.0404 -3.0204
   50CHL1    C1 3670   0.292   2.583   7.291 -0.9325 -0.2752 -0.3326
   50CHL1   H1A 3671   0.308   2.481   7.331 -2.0805  0.0702  1.1133
   50CHL1   H1B 3672   0.186   2.615   7.299 -0.4442  2.0271 -1.9482
   50CHL1    C2 3673   0.305   2.582   7.138  0.2657  0.3905  0.9296
   50CHL1   H2A 3674   0.230   2.511   7.097  0.4598  0.8405 -0.2671
   50CHL1   H2B 3675   0.400   2.541   7.096 -0.5467  0.2221 -0.8356
   50CHL1   C20 3676   0.322   2.707   8.068 -0.2891 -0.0688 -0.3528
   50CHL1   H20 3677   0.428   2.735   8.083 -0.6418  3.0964 -2.6375
   50CHL1   C21 3678   0.306   2.549   8.066  0.5510 -0.1458  0.2667
   50CHL1  H21A 3679   0.209   2.511   8.027  1.4645 -1.9276 -0.3413
   50CHL1  H21B 3680   0.327   2.517   8.170  0.3525 -0.5305  0.1901
   50CHL1  H21C 3681   0.395   2.513   8.011  0.9902  0.8422  0.3016
   50CHL1   C22 3682   0.248   2.759   8.195  0.2410  0.4196  0.0720
   50CHL1  H22A 3683   0.198   2.856   8.174  0.6827  0.2967 -1.7339
   50CHL1  H22B 3684   0.164   2.694   8.227  0.7558  0.4856  1.6256
   50CHL1   C23 3685   0.331   2.785   8.318 -0.2286 -0.4591 -0.0459
   50CHL1  H23A 3686   0.380   2.691   8.351  0.5467 -0.4192 -1.0235
   50CHL1  H23B 3687   0.410   2.858   8.289  0.3192 -1.0917 -0.1760
   50CHL1   C24 3688   0.237   2.845   8.426 -0.1768 -0.0514 -0.4317
   50CHL1  H24A 3689   0.310   2.875   8.504 -0.7701  3.0664 -0.9447
   50CHL1  H24B 3690   0.195   2.938   8.381  1.7127  1.1898  0.1973
   50CHL1   C25 3691   0.128   2.755   8.491 -0.6061  0.1362  0.2229
   50CHL1   H25 3692   0.063   2.730   8.405 -0.6001 -0.4031  0.3671
   50CHL1   C26 3693   0.186   2.627   8.557 -0.5628 -0.2298 -0.5755
   50CHL1  H26A 3694   0.099   2.569   8.595 -0.2839 -1.0895 -1.2206
   50CHL1  H26B 3695   0.229   2.552   8.487  0.3790 -2.6274  2.3306
   50CHL1  H26C 3696   0.256   2.646   8.642 -0.5987  2.8210 -1.0971
   50CHL1   C27 3697   0.050   2.836   8.592  0.1516 -0.3093 -0.2569
   50CHL1  H27A 3698   0.014   2.928   8.542  2.0055  1.7168  1.9030
   50CHL1  H27B 3699  -0.045   2.785   8.616 -0.0931  0.7955  1.2605
   50CHL1  H27C 3700   0.109   2.864   8.683 -1.5233  1.9670  0.2108
   51CHL1    C3 3701   6.024   2.270   6.781  0.0819  0.1440  1.1307
   51CHL1    H3 3702   5.944   2.339   6.815 -0.9218 -0.4616  0.0651
   51CHL1    O3 3703   6.031   2.282   6.637 -0.2376 -0.3460 -0.2988
   51CHL1   H3' 3704   6.100   2.345   6.613 -0.7101  1.3180  2.2192
   51CHL1    C4 3705   6.163   2.315   6.832 -0.2414  0.1141  0.0345
   51CHL1   H4A 3706   6.246   2.278   6.768  0.4749  0.4802  0.7426
   51CHL1   H4B 3707   6.167   2.425   6.818 -1.2920  0.3231  1.2386
   51CHL1    C5 3708   6.183   2.295   6.980  0.0196  0.7421  0.1354
   51CHL1    C6 3709   6.225   2.398   7.055  0.4347 -0.6144 -0.7181
   51CHL1    H6 3710   6.247   2.495   7.010  1.7639  0.1476  1.4147
   51CHL1    C7 3711   6.243   2.386   7.199 -0.2872 -0.1297 -0.1116
   51CHL1   H7A 3712   6.344   2.430   7.212  1.3146 -3.5400  0.2013
   51CHL1   H7B 3713   6.162   2.448   7.244 -0.1151  0.4426 -0.5789
   51CHL1    C8 3714   6.241   2.240   7.254  0.2167  0.4835  0.0024
   51CHL1    H8 3715   6.340   2.202   7.222  0.2771 -0.6053  1.3584
   51CHL1   C14 3716   6.220   2.249   7.397 -0.1971 -0.4281  0.1707
   51CHL1   H14 3717   6.124   2.300   7.420 -0.0525 -0.8907  2.0166
   51CHL1   C15 3718   6.321   2.336   7.469 -0.3240 -0.5674 -0.6457
   51CHL1  H15A 3719   6.422   2.319   7.425 -0.9383 -4.3525 -0.9031
   51CHL1  H15B 3720   6.296   2.443   7.449 -1.8205 -1.1426 -2.0595
   51CHL1   C16 3721   6.306   2.295   7.611 -0.4676  0.3685 -0.3096
   51CHL1  H16A 3722   6.408   2.268   7.646 -0.6813 -1.0450 -0.7124
   51CHL1  H16B 3723   6.266   2.364   7.688  0.9762  0.3885  0.4630
   51CHL1   C17 3724   6.214   2.169   7.622 -0.1341  0.4856  0.2643
   51CHL1   H17 3725   6.109   2.201   7.633 -0.3223  0.2980 -0.9224
   51CHL1   C13 3726   6.219   2.115   7.474  0.3262 -0.0640 -1.3564
   51CHL1   C18 3727   6.342   2.029   7.461  0.8783 -0.3176  0.6089
   51CHL1  H18A 3728   6.329   1.927   7.503 -0.4224 -0.6317 -0.4812
   51CHL1  H18B 3729   6.342   2.007   7.352  0.4196  0.7405  0.3840
   51CHL1  H18C 3730   6.441   2.073   7.489  0.6109  0.8838 -0.2802
   51CHL1   C12 3731   6.091   2.047   7.420  0.8488 -0.0131 -0.8193
   51CHL1  H12A 3732   6.076   1.955   7.479 -1.7763  0.7707 -0.1150
   51CHL1  H12B 3733   5.999   2.103   7.449  0.9901  0.3398 -1.0412
   51CHL1   C11 3734   6.103   2.031   7.268 -0.1494  0.4916  0.2989
   51CHL1  H11A 3735   6.184   1.959   7.243  2.1324  2.4351  1.7074
   51CHL1  H11B 3736   6.012   1.975   7.237  0.0693 -0.1940  0.8672
   51CHL1    C9 3737   6.124   2.165   7.198  0.8562 -0.6273 -0.0635
   51CHL1    H9 3738   6.035   2.226   7.223  0.1431 -2.0844  1.0902
   51CHL1   C10 3739   6.139   2.163   7.038 -0.0565  0.2980 -0.1266
   51CHL1   C19 3740   6.244   2.060   7.004  0.5764  0.0853  0.4047
   51CHL1  H19A 3741   6.345   2.066   7.050  1.1131  1.0522 -0.8232
   51CHL1  H19B 3742   6.203   1.958   7.020  0.0368  0.2523  0.1090
   51CHL1  H19C 3743   6.263   2.052   6.895  0.8422  0.7910  0.3921
   51CHL1    C1 3744   6.003   2.115   6.974  0.3225 -0.0234 -0.0243
   51CHL1   H1A 3745   5.971   2.016   7.013  0.8370 -1.1660 -2.3176
   51CHL1   H1B 3746   5.929   2.180   7.025  0.8176 -0.1587  0.8969
   51CHL1    C2 3747   5.997   2.128   6.818 -0.0955 -0.7712  0.2707
   51CHL1   H2A 3748   5.892   2.112   6.783 -0.5069  1.3618  0.3881
   51CHL1   H2B 3749   6.067   2.057   6.770  0.4810  1.1122 -1.8210
   51CHL1   C20 3750   6.244   2.075   7.731 -0.7211 -0.5321  0.2744
   51CHL1   H20 3751   6.337   2.019   7.710 -2.6319 -3.1713 -1.8708
   51CHL1   C21 3752   6.137   1.963   7.748 -0.1872  0.2313  0.2356
   51CHL1  H21A 3753   6.164   1.905   7.839  1.1400 -2.8616 -1.9362
   51CHL1  H21B 3754   6.152   1.901   7.657  1.8385  3.4022 -1.7814
   51CHL1  H21C 3755   6.031   1.994   7.756  0.4483  2.0622  2.6761
   51CHL1   C22 3756   6.258   2.137   7.875  0.0518 -0.2451  0.1901
   51CHL1  H22A 3757   6.294   2.243   7.872 -1.7795  0.4382  1.1010
   51CHL1  H22B 3758   6.156   2.139   7.918 -0.0290  1.2883 -0.0028
   51CHL1   C23 3759   6.349   2.062   7.964  0.1576 -0.1455  0.5521
   51CHL1  H23A 3760   6.325   1.955   7.983  2.6024 -0.3927  2.9953
   51CHL1  H23B 3761   6.453   2.063   7.924  0.3125 -0.5688  0.9298
   51CHL1   C24 3762   6.378   2.127   8.104 -0.1759  0.1887 -0.6315
   51CHL1  H24A 3763   6.425   2.227   8.100  0.0266  0.1421  0.5218
   51CHL1  H24B 3764   6.277   2.136   8.149  0.6404  1.1539  1.0990
   51CHL1   C25 3765   6.466   2.032   8.194  0.4633 -0.4336  0.3528
   51CHL1   H25 3766   6.423   1.930   8.180 -2.4491  0.3083  2.7614
   51CHL1   C26 3767   6.619   2.040   8.164  0.2742 -0.1020  0.1663
   51CHL1  H26A 3768   6.671   2.004   8.255 -0.0079 -0.9756 -0.0160
   51CHL1  H26B 3769   6.634   1.982   8.071  0.4433  1.4433 -0.8169
   51CHL1  H26C 3770   6.652   2.142   8.134 -1.0441  0.7604  1.5177
   51CHL1   C27 3771   6.452   2.059   8.351 -0.0540 -0.2162  0.5076
   51CHL1  H27A 3772   6.493   2.160   8.373  0.9242 -0.2052 -1.2131
   51CHL1  H27B 3773   6.347   2.044   8.386  0.0197 -0.7091  0.5213
   51CHL1  H27C 3774   6.510   1.982   8.405  2.0139  0.4636 -0.6467
   52CHL1    C3 3775   1.384   4.290   7.171 -0.3903  0.1519 -0.1475
   52CHL1    H3 3776   1.489   4.307   7.201 -0.1958 -2.9525  1.4296
   52CHL1    O3 3777   1.365   4.275   7.033 -0.6060 -0.5172  0.0668
   52CHL1   H3' 3778   1.444   4.237   6.993  1.7031  2.0386  1.8276
   52CHL1    C4 3779   1.324   4.170   7.238  0.1125  0.5758 -0.3950
   52CHL1   H4A 3780   1.215   4.164   7.220  0.0201  0.8098  0.0633
   52CHL1   H4B 3781   1.375   4.076   7.210 -2.3193 -1.1526  0.6234
   52CHL1    C5 3782   1.355   4.183   7.388  0.1538  0.2893 -0.2683
   52CHL1    C6 3783   1.417   4.089   7.457 -0.4730  0.6826  0.0734
   52CHL1    H6 3784   1.460   3.998   7.412 -0.6203  0.2407  0.7973
   52CHL1    C7 3785   1.430   4.091   7.604  0.1538  0.3304 -0.6831
   52CHL1   H7A 3786   1.419   3.990   7.648 -0.8187  1.3617  1.5884
   52CHL1   H7B 3787   1.537   4.106   7.631  0.2292 -1.5547  0.2348
   52CHL1    C8 3788   1.335   4.192   7.675  0.0681 -0.5367  0.3694
   52CHL1    H8 3789   1.231   4.155   7.669  0.8347 -2.6080 -2.1761
   52CHL1   C14 3790   1.391   4.208   7.813 -0.2057  0.4802  0.1333
   52CHL1   H14 3791   1.495   4.242   7.792  0.9104 -1.9615  1.3065
   52CHL1   C15 3792   1.428   4.084   7.896 -0.2003 -0.0783 -0.1092
   52CHL1  H15A 3793   1.350   4.005   7.893  1.8778 -2.2847  0.6157
   52CHL1  H15B 3794   1.528   4.036   7.881 -0.4573 -0.5792 -0.2641
   52CHL1   C16 3795   1.444   4.141   8.040  0.1171 -0.1349  0.2500
   52CHL1  H16A 3796   1.378   4.083   8.107  0.5664 -0.9282  0.0185
   52CHL1  H16B 3797   1.549   4.134   8.077  0.8562 -0.5397 -1.8198
   52CHL1   C17 3798   1.414   4.288   8.039 -0.0144 -0.4185  0.1378
   52CHL1   H17 3799   1.510   4.343   8.026 -0.0246 -0.5034 -0.2911
   52CHL1   C13 3800   1.329   4.319   7.905 -0.9862 -0.2589 -0.3041
   52CHL1   C18 3801   1.180   4.292   7.924  0.0683  0.2402 -0.1310
   52CHL1  H18A 3802   1.150   4.200   7.978 -0.4597  0.7036  0.3756
   52CHL1  H18B 3803   1.128   4.377   7.974 -1.4863 -0.0112 -1.2437
   52CHL1  H18C 3804   1.133   4.291   7.823  0.3106 -2.4905 -0.2699
   52CHL1   C12 3805   1.347   4.457   7.831 -0.2482 -0.3485 -0.2035
   52CHL1  H12A 3806   1.304   4.535   7.897  0.3693  0.0069 -0.2177
   52CHL1  H12B 3807   1.453   4.490   7.828 -1.0656  3.1498  2.4831
   52CHL1   C11 3808   1.295   4.452   7.686  0.2606 -0.6916  0.6451
   52CHL1  H11A 3809   1.185   4.448   7.699 -0.0077  1.3641 -0.5624
   52CHL1  H11B 3810   1.328   4.545   7.634  2.1687 -0.2009  2.5790
   52CHL1    C9 3811   1.345   4.331   7.604  0.0060  0.0700  0.4353
   52CHL1    H9 3812   1.454   4.347   7.590 -0.5138  1.9173 -2.2065
   52CHL1   C10 3813   1.292   4.314   7.454 -0.1848  0.8660 -0.4172
   52CHL1   C19 3814   1.135   4.302   7.467  0.0185  0.1418  0.3860
   52CHL1  H19A 3815   1.103   4.228   7.543  2.8234 -2.0827 -0.3985
   52CHL1  H19B 3816   1.090   4.398   7.500 -0.6921 -0.2257  0.5167
   52CHL1  H19C 3817   1.090   4.277   7.368 -1.1676  0.3187  0.8649
   52CHL1    C1 3818   1.327   4.436   7.366  0.9325 -0.7122 -0.2905
   52CHL1   H1A 3819   1.273   4.528   7.397 -1.0419 -1.0883 -2.3399
   52CHL1   H1B 3820   1.435   4.458   7.381  0.6101  0.5233  0.3462
   52CHL1    C2 3821   1.305   4.410   7.221  0.2760  0.7947  0.3453
   52CHL1   H2A 3822   1.339   4.498   7.163  2.0885  0.4702  0.8758
   52CHL1   H2B 3823   1.199   4.387   7.197  0.4887 -0.3349  0.4155
   52CHL1   C20 3824   1.363   4.338   8.173 -0.3567  0.3164  0.5230
   52CHL1   H20 3825   1.263   4.292   8.191 -1.7110  2.4691 -1.0194
   52CHL1   C21 3826   1.344   4.492   8.174  0.4931 -0.0340  0.0390
   52CHL1  H21A 3827   1.252   4.503   8.112 -0.7211 -5.5971  0.4061
   52CHL1  H21B 3828   1.434   4.549   8.145 -0.6910  2.4288  0.8954
   52CHL1  H21C 3829   1.304   4.521   8.273  1.6306  0.9759  0.2248
   52CHL1   C22 3830   1.458   4.300   8.288  0.1397  0.0017  0.1370
   52CHL1  H22A 3831   1.486   4.194   8.274  0.3891 -0.1541  1.7061
   52CHL1  H22B 3832   1.558   4.348   8.285  0.3802 -0.4784  0.4238
   52CHL1   C23 3833   1.403   4.331   8.426  0.1364 -0.0440 -0.9453
   52CHL1  H23A 3834   1.386   4.437   8.452  0.0880 -0.1585 -0.5098
   52CHL1  H23B 3835   1.306   4.278   8.432 -0.6674  1.5354  3.4893
   52CHL1   C24 3836   1.490   4.262   8.535 -0.2015 -0.5274 -0.1549
   52CHL1  H24A 3837   1.529   4.163   8.502  2.3789  0.2783  0.2935
   52CHL1  H24B 3838   1.577   4.329   8.552 -1.5746  1.4479 -0.5654
   52CHL1   C25 3839   1.416   4.244   8.679 -0.5105  0.2740  0.4669
   52CHL1   H25 3840   1.345   4.162   8.655  0.3206 -0.1070 -0.8324
   52CHL1   C26 3841   1.513   4.176   8.784  0.8434  0.6050  0.0885
   52CHL1  H26A 3842   1.601   4.240   8.809 -0.5961  3.0905 -0.8090
   52CHL1  H26B 3843   1.447   4.154   8.871  0.4534  0.7869 -0.1629
   52CHL1  H26C 3844   1.554   4.084   8.739  1.5330  0.6796  0.5376
   52CHL1   C27 3845   1.358   4.376   8.726 -0.6282  0.3483  0.5648
   52CHL1  H27A 3846   1.295   4.416   8.643 -2.3538 -0.8652  1.2354
   52CHL1  H27B 3847   1.293   4.346   8.811 -1.0408  0.1710  0.1912
   52CHL1  H27C 3848   1.442   4.443   8.752 -0.0448 -0.0050 -0.3809
   53CHL1    C3 3849   4.798   0.329   7.379 -0.0268 -0.0331  0.3519
   53CHL1    H3 3850   4.847   0.234   7.411  0.0484 -0.7302 -1.6409
   53CHL1    O3 3851   4.733   0.313   7.254 -0.4867 -0.3173 -0.2427
   53CHL1   H3' 3852   4.789   0.355   7.188 -1.2041 -0.8484 -1.2123
   53CHL1    C4 3853   4.677   0.354   7.474 -0.6928  0.1433  0.5540
   53CHL1   H4A 3854   4.612   0.437   7.440 -2.1847 -1.9196 -1.8935
   53CHL1   H4B 3855   4.609   0.266   7.478  0.0841 -0.6539 -2.1672
   53CHL1    C5 3856   4.737   0.386   7.617  0.1312  0.0006  0.1386
   53CHL1    C6 3857   4.704   0.310   7.725 -0.0749  0.9076 -0.0127
   53CHL1    H6 3858   4.630   0.232   7.705 -0.4709  1.3617 -0.3297
   53CHL1    C7 3859   4.755   0.337   7.865  0.9142  0.0495 -0.8184
   53CHL1   H7A 3860   4.667   0.339   7.932  0.5257 -0.5447 -1.2998
   53CHL1   H7B 3861   4.821   0.252   7.894  1.5793  1.4356  2.0967
   53CHL1    C8 3862   4.821   0.479   7.873 -0.5851  0.1601 -0.6089
   53CHL1    H8 3863   4.751   0.565   7.878  1.9243  2.2519  1.3785
   53CHL1   C14 3864   4.911   0.481   8.004  0.0464 -0.1412 -0.2910
   53CHL1   H14 3865   4.990   0.404   7.994 -0.3998 -0.9076  1.6451
   53CHL1   C15 3866   4.825   0.451   8.129  0.2627  0.2794  0.1223
   53CHL1  H15A 3867   4.725   0.495   8.112 -0.6822 -0.5097  3.0074
   53CHL1  H15B 3868   4.818   0.341   8.147 -1.6703  0.3180 -0.2457
   53CHL1   C16 3869   4.916   0.511   8.237 -0.1267  0.0748  0.0657
   53CHL1  H16A 3870   4.859   0.580   8.304 -3.7430 -3.6117  1.1564
   53CHL1  H16B 3871   4.954   0.430   8.303 -0.7486  0.8721  1.4590
   53CHL1   C17 3872   5.040   0.588   8.168  0.3864 -0.0539  0.4394
   53CHL1   H17 3873   5.125   0.520   8.150  2.1824  1.8933  1.1838
   53CHL1   C13 3874   4.977   0.616   8.029 -0.3477  0.4548  0.0377
   53CHL1   C18 3875   4.871   0.728   8.042  0.1993 -0.3535  0.2735
   53CHL1  H18A 3876   4.925   0.824   8.050 -0.4531 -0.0829  1.7321
   53CHL1  H18B 3877   4.830   0.739   7.939  1.5252 -1.5010 -0.4010
   53CHL1  H18C 3878   4.788   0.721   8.116  0.2726  1.0134  0.5199
   53CHL1   C12 3879   5.074   0.643   7.922 -1.0015  0.0865 -0.0130
   53CHL1  H12A 3880   5.110   0.747   7.940 -1.0336 -0.0768  1.0785
   53CHL1  H12B 3881   5.157   0.570   7.932 -0.4849  0.3663 -1.8648
   53CHL1   C11 3882   5.018   0.618   7.774  0.0343 -0.5542 -0.1012
   53CHL1  H11A 3883   4.966   0.711   7.741 -2.1857 -1.9192 -0.6679
   53CHL1  H11B 3884   5.112   0.594   7.719  2.2739  0.0681  3.1287
   53CHL1    C9 3885   4.916   0.502   7.752  0.3591  0.4426  0.5559
   53CHL1    H9 3886   4.984   0.414   7.752  0.0967  0.2313 -0.0906
   53CHL1   C10 3887   4.835   0.498   7.621 -1.0834 -0.4416 -0.1585
   53CHL1   C19 3888   4.768   0.633   7.599 -0.3742 -0.2826 -0.0525
   53CHL1  H19A 3889   4.678   0.655   7.661  1.3400  2.3158  1.7000
   53CHL1  H19B 3890   4.839   0.717   7.607  0.4733 -1.0717  0.9877
   53CHL1  H19C 3891   4.726   0.636   7.496  0.1589 -0.3843 -0.2741
   53CHL1    C1 3892   4.937   0.478   7.506 -0.0487 -0.4321 -0.7197
   53CHL1   H1A 3893   5.015   0.555   7.488 -0.1200 -0.2529 -0.2704
   53CHL1   H1B 3894   4.998   0.390   7.537  0.6037  0.6758  1.3516
   53CHL1    C2 3895   4.887   0.447   7.368 -0.6504  0.0903 -0.1132
   53CHL1   H2A 3896   4.964   0.425   7.291 -0.9278 -2.2540  0.2062
   53CHL1   H2B 3897   4.829   0.533   7.328  1.0292  1.5687  0.4347
   53CHL1   C20 3898   5.103   0.696   8.256  0.3417  0.0376 -0.0467
   53CHL1   H20 3899   5.026   0.774   8.277  0.4501  0.1534 -0.0837
   53CHL1   C21 3900   5.219   0.770   8.182 -0.4008 -0.6455  0.6016
   53CHL1  H21A 3901   5.182   0.840   8.104 -1.1002 -0.8165  0.7722
   53CHL1  H21B 3902   5.300   0.705   8.143  1.2386  1.1528  0.8502
   53CHL1  H21C 3903   5.274   0.828   8.259  0.0585  1.2377 -1.0498
   53CHL1   C22 3904   5.145   0.647   8.401  0.5731 -0.2867  0.8007
   53CHL1  H22A 3905   5.070   0.571   8.430 -0.2969  0.0216 -0.5721
   53CHL1  H22B 3906   5.235   0.583   8.391 -0.1779 -1.3579  0.8371
   53CHL1   C23 3907   5.161   0.759   8.502 -0.6628 -1.0774 -0.1286
   53CHL1  H23A 3908   5.234   0.837   8.472  0.6140 -1.5373  1.6150
   53CHL1  H23B 3909   5.067   0.800   8.546 -0.5859 -1.7479  0.6894
   53CHL1   C24 3910   5.233   0.712   8.632 -0.7468 -0.3365 -0.9466
   53CHL1  H24A 3911   5.169   0.640   8.687  0.1930 -1.2524 -1.0237
   53CHL1  H24B 3912   5.325   0.650   8.623  0.5990  0.5119  3.9960
   53CHL1   C25 3913   5.289   0.834   8.721 -0.2429 -0.8456 -0.1885
   53CHL1   H25 3914   5.344   0.899   8.651 -1.8852  1.4406  0.5143
   53CHL1   C26 3915   5.169   0.909   8.784  0.3494 -0.3984  0.7211
   53CHL1  H26A 3916   5.214   0.990   8.844 -0.1430 -0.2334  0.8708
   53CHL1  H26B 3917   5.103   0.958   8.708  2.6326  1.4728 -0.1600
   53CHL1  H26C 3918   5.107   0.842   8.848  1.8018 -1.2645  1.2553
   53CHL1   C27 3919   5.368   0.788   8.844 -0.1767 -0.1317  0.2196
   53CHL1  H27A 3920   5.308   0.730   8.918  0.2664  0.1570  0.8135
   53CHL1  H27B 3921   5.448   0.724   8.802  0.1441 -1.2123  2.3540
   53CHL1  H27C 3922   5.418   0.873   8.894  0.1189 -0.9989  1.4510
   54CHL1    C3 3923   4.902   2.131   7.201 -0.1079 -0.5410 -0.4957
   54CHL1    H3 3924   5.000   2.165   7.240  0.6675 -1.3266 -1.6651
   54CHL1    O3 3925   4.912   2.129   7.058  0.5094 -0.4425  0.2486
   54CHL1   H3' 3926   4.983   2.190   7.037 -1.0743  1.3773 -0.0334
   54CHL1    C4 3927   4.871   1.996   7.265  0.2497  0.3796  0.8722
   54CHL1   H4A 3928   4.786   1.963   7.202 -0.3461 -2.2841  2.9089
   54CHL1   H4B 3929   4.951   1.925   7.238  0.5355  1.2929 -0.8436
   54CHL1    C5 3930   4.837   2.006   7.409 -0.4868 -0.9843 -0.2159
   54CHL1    C6 3931   4.899   1.933   7.497  0.5405 -0.3608 -0.3982
   54CHL1    H6 3932   4.953   1.844   7.462  0.5483 -0.2831 -0.5876
   54CHL1    C7 3933   4.867   1.937   7.640 -0.5440 -0.3822  0.1406
   54CHL1   H7A 3934   4.868   1.842   7.698 -0.8296 -0.7146 -0.3925
   54CHL1   H7B 3935   4.945   2.001   7.687  1.6996 -0.8946 -2.6371
   54CHL1    C8 3936   4.736   2.010   7.684 -0.0712  1.1137 -0.4503
   54CHL1    H8 3937   4.648   1.944   7.663  0.3595 -0.2318  1.6573
   54CHL1   C14 3938   4.743   2.042   7.836 -1.1417  0.7113  0.4490
   54CHL1   H14 3939   4.829   2.111   7.849 -1.9945  1.6492  1.2350
   54CHL1   C15 3940   4.776   1.933   7.937 -1.0554  0.0139 -0.2792
   54CHL1  H15A 3941   4.723   1.836   7.928  1.7099 -1.8752  2.0415
   54CHL1  H15B 3942   4.883   1.905   7.929 -1.3754 -1.0203 -1.1774
   54CHL1   C16 3943   4.748   1.992   8.075  0.5134  0.2798 -0.1890
   54CHL1  H16A 3944   4.676   1.935   8.137  1.4047  0.5036  1.0981
   54CHL1  H16B 3945   4.846   2.003   8.126  0.0788  2.0509  0.3557
   54CHL1   C17 3946   4.679   2.131   8.036  0.3808  0.7373  0.2808
   54CHL1   H17 3947   4.762   2.205   8.038  0.6211  0.4831 -0.1625
   54CHL1   C13 3948   4.623   2.112   7.889 -0.1641  0.1455  0.1702
   54CHL1   C18 3949   4.491   2.020   7.889 -0.0626  0.4319  0.1588
   54CHL1  H18A 3950   4.519   1.919   7.928  1.7187  1.0734  0.6392
   54CHL1  H18B 3951   4.413   2.072   7.948  0.4929  2.1903 -0.5994
   54CHL1  H18C 3952   4.466   2.007   7.782 -0.6444 -0.0936  0.3517
   54CHL1   C12 3953   4.604   2.248   7.807 -0.4261 -0.3069  0.4886
   54CHL1  H12A 3954   4.528   2.315   7.853  2.2236  1.9110  1.8873
   54CHL1  H12B 3955   4.690   2.315   7.826 -1.5339  1.7438 -1.3348
   54CHL1   C11 3956   4.593   2.220   7.656  0.2824  0.2153 -0.4507
   54CHL1  H11A 3957   4.494   2.172   7.643  0.2084 -0.5517  2.2697
   54CHL1  H11B 3958   4.595   2.319   7.605  0.8794  0.8044  0.6598
   54CHL1    C9 3959   4.721   2.143   7.606 -0.5606  0.5245 -0.2235
   54CHL1    H9 3960   4.806   2.204   7.643  0.6402 -1.6363  0.8111
   54CHL1   C10 3961   4.740   2.121   7.455 -0.1155 -0.0029  0.6323
   54CHL1   C19 3962   4.609   2.075   7.391 -0.9918 -0.4810  0.2715
   54CHL1  H19A 3963   4.565   1.986   7.441 -3.4491  0.3500 -0.2643
   54CHL1  H19B 3964   4.535   2.157   7.402  0.2207  0.3539  3.1585
   54CHL1  H19C 3965   4.628   2.053   7.283 -0.5203 -0.0276  0.2584
   54CHL1    C1 3966   4.781   2.253   7.389  0.6364  0.2840  0.5010
   54CHL1   H1A 3967   4.710   2.335   7.412  2.5705  1.8058  1.2969
   54CHL1   H1B 3968   4.880   2.278   7.432  2.3728 -1.1487 -2.3615
   54CHL1    C2 3969   4.802   2.240   7.241 -0.1756  0.2355  0.3330
   54CHL1   H2A 3970   4.832   2.339   7.199 -2.4820  0.6752 -0.4168
   54CHL1   H2B 3971   4.702   2.221   7.196  1.0534 -0.4881 -2.2966
   54CHL1   C20 3972   4.586   2.185   8.148  0.5238  0.4984  0.1368
   54CHL1   H20 3973   4.500   2.115   8.157  0.6938  0.3280  0.4400
   54CHL1   C21 3974   4.527   2.324   8.126 -0.0357  0.1111 -0.4479
   54CHL1  H21A 3975   4.456   2.321   8.040  0.8634 -0.9289 -1.1941
   54CHL1  H21B 3976   4.598   2.400   8.086 -3.1441  1.9795 -2.9344
   54CHL1  H21C 3977   4.462   2.363   8.206  1.6051  1.0071  0.4982
   54CHL1   C22 3978   4.655   2.177   8.284 -0.5039  0.1972 -0.3167
   54CHL1  H22A 3979   4.688   2.073   8.301 -0.6457  0.4671  1.8106
   54CHL1  H22B 3980   4.745   2.241   8.296 -0.5920  0.2288  0.2095
   54CHL1   C23 3981   4.577   2.227   8.410  0.3011  0.1401 -0.3086
   54CHL1  H23A 3982   4.542   2.331   8.389 -0.6024 -0.3854 -1.5438
   54CHL1  H23B 3983   4.496   2.154   8.434  0.9022  0.2582  2.4426
   54CHL1   C24 3984   4.667   2.215   8.530 -0.5387 -0.3360 -1.1208
   54CHL1  H24A 3985   4.710   2.113   8.534  0.2975  0.0546  1.4038
   54CHL1  H24B 3986   4.754   2.284   8.534 -0.3221 -0.6192 -0.9061
   54CHL1   C25 3987   4.578   2.233   8.660  0.3655  0.0716  0.5583
   54CHL1   H25 3988   4.492   2.166   8.638 -0.3279  1.4860 -1.2573
   54CHL1   C26 3989   4.650   2.182   8.787 -1.3326  0.0791 -0.4004
   54CHL1  H26A 3990   4.747   2.236   8.792 -1.3485  0.0998 -0.3257
   54CHL1  H26B 3991   4.597   2.196   8.883  2.3242 -0.9052  1.9717
   54CHL1  H26C 3992   4.678   2.076   8.771  0.5609  0.5152 -0.2693
   54CHL1   C27 3993   4.519   2.373   8.671 -0.4019  0.4633  0.1133
   54CHL1  H27A 3994   4.459   2.366   8.764 -2.4324  0.0788 -1.1580
   54CHL1  H27B 3995   4.597   2.447   8.699 -0.4839  0.6402 -0.1182
   54CHL1  H27C 3996   4.458   2.403   8.583 -3.0413  0.3375  1.7828
   55CHL1    C3 3997   5.174   2.432   7.278  1.0430 -0.0196 -0.4442
   55CHL1    H3 3998   5.077   2.379   7.270  1.5972 -1.1775  0.2501
   55CHL1    O3 3999   5.203   2.481   7.151  0.5700 -0.3597 -0.5341
   55CHL1   H3' 4000   5.288   2.524   7.162 -0.0618  0.4653  2.1364
   55CHL1    C4 4001   5.161   2.543   7.383  0.3358 -0.7559  0.0241
   55CHL1   H4A 4002   5.254   2.604   7.382  0.2569 -0.6296  0.3833
   55CHL1   H4B 4003   5.086   2.615   7.345  0.7995 -0.5594 -0.5339
   55CHL1    C5 4004   5.137   2.496   7.524  0.4400  0.1252  0.0496
   55CHL1    C6 4005   5.038   2.546   7.599 -0.8435 -0.5076  0.1650
   55CHL1    H6 4006   4.965   2.619   7.563 -1.4932  0.4279  3.1379
   55CHL1    C7 4007   5.013   2.499   7.740 -0.4477 -0.2769  0.1288
   55CHL1   H7A 4008   4.995   2.574   7.820 -1.0530 -2.9544  2.7024
   55CHL1   H7B 4009   4.925   2.431   7.748 -0.5086 -0.3618 -1.0947
   55CHL1    C8 4010   5.128   2.410   7.799 -0.1913  0.0809  0.0628
   55CHL1    H8 4011   5.215   2.473   7.828  0.1373  0.9319 -2.5157
   55CHL1   C14 4012   5.076   2.327   7.918  0.5101 -0.2240  0.8738
   55CHL1   H14 4013   4.998   2.262   7.872  0.8342 -0.8569  1.2093
   55CHL1   C15 4014   4.997   2.410   8.024 -0.1794 -0.0756 -1.2014
   55CHL1  H15A 4015   5.051   2.504   8.047 -0.1191 -0.2844 -0.4336
   55CHL1  H15B 4016   4.894   2.431   7.989 -2.0045 -1.7381  2.6303
   55CHL1   C16 4017   4.996   2.314   8.141  0.1114  0.0412  0.2982
   55CHL1  H16A 4018   5.042   2.360   8.231  0.4598  0.3050 -0.0147
   55CHL1  H16B 4019   4.892   2.284   8.166 -0.5393  0.7764 -1.3418
   55CHL1   C17 4020   5.086   2.189   8.098  0.0693  0.0320  0.3647
   55CHL1   H17 4021   5.015   2.116   8.054 -1.4745 -0.3032  3.1320
   55CHL1   C13 4022   5.180   2.241   7.988  0.3997  0.0381 -0.7300
   55CHL1   C18 4023   5.305   2.328   8.042 -0.4728 -0.1168  0.3436
   55CHL1  H18A 4024   5.367   2.263   8.107 -0.5751 -0.9564 -0.3863
   55CHL1  H18B 4025   5.365   2.371   7.959  2.0678 -0.9722  1.6360
   55CHL1  H18C 4026   5.264   2.408   8.107 -1.0317 -0.0722 -0.0567
   55CHL1   C12 4027   5.229   2.135   7.891  0.1376 -0.2532  0.2512
   55CHL1  H12A 4028   5.313   2.073   7.929 -1.7572 -2.9897  0.2723
   55CHL1  H12B 4029   5.150   2.065   7.856  1.2869 -1.9076  0.8399
   55CHL1   C11 4030   5.279   2.204   7.760  0.2448  0.3143 -0.3354
   55CHL1  H11A 4031   5.380   2.248   7.770 -0.5762  2.6331 -1.3468
   55CHL1  H11B 4032   5.288   2.117   7.691  2.1855 -0.5774  0.9690
   55CHL1    C9 4033   5.180   2.309   7.700 -0.8600 -0.7763  0.2795
   55CHL1    H9 4034   5.093   2.249   7.666 -0.3624 -0.7172 -1.1563
   55CHL1   C10 4035   5.233   2.384   7.571 -0.3189  0.2565  0.1695
   55CHL1   C19 4036   5.374   2.448   7.597 -0.5536 -0.9150 -0.4114
   55CHL1  H19A 4037   5.446   2.367   7.623  0.7575  0.1274 -0.6638
   55CHL1  H19B 4038   5.413   2.510   7.514 -0.6538  1.5689  1.2960
   55CHL1  H19C 4039   5.366   2.521   7.680  1.8284  0.1100 -1.0069
   55CHL1    C1 4040   5.252   2.278   7.461 -0.2370 -0.3723 -0.5095
   55CHL1   H1A 4041   5.336   2.207   7.479  0.2451  0.5295  1.0216
   55CHL1   H1B 4042   5.155   2.225   7.448 -1.6522  1.8652  0.3913
   55CHL1    C2 4043   5.285   2.339   7.319 -0.6341 -0.0320  0.0546
   55CHL1   H2A 4044   5.305   2.261   7.243  0.4844 -0.0005  0.2880
   55CHL1   H2B 4045   5.378   2.396   7.339 -0.8925 -0.4889  3.0863
   55CHL1   C20 4046   5.141   2.117   8.219  0.2888 -0.4993 -0.3818
   55CHL1   H20 4047   5.214   2.190   8.261 -2.0987  1.6919  0.1734
   55CHL1   C21 4048   5.200   1.985   8.175  0.6450  1.1287 -0.0823
   55CHL1  H21A 4049   5.127   1.928   8.114 -1.4122  2.5529  0.9410
   55CHL1  H21B 4050   5.236   1.927   8.262  1.0628  2.5408  0.7201
   55CHL1  H21C 4051   5.289   2.004   8.111  1.1706 -2.3589 -0.5726
   55CHL1   C22 4052   5.034   2.089   8.333  0.3436 -0.1183 -0.6489
   55CHL1  H22A 4053   4.966   2.177   8.340  1.2662  0.4897  1.6311
   55CHL1  H22B 4054   4.972   1.999   8.317  1.0650 -0.9065  0.7278
   55CHL1   C23 4055   5.111   2.074   8.466  0.0646  0.3132 -0.1670
   55CHL1  H23A 4056   5.171   1.981   8.457 -2.2450 -1.0936 -2.0489
   55CHL1  H23B 4057   5.174   2.165   8.478  2.5378 -1.4604  1.3412
   55CHL1   C24 4058   5.018   2.051   8.589 -0.2306 -0.5465 -0.1336
   55CHL1  H24A 4059   4.954   2.141   8.591 -1.2712 -1.2724  0.7117
   55CHL1  H24B 4060   4.952   1.965   8.562 -0.4257 -0.1812 -0.8290
   55CHL1   C25 4061   5.101   2.036   8.716 -0.2092  0.3096  0.1450
   55CHL1   H25 4062   5.187   2.105   8.718 -0.4874  0.8217 -2.4538
   55CHL1   C26 4063   5.007   2.066   8.835  0.6660 -0.6456  0.2219
   55CHL1  H26A 4064   5.054   2.052   8.935 -1.9269 -0.4201  1.5532
   55CHL1  H26B 4065   4.963   2.167   8.827 -1.0535 -1.2918  0.9910
   55CHL1  H26C 4066   4.915   2.003   8.830 -0.5888  1.2028 -3.2528
   55CHL1   C27 4067   5.160   1.890   8.736 -0.0505 -0.3520 -0.5002
   55CHL1  H27A 4068   5.076   1.817   8.727 -1.1214  0.8320 -0.3316
   55CHL1  H27B 4069   5.238   1.869   8.660  1.2155 -2.4492  1.2609
   55CHL1  H27C 4070   5.213   1.889   8.834 -0.6196 -2.1203 -0.1755
   56CHL1    C3 4071   4.582   1.167   7.064  0.6336  0.3009  0.0763
   56CHL1    H3 4072   4.552   1.274   7.071  1.2921  0.5725 -1.1041
   56CHL1    O3 4073   4.627   1.129   6.930  0.0951 -0.0668 -0.4501
   56CHL1   H3' 4074   4.645   1.035   6.940 -0.0883  0.1066  2.1475
   56CHL1    C4 4075   4.709   1.154   7.158 -0.1096  0.2732  0.0965
   56CHL1   H4A 4076   4.753   1.054   7.134 -1.8936 -0.1674 -1.6131
   56CHL1   H4B 4077   4.787   1.222   7.118 -0.2820  0.3782 -0.0600
   56CHL1    C5 4078   4.677   1.167   7.306  0.0465 -0.3482 -0.3082
   56CHL1    C6 4079   4.738   1.258   7.379 -0.1924  0.9954 -0.3629
   56CHL1    H6 4080   4.818   1.314   7.328  1.3802 -0.4969  0.3431
   56CHL1    C7 4081   4.713   1.278   7.524  0.4685 -0.0085  0.2692
   56CHL1   H7A 4082   4.811   1.294   7.573  0.3021  1.8588  0.0438
   56CHL1   H7B 4083   4.645   1.363   7.545  0.6665 -0.1270  1.4080
   56CHL1    C8 4084   4.639   1.154   7.581  0.0292  0.2173 -0.2149
   56CHL1    H8 4085   4.704   1.064   7.571 -0.8052 -0.7402  2.2830
   56CHL1   C14 4086   4.615   1.175   7.731 -0.1639 -0.4068  0.6214
   56CHL1   H14 4087   4.552   1.265   7.748  2.1850  1.4713 -0.0550
   56CHL1   C15 4088   4.733   1.198   7.826 -0.0993 -0.2397  0.2142
   56CHL1  H15A 4089   4.818   1.131   7.804  1.1983  1.5378 -0.3906
   56CHL1  H15B 4090   4.762   1.305   7.830  0.2759 -0.3530  0.5392
   56CHL1   C16 4091   4.670   1.160   7.964 -0.2303 -0.3122  0.4411
   56CHL1  H16A 4092   4.742   1.095   8.018 -0.6813 -1.1399  0.0547
   56CHL1  H16B 4093   4.667   1.249   8.031  2.2665 -0.6127  1.0381
   56CHL1   C17 4094   4.533   1.092   7.947 -0.1756  0.0751 -0.2401
   56CHL1   H17 4095   4.449   1.164   7.950 -0.9498 -0.8297  1.2728
   56CHL1   C13 4096   4.536   1.054   7.787 -0.0741  0.6321 -0.4050
   56CHL1   C18 4097   4.620   0.924   7.776  0.5722 -0.4928 -0.3006
   56CHL1  H18A 4098   4.645   0.908   7.669  1.2640  1.0459 -0.3933
   56CHL1  H18B 4099   4.710   0.935   7.842 -0.1260  1.8292  0.3819
   56CHL1  H18C 4100   4.564   0.832   7.801  0.8363 -0.0485  2.1997
   56CHL1   C12 4101   4.406   1.041   7.716  0.7144  0.1045  0.7160
   56CHL1  H12A 4102   4.341   0.956   7.747  1.3669 -1.6182 -2.2633
   56CHL1  H12B 4103   4.342   1.130   7.733 -2.9183 -2.3220  0.9267
   56CHL1   C11 4104   4.416   1.020   7.562 -1.0088 -0.1095  0.0505
   56CHL1  H11A 4105   4.446   0.914   7.555 -0.0047  0.2154 -0.8310
   56CHL1  H11B 4106   4.318   1.027   7.510 -1.0852 -2.0064 -0.1119
   56CHL1    C9 4107   4.510   1.118   7.499 -0.3615 -0.4833  0.0290
   56CHL1    H9 4108   4.455   1.213   7.489  0.8685  0.5454  2.3156
   56CHL1   C10 4109   4.563   1.078   7.354 -0.1099 -0.5212  0.3592
   56CHL1   C19 4110   4.609   0.928   7.345  0.2896  0.1375  0.5500
   56CHL1  H19A 4111   4.529   0.865   7.388 -1.6539  2.0825 -0.0328
   56CHL1  H19B 4112   4.621   0.906   7.237  0.3639  0.7148  0.4366
   56CHL1  H19C 4113   4.704   0.911   7.401  0.5957 -2.2438 -0.5745
   56CHL1    C1 4114   4.438   1.092   7.259 -0.2728 -0.2588 -0.4924
   56CHL1   H1A 4115   4.377   1.004   7.292 -0.3453 -0.2724 -0.6636
   56CHL1   H1B 4116   4.386   1.186   7.285 -0.0762  0.0831 -1.3262
   56CHL1    C2 4117   4.469   1.079   7.110  0.4624 -0.3711 -0.3200
   56CHL1   H2A 4118   4.380   1.101   7.047 -0.7296  0.7674  1.6327
   56CHL1   H2B 4119   4.490   0.972   7.093 -1.0063 -0.4622 -1.8327
   56CHL1   C20 4120   4.507   0.981   8.050 -0.6454  0.3872  0.6795
   56CHL1   H20 4121   4.576   0.898   8.022 -0.8058  0.5820 -0.2977
   56CHL1   C21 4122   4.365   0.942   8.040 -0.1809 -0.6616 -0.4783
   56CHL1  H21A 4123   4.295   1.026   8.022 -1.1992 -1.0429  1.3919
   56CHL1  H21B 4124   4.333   0.886   8.131  0.4229 -0.8312 -0.3619
   56CHL1  H21C 4125   4.354   0.868   7.958  0.6210  1.4434 -2.5976
   56CHL1   C22 4126   4.542   1.015   8.200 -0.4914  0.1843  0.8576
   56CHL1  H22A 4127   4.517   0.925   8.261 -0.3584 -0.0155  0.6145
   56CHL1  H22B 4128   4.653   1.025   8.206 -0.3507  0.7543 -1.7925
   56CHL1   C23 4129   4.480   1.143   8.254 -0.1518  0.0072  0.2482
   56CHL1  H23A 4130   4.518   1.238   8.212 -1.4015  0.4901  0.1582
   56CHL1  H23B 4131   4.372   1.157   8.233 -0.2394 -0.4445  0.3778
   56CHL1   C24 4132   4.501   1.160   8.409 -0.5949 -0.8673  0.4371
   56CHL1  H24A 4133   4.485   1.058   8.451 -1.9835 -0.7357  0.2742
   56CHL1  H24B 4134   4.610   1.178   8.418 -1.0187  1.2082  2.0408
   56CHL1   C25 4135   4.406   1.250   8.490  0.3294  0.6738 -0.0964
   56CHL1   H25 4136   4.314   1.194   8.514  0.1629  1.4476  1.1109
   56CHL1   C26 4137   4.475   1.265   8.620 -0.2690 -0.0801 -0.7939
   56CHL1  H26A 4138   4.514   1.168   8.657  0.7042 -0.0950 -1.8156
   56CHL1  H26B 4139   4.406   1.295   8.702  1.4028 -1.7085  1.3262
   56CHL1  H26C 4140   4.550   1.346   8.613 -1.1944  1.1174  1.7747
   56CHL1   C27 4141   4.372   1.385   8.428  0.2550 -0.0476  0.0995
   56CHL1  H27A 4142   4.466   1.436   8.398 -0.4483  0.6207 -1.1007
   56CHL1  H27B 4143   4.325   1.376   8.327  0.6815  1.2158 -0.2342
   56CHL1  H27C 4144   4.319   1.457   8.494  1.5307  0.0118  1.0848
   57SAPC     N 4145   4.552   6.100  11.000  0.2243 -0.2668 -0.4001
   57SAPC   C12 4146   4.681   6.168  10.967  0.5346 -0.0564 -0.2129
   57SAPC  H12A 4147   4.757   6.134  11.036 -0.2336 -1.6094 -0.0742
   57SAPC  H12B 4148   4.672   6.272  10.996  0.1540 -0.3741  0.8663
   57SAPC   C13 4149   4.569   5.950  11.009  0.1098  0.6201  0.3251
   57SAPC  H13A 4150   4.612   5.914  10.916  0.1259 -2.5609  1.4635
   57SAPC  H13B 4151   4.640   5.912  11.080 -0.0757 -0.7119 -0.1771
   57SAPC  H13C 4152   4.481   5.891  11.030  1.4695 -1.6806 -0.0656
   57SAPC   C14 4153   4.517   6.138  11.143 -0.2238 -0.5877  0.0612
   57SAPC  H14A 4154   4.462   6.231  11.142 -0.4383 -0.7019  0.6701
   57SAPC  H14B 4155   4.440   6.070  11.178 -0.7437 -0.7408 -1.3211
   57SAPC  H14C 4156   4.599   6.148  11.212 -0.6937  1.3736  0.4059
   57SAPC   C15 4157   4.433   6.136  10.908 -0.1185  0.4357 -0.6855
   57SAPC  H15A 4158   4.418   6.244  10.909  3.5723  1.0748 -1.2240
   57SAPC  H15B 4159   4.452   6.110  10.805 -0.2355  0.6653 -0.7656
   57SAPC  H15C 4160   4.342   6.092  10.945  1.5404 -1.4672  1.3424
   57SAPC   C11 4161   4.724   6.160  10.822 -0.0016  0.6275  0.1965
   57SAPC  H11A 4162   4.792   6.246  10.806 -0.9076  1.0016 -2.0420
   57SAPC  H11B 4163   4.645   6.177  10.746 -0.3354 -1.4547  0.0353
   57SAPC     P 4164   4.936   6.006  10.823  0.2900 -0.5585  0.3114
   57SAPC   O13 4165   4.992   6.128  10.891  0.0498 -0.1507  0.0824
   57SAPC   O14 4166   4.941   5.877  10.894 -0.2329 -0.5502 -0.1160
   57SAPC   O12 4167   4.793   6.041  10.786  0.4766  0.1190 -0.1257
   57SAPC   O11 4168   5.008   5.990  10.683 -0.2423  0.3197 -0.3936
   57SAPC    C1 4169   4.969   5.893  10.588  0.8208  0.8119  0.2947
   57SAPC    HA 4170   5.061   5.839  10.559 -0.5553  0.0470 -3.1422
   57SAPC    HB 4171   4.908   5.817  10.643  0.8841  2.0157  2.1188
   57SAPC    C2 4172   4.891   5.940  10.471  0.5463 -0.6303 -0.1106
   57SAPC    HS 4173   4.797   5.985  10.508 -0.3916 -1.1112 -1.7809
   57SAPC   O21 4174   4.859   5.835  10.377  0.1926  0.3562 -0.1845
   57SAPC   C21 4175   4.766   5.746  10.417  0.0420  0.6211  0.7271
   57SAPC   O22 4176   4.719   5.740  10.525  0.0426  0.3928 -0.7022
   57SAPC   C22 4177   4.721   5.654  10.300 -1.2357  0.0145  0.1878
   57SAPC   H2R 4178   4.614   5.663  10.272 -2.2531 -1.9029  3.0284
   57SAPC   H2S 4179   4.794   5.678  10.220  0.0761 -2.7532  0.4494
   57SAPC    C3 4180   4.962   6.055  10.398  0.2901  0.1211  0.1537
   57SAPC    HX 4181   5.061   6.018  10.362 -0.1907 -0.2811 -0.7994
   57SAPC    HY 4182   4.977   6.136  10.473 -0.5770  0.8167 -0.4110
   57SAPC   O31 4183   4.894   6.103  10.286  0.0807  0.0232 -0.2845
   57SAPC   C31 4184   4.792   6.184  10.320 -0.1551 -0.0961 -0.5759
   57SAPC   O32 4185   4.759   6.197  10.437 -0.1652 -0.0702  0.2049
   57SAPC   C32 4186   4.734   6.242  10.191 -0.5753 -0.0287  0.5123
   57SAPC   H2X 4187   4.702   6.150  10.138  0.7902 -0.3082  0.1451
   57SAPC   H2Y 4188   4.816   6.295  10.139 -1.8495  0.6027 -0.9648
   57SAPC   C23 4189   4.733   5.507  10.347 -0.0334 -0.1173  0.7805
   57SAPC   H3R 4190   4.647   5.471  10.408 -1.7245  0.5869 -1.0836
   57SAPC   H3S 4191   4.828   5.501  10.405 -0.6547  3.1776  2.3823
   57SAPC   C24 4192   4.729   5.411  10.220  0.0817  0.1986 -0.6224
   57SAPC   H4R 4193   4.801   5.461  10.150  1.7700  0.7042  1.3738
   57SAPC   H4S 4194   4.626   5.401  10.179  0.5978 -1.3679 -1.6557
   57SAPC   C25 4195   4.780   5.273  10.264  0.5756 -0.5886  0.1040
   57SAPC   H5R 4196   4.882   5.275  10.305  0.6883  1.8480 -0.1450
   57SAPC   C26 4197   4.729   5.153  10.249  0.5260  0.5638 -0.3019
   57SAPC   H6R 4198   4.794   5.072  10.284  2.7633  1.9506 -1.0378
   57SAPC   C27 4199   4.598   5.110  10.195  0.0700  0.2747 -0.2805
   57SAPC   H7R 4200   4.548   5.202  10.157  0.7798  0.8644  0.2039
   57SAPC   H7S 4201   4.532   5.085  10.280 -0.3015  2.2741  0.0761
   57SAPC   C28 4202   4.623   4.995  10.105 -0.0657 -0.2558  0.9115
   57SAPC   H8R 4203   4.647   4.895  10.145 -1.9455 -0.5128  1.4966
   57SAPC   C29 4204   4.609   4.999   9.969  0.0357 -1.0808  0.2192
   57SAPC   H9R 4205   4.619   4.909   9.907  2.6629 -0.7001 -0.0232
   57SAPC  C210 4206   4.564   5.124   9.899 -0.2656 -0.1255 -0.0443
   57SAPC  H10R 4207   4.648   5.139   9.828  0.2203 -1.2370  0.2794
   57SAPC  H10S 4208   4.561   5.206   9.975 -0.0935  2.0357 -2.2521
   57SAPC  C211 4209   4.423   5.124   9.834  0.1318 -0.1106 -0.4805
   57SAPC  H11R 4210   4.340   5.138   9.904  0.9259 -0.4275  0.5438
   57SAPC  C212 4211   4.408   5.085   9.703 -0.4031  1.2523  0.1328
   57SAPC  H12R 4212   4.304   5.068   9.670 -0.2262  2.6332 -1.2666
   57SAPC  C213 4213   4.519   5.034   9.609 -0.3025  0.0109 -0.1043
   57SAPC  H13R 4214   4.537   4.926   9.628 -0.7780 -0.2211 -0.9064
   57SAPC  H13S 4215   4.617   5.083   9.629  0.3304 -0.3776 -1.9888
   57SAPC  C214 4216   4.471   5.057   9.463 -0.2196  0.3108  0.6490
   57SAPC  H14R 4217   4.417   4.971   9.420 -0.2032  0.7121 -0.1816
   57SAPC  C215 4218   4.509   5.158   9.383  0.3315  0.1648 -0.8392
   57SAPC  H15R 4219   4.473   5.169   9.280 -1.3255  4.5009 -0.0270
   57SAPC  C216 4220   4.590   5.278   9.430 -0.7928 -0.0287  0.7012
   57SAPC  H16R 4221   4.649   5.333   9.354 -1.5449 -1.0093 -0.6399
   57SAPC  H16S 4222   4.671   5.244   9.498  0.0951  0.9108  0.1271
   57SAPC  C217 4223   4.510   5.367   9.524 -0.1711 -0.5629 -0.4196
   57SAPC  H17R 4224   4.460   5.316   9.609 -2.6462  2.0275 -0.1568
   57SAPC  H17S 4225   4.432   5.429   9.474  0.4006  2.5199  2.1335
   57SAPC  C218 4226   4.606   5.466   9.596 -0.2109 -0.3639  0.9079
   57SAPC  H18R 4227   4.557   5.562   9.623 -1.7487 -0.0865 -2.4092
   57SAPC  H18S 4228   4.683   5.474   9.516 -0.4906  0.6697  0.7269
   57SAPC  C219 4229   4.680   5.410   9.716  0.0049  0.0839 -0.0923
   57SAPC  H19R 4230   4.746   5.327   9.683  0.4130 -0.0416  0.9910
   57SAPC  H19S 4231   4.613   5.372   9.796  4.2069 -3.1331  2.2862
   57SAPC  C220 4232   4.781   5.506   9.780 -0.1630 -0.2817  0.3595
   57SAPC  H20R 4233   4.731   5.585   9.840 -0.9650 -1.0902  0.7857
   57SAPC  H20S 4234   4.844   5.556   9.703  0.8622  1.4871  2.2450
   57SAPC  H20T 4235   4.847   5.460   9.856  0.3940 -0.6436 -0.3278
   57SAPC   C33 4236   4.613   6.349  10.198 -0.3572  0.0199 -0.6354
   57SAPC   H3X 4237   4.657   6.444  10.235  0.5120  1.3987 -4.7497
   57SAPC   H3Y 4238   4.539   6.309  10.271  0.1787  1.1514  0.5791
   57SAPC   C34 4239   4.538   6.379  10.071  0.3410 -0.5289  0.6937
   57SAPC   H4X 4240   4.607   6.388   9.984 -0.8688  1.0113 -0.1598
   57SAPC   H4Y 4241   4.481   6.471  10.093 -1.7992 -0.6652 -3.3881
   57SAPC   C35 4242   4.430   6.278  10.026  0.4804  0.3096  0.6520
   57SAPC   H5X 4243   4.364   6.258  10.114  1.3496 -0.9349  1.0429
   57SAPC   H5Y 4244   4.484   6.185  10.001 -0.0195 -0.1216  1.1343
   57SAPC   C36 4245   4.350   6.329   9.905  0.2699  0.3629 -0.8997
   57SAPC   H6X 4246   4.324   6.435   9.922 -1.2336 -0.2480  0.8921
   57SAPC   H6Y 4247   4.251   6.280   9.890  0.6224 -1.1148  1.1408
   57SAPC   C37 4248   4.429   6.323   9.773 -0.1891  0.0837 -0.5925
   57SAPC   H7X 4249   4.471   6.221   9.759 -1.3262 -0.1784 -2.5215
   57SAPC   H7Y 4250   4.513   6.395   9.772 -0.7637  1.0161  3.1137
   57SAPC   C38 4251   4.359   6.355   9.645  0.1690 -0.2072  0.0665
   57SAPC   H8X 4252   4.322   6.459   9.652 -0.1068 -0.3584  1.1820
   57SAPC   H8Y 4253   4.268   6.296   9.620  0.9679 -0.3530 -2.9121
   57SAPC   C39 4254   4.445   6.344   9.521 -0.5892  0.0732  0.8567
   57SAPC   H9X 4255   4.471   6.236   9.513 -0.9556 -0.0061  0.7139
   57SAPC   H9Y 4256   4.537   6.403   9.538 -1.0984  0.3906  2.7689
   57SAPC  C310 4257   4.370   6.387   9.392 -0.2767  0.2712 -0.0406
   57SAPC  H10X 4258   4.317   6.482   9.417  2.7973  2.3951 -0.9644
   57SAPC  H10Y 4259   4.302   6.305   9.366  0.4963  0.4282 -2.8085
   57SAPC  C311 4260   4.464   6.422   9.274  0.7298 -0.2390 -0.1112
   57SAPC  H11X 4261   4.522   6.512   9.306  0.3693  0.7233 -2.0723
   57SAPC  H11Y 4262   4.398   6.460   9.194 -1.1838 -1.5949  0.7337
   57SAPC  C312 4263   4.554   6.303   9.238  0.3201 -0.5195 -0.2475
   57SAPC  H12X 4264   4.503   6.205   9.248  2.3426 -1.4050  3.1988
   57SAPC  H12Y 4265   4.650   6.301   9.293  0.6218 -1.6214 -0.7893
   57SAPC  C313 4266   4.602   6.323   9.092 -0.2337  0.5481 -0.2539
   57SAPC  H13X 4267   4.695   6.263   9.086  0.0509  0.7632  1.5008
   57SAPC  H13Y 4268   4.627   6.431   9.081  1.2573  0.5000  1.9151
   57SAPC  C314 4269   4.490   6.266   8.998 -0.3964 -0.5224  0.2263
   57SAPC  H14X 4270   4.394   6.318   9.016  0.3054  2.1124 -2.8177
   57SAPC  H14Y 4271   4.476   6.158   9.024 -0.3920 -0.3876  0.8075
   57SAPC  C315 4272   4.534   6.278   8.850 -0.1121 -1.2149 -0.7687
   57SAPC  H15X 4273   4.478   6.206   8.787 -0.9468 -1.3906  0.1459
   57SAPC  H15Y 4274   4.636   6.237   8.836 -0.8717 -4.0101  1.1034
   57SAPC  C316 4275   4.509   6.422   8.790  0.2580 -0.1654 -0.8153
   57SAPC  H16X 4276   4.549   6.491   8.867 -0.1433 -0.6250 -0.1813
   57SAPC  H16Y 4277   4.399   6.434   8.773  0.4132 -2.5558 -5.1193
   57SAPC  C317 4278   4.569   6.443   8.659 -0.1269 -0.1465 -0.0473
   57SAPC  H17X 4279   4.511   6.374   8.594 -0.1883  1.6136 -1.9675
   57SAPC  H17Y 4280   4.673   6.409   8.637 -0.2374  0.0615 -0.9375
   57SAPC  C318 4281   4.543   6.589   8.611 -0.1595  0.4772  0.1109
   57SAPC  H18X 4282   4.583   6.670   8.675  1.5060  1.1252 -1.6256
   57SAPC  H18Y 4283   4.434   6.590   8.588  0.1231 -1.6352 -1.6176
   57SAPC  H18Z 4284   4.588   6.614   8.512  0.5630 -0.0288  0.3050
   58SAPC     N 4285   6.018   4.568  10.919 -0.2288  0.0500 -0.1998
   58SAPC   C12 4286   5.960   4.436  10.968 -0.4068  0.2568  0.1097
   58SAPC  H12A 4287   5.860   4.426  10.930 -1.0014 -0.9686  1.8845
   58SAPC  H12B 4288   5.946   4.437  11.075 -0.7098  0.2531  0.0703
   58SAPC   C13 4289   6.159   4.591  10.970 -0.1294  0.1108 -0.2232
   58SAPC  H13A 4290   6.187   4.695  10.977 -0.9376  0.2533  1.2058
   58SAPC  H13B 4291   6.166   4.563  11.074  0.3769  2.7820  0.5365
   58SAPC  H13C 4292   6.234   4.539  10.912  1.5405  1.6785  0.4443
   58SAPC   C14 4293   6.016   4.560  10.771 -0.1090 -0.4942  0.7954
   58SAPC  H14A 4294   5.917   4.583  10.735  0.9610 -0.7921 -2.6800
   58SAPC  H14B 4295   6.082   4.634  10.728 -0.6757 -0.2913  0.2720
   58SAPC  H14C 4296   6.046   4.461  10.740  0.6144 -0.1479  0.3794
   58SAPC   C15 4297   5.943   4.691  10.965  0.2452 -0.1764  0.2358
   58SAPC  H15A 4298   5.971   4.704  11.068 -0.6321 -1.8449  0.7268
   58SAPC  H15B 4299   5.959   4.779  10.904  0.9736 -0.1447  0.4708
   58SAPC  H15C 4300   5.836   4.674  10.965  0.2205 -0.0333 -0.2911
   58SAPC   C11 4301   6.042   4.317  10.925  0.3020  0.0948  0.6968
   58SAPC  H11A 4302   6.029   4.226  10.987  1.2494  0.0503  0.8449
   58SAPC  H11B 4303   6.149   4.338  10.945  0.4033 -1.5038  2.1082
   58SAPC     P 4304   6.122   4.215  10.700 -0.3355 -0.1320 -0.1028
   58SAPC   O13 4305   6.220   4.325  10.678  0.5653 -0.6219 -0.0983
   58SAPC   O14 4306   6.174   4.088  10.754  0.5736  0.2137  0.0641
   58SAPC   O12 4307   6.011   4.272  10.795 -0.0099 -0.4394  0.2911
   58SAPC   O11 4308   6.041   4.185  10.571  0.5661  0.1106  0.0189
   58SAPC    C1 4309   5.940   4.274  10.522  1.0471 -0.3877 -0.2016
   58SAPC    HA 4310   5.839   4.246  10.558  0.3364  3.1498  0.9694
   58SAPC    HB 4311   5.960   4.378  10.555 -0.8049 -0.3968  1.0624
   58SAPC    C2 4312   5.939   4.266  10.372  0.3898 -0.3998  0.7223
   58SAPC    HS 4313   5.923   4.162  10.338  1.5526 -0.0275 -1.1741
   58SAPC   O21 4314   6.058   4.330  10.322  0.1650 -0.5782  0.0237
   58SAPC   C21 4315   6.150   4.236  10.307 -0.1254 -0.6595  0.0808
   58SAPC   O22 4316   6.138   4.113  10.312  0.0006  0.1072  0.2423
   58SAPC   C22 4317   6.282   4.306  10.289  0.1540  0.2943  0.2214
   58SAPC   H2R 4318   6.271   4.340  10.184 -0.0352 -0.1160  0.1049
   58SAPC   H2S 4319   6.286   4.398  10.351 -1.2411  0.2549  0.3989
   58SAPC    C3 4320   5.811   4.354  10.322 -0.6114 -0.3501 -0.0012
   58SAPC    HX 4321   5.817   4.452  10.375  1.6816 -0.8325  0.7646
   58SAPC    HY 4322   5.721   4.306  10.366  0.0418  0.5459  2.4717
   58SAPC   O31 4323   5.792   4.371  10.173 -0.5273 -0.0631 -0.6929
   58SAPC   C31 4324   5.781   4.263  10.104  0.1610  0.4147 -0.4915
   58SAPC   O32 4325   5.778   4.148  10.153  0.4220  0.0469 -0.0815
   58SAPC   C32 4326   5.767   4.297   9.954  0.0203 -0.0435 -0.2844
   58SAPC   H2X 4327   5.865   4.337   9.919  0.6386 -0.6317  0.7196
   58SAPC   H2Y 4328   5.688   4.374   9.950 -0.7188 -0.6524  1.5371
   58SAPC   C23 4329   6.404   4.215  10.317  0.3409 -0.4888 -0.1453
   58SAPC   H3R 4330   6.424   4.142  10.236  1.3821 -0.2618 -0.1157
   58SAPC   H3S 4331   6.381   4.162  10.412  2.3039 -0.9823  0.1006
   58SAPC   C24 4332   6.539   4.304  10.337  0.7122  0.0292  0.1385
   58SAPC   H4R 4333   6.523   4.362  10.431 -2.5121 -0.4188 -0.0337
   58SAPC   H4S 4334   6.544   4.373  10.250 -0.6389  0.4105  0.3469
   58SAPC   C25 4335   6.662   4.211  10.336 -0.0474 -0.4364 -0.4429
   58SAPC   H5R 4336   6.703   4.182  10.434  2.2762 -1.9600 -1.7475
   58SAPC   C26 4337   6.734   4.179  10.226 -0.9505  0.3058  0.4670
   58SAPC   H6R 4338   6.823   4.116  10.239 -1.1075 -0.0878 -0.3473
   58SAPC   C27 4339   6.690   4.214  10.083  0.2175  0.2742 -0.4254
   58SAPC   H7R 4340   6.678   4.325  10.083 -3.7588  0.0797 -3.3927
   58SAPC   H7S 4341   6.586   4.179  10.063 -0.2176  0.4604  1.3671
   58SAPC   C28 4342   6.791   4.181   9.974  0.0657  0.6766  0.0576
   58SAPC   H8R 4343   6.893   4.175  10.013  0.6749 -3.0477 -1.7529
   58SAPC   C29 4344   6.771   4.162   9.841 -0.2136 -0.6780  0.1138
   58SAPC   H9R 4345   6.863   4.136   9.788  1.2581 -0.1032  2.2385
   58SAPC  C210 4346   6.640   4.180   9.771  0.1477  0.4983  0.4632
   58SAPC  H10R 4347   6.554   4.157   9.837 -1.3700 -1.4115 -1.9930
   58SAPC  H10S 4348   6.622   4.102   9.694  0.9927  1.2331 -0.5068
   58SAPC  C211 4349   6.633   4.327   9.731 -0.4559 -0.6687  1.2512
   58SAPC  H11R 4350   6.624   4.399   9.813 -0.0775  2.8866 -1.5991
   58SAPC  C212 4351   6.629   4.380   9.609 -0.0330 -0.4602 -0.2548
   58SAPC  H12R 4352   6.630   4.490   9.603  0.8260 -0.4046  0.5250
   58SAPC  C213 4353   6.643   4.300   9.487  0.2800  0.0916  0.7829
   58SAPC  H13R 4354   6.648   4.190   9.497  0.3179 -0.1478 -1.3377
   58SAPC  H13S 4355   6.739   4.320   9.434 -1.9543  1.7836 -3.0205
   58SAPC  C214 4356   6.542   4.324   9.383 -0.2721 -0.4569  0.2754
   58SAPC  H14R 4357   6.443   4.302   9.425 -0.6564  0.9846  0.1956
   58SAPC  C215 4358   6.563   4.387   9.259  0.5781 -1.0327 -0.9830
   58SAPC  H15R 4359   6.479   4.391   9.189  0.4018  0.5078 -0.7047
   58SAPC  C216 4360   6.689   4.439   9.196 -0.0280 -0.3634 -0.2869
   58SAPC  H16R 4361   6.755   4.475   9.278 -0.8169 -1.4729  0.8959
   58SAPC  H16S 4362   6.672   4.525   9.129 -0.7017  0.0893  0.4440
   58SAPC  C217 4363   6.766   4.331   9.120 -0.8470  0.4802 -0.2734
   58SAPC  H17R 4364   6.710   4.263   9.052  1.9950 -1.8597 -0.4809
   58SAPC  H17S 4365   6.800   4.245   9.183 -0.0123  1.1946  0.2846
   58SAPC  C218 4366   6.890   4.390   9.046  0.0139  0.4950 -0.2668
   58SAPC  H18R 4367   6.955   4.455   9.108 -3.0217  1.1843  2.4636
   58SAPC  H18S 4368   6.843   4.441   8.959 -1.1488  1.3784  0.8564
   58SAPC  C219 4369   6.972   4.266   8.995  0.9345 -0.3083 -0.0898
   58SAPC  H19R 4370   6.894   4.197   8.955 -0.6962  3.0210 -3.1737
   58SAPC  H19S 4371   7.018   4.206   9.076  1.2255  0.2845  0.1914
   58SAPC  C220 4372   7.072   4.302   8.878  0.0419 -0.2570 -0.1093
   58SAPC  H20R 4373   7.144   4.222   8.850  1.3644  0.9793 -0.3625
   58SAPC  H20S 4374   7.138   4.383   8.915  1.1517 -0.3314 -1.8260
   58SAPC  H20T 4375   7.013   4.331   8.788 -0.0375  0.7208  0.2425
   58SAPC   C33 4376   5.738   4.178   9.869 -0.4275 -0.5463  0.2362
   58SAPC   H3X 4377   5.659   4.120   9.921 -1.6523  0.1207 -0.8288
   58SAPC   H3Y 4378   5.826   4.111   9.885 -1.7235 -2.0007  1.5942
   58SAPC   C34 4379   5.712   4.206   9.720  0.3797  0.1296 -0.0832
   58SAPC   H4X 4380   5.794   4.267   9.676 -0.4697  0.8844 -0.6687
   58SAPC   H4Y 4381   5.616   4.262   9.724  0.3029  0.1762 -1.6892
   58SAPC   C35 4382   5.699   4.074   9.643 -0.1207 -0.4340 -0.2707
   58SAPC   H5X 4383   5.623   4.010   9.693 -0.5735  1.2933  1.3543
   58SAPC   H5Y 4384   5.799   4.027   9.653  0.3029 -0.1428 -2.5823
   58SAPC   C36 4385   5.665   4.085   9.493 -0.3049  0.1440  0.1247
   58SAPC   H6X 4386   5.569   4.141   9.478 -1.2090 -1.6365 -1.0291
   58SAPC   H6Y 4387   5.638   3.983   9.458 -0.2295  0.8328 -2.1025
   58SAPC   C37 4388   5.773   4.146   9.402 -0.2741  0.2237  0.2810
   58SAPC   H7X 4389   5.866   4.089   9.424 -2.1499 -2.7174  1.0428
   58SAPC   H7Y 4390   5.788   4.251   9.437 -0.2146 -0.0905  1.2083
   58SAPC   C38 4391   5.748   4.140   9.251 -0.4036  0.0041  0.1001
   58SAPC   H8X 4392   5.841   4.159   9.193 -0.4498  0.6914  0.2523
   58SAPC   H8Y 4393   5.675   4.217   9.219  0.0421  0.9054  1.1923
   58SAPC   C39 4394   5.704   4.005   9.197  0.3669  0.0287 -0.0056
   58SAPC   H9X 4395   5.611   3.979   9.252 -0.0216  1.6763  0.1819
   58SAPC   H9Y 4396   5.775   3.923   9.219  0.0629 -0.7610 -1.7740
   58SAPC  C310 4397   5.668   4.018   9.051  0.2215  0.6742  0.2055
   58SAPC  H10X 4398   5.634   4.122   9.029  0.4122  0.6675 -0.1245
   58SAPC  H10Y 4399   5.581   3.955   9.022 -1.0157  1.7867  1.3711
   58SAPC  C311 4400   5.784   3.985   8.952 -0.3690  0.1215  0.0621
   58SAPC  H11X 4401   5.800   3.876   8.955  1.5790  0.3372 -1.0259
   58SAPC  H11Y 4402   5.875   4.032   8.996  0.7228 -0.8363 -1.0915
   58SAPC  C312 4403   5.763   4.018   8.808  0.2428  0.1152  0.3231
   58SAPC  H12X 4404   5.653   4.022   8.790  0.6311 -0.7707 -2.7317
   58SAPC  H12Y 4405   5.803   3.947   8.733  0.9078  2.9346 -2.1899
   58SAPC  C313 4406   5.835   4.156   8.763  0.2898  0.5666 -0.9754
   58SAPC  H13X 4407   5.942   4.153   8.791 -0.3616  0.4670  1.7743
   58SAPC  H13Y 4408   5.799   4.235   8.833 -0.1692 -0.4165 -0.0667
   58SAPC  C314 4409   5.831   4.190   8.619 -0.1521 -0.1263 -0.3919
   58SAPC  H14X 4410   5.865   4.109   8.551 -1.9762 -1.9167  0.7206
   58SAPC  H14Y 4411   5.894   4.280   8.601  0.8710 -0.6716  0.3662
   58SAPC  C315 4412   5.690   4.237   8.575  0.4143 -0.2293  0.4296
   58SAPC  H15X 4413   5.648   4.306   8.652  0.0681 -0.2217  0.2383
   58SAPC  H15Y 4414   5.611   4.159   8.566 -0.0435  0.0355  1.7798
   58SAPC  C316 4415   5.697   4.309   8.440  0.2390  0.0231  0.2058
   58SAPC  H16X 4416   5.761   4.251   8.370  0.8368  0.2457  0.5555
   58SAPC  H16Y 4417   5.760   4.399   8.458 -0.7517  1.4857 -3.0463
   58SAPC  C317 4418   5.566   4.334   8.360  0.4333  0.1565 -0.2989
   58SAPC  H17X 4419   5.543   4.237   8.312  2.9324  0.0809 -1.5075
   58SAPC  H17Y 4420   5.603   4.399   8.278  0.7535 -0.4806 -0.6644
   58SAPC  C318 4421   5.452   4.407   8.427 -0.1723 -0.3778 -0.5207
   58SAPC  H18X 4422   5.481   4.509   8.462 -0.9010 -0.6177  0.8474
   58SAPC  H18Y 4423   5.412   4.346   8.510  2.7847  0.5413  1.7958
   58SAPC  H18Z 4424   5.382   4.410   8.341  0.1568 -1.4582 -0.8390
   59SAPC     N 4425   1.373   5.493  11.536 -0.3529  0.6659  0.6064
   59SAPC   C12 4426   1.498   5.494  11.449 -0.0489 -0.7005  0.0095
   59SAPC  H12A 4427   1.549   5.407  11.487 -0.4711 -0.7291  0.5223
   59SAPC  H12B 4428   1.545   5.590  11.464  0.6946 -0.8289 -1.3135
   59SAPC   C13 4429   1.305   5.363  11.540  0.6965  0.6710  0.5719
   59SAPC  H13A 4430   1.250   5.331  11.453  0.9409  0.9013  0.3286
   59SAPC  H13B 4431   1.366   5.276  11.557 -2.2451 -1.2884  1.8225
   59SAPC  H13C 4432   1.233   5.365  11.620 -1.4214 -1.7584 -1.1316
   59SAPC   C14 4433   1.407   5.524  11.678  0.3534 -0.7112 -0.1716
   59SAPC  H14A 4434   1.469   5.611  11.686  1.1636 -1.2324 -0.6488
   59SAPC  H14B 4435   1.313   5.538  11.729  0.2742  0.5964 -0.6463
   59SAPC  H14C 4436   1.451   5.439  11.730  0.2756  1.0332  3.0063
   59SAPC   C15 4437   1.282   5.600  11.491 -0.0564  0.2828  0.0194
   59SAPC  H15A 4438   1.302   5.626  11.388 -0.8922 -1.6605 -0.6940
   59SAPC  H15B 4439   1.176   5.582  11.502  0.0773 -2.4458 -1.9177
   59SAPC  H15C 4440   1.301   5.693  11.541 -0.9810  1.2945 -1.4347
   59SAPC   C11 4441   1.489   5.467  11.297 -0.0627 -0.3508  0.5976
   59SAPC  H11A 4442   1.590   5.486  11.255  0.9107 -0.9173  2.5186
   59SAPC  H11B 4443   1.416   5.533  11.246 -2.6552 -3.8427 -0.6424
   59SAPC     P 4444   1.542   5.218  11.267  0.0347 -0.2856  0.0692
   59SAPC   O13 4445   1.662   5.249  11.351  0.3921 -0.0094 -0.4254
   59SAPC   O14 4446   1.472   5.089  11.302  0.2016 -1.1505  0.1925
   59SAPC   O12 4447   1.439   5.336  11.271 -0.1996  0.0767  0.7540
   59SAPC   O11 4448   1.584   5.216  11.113  0.8427 -0.2120  0.0460
   59SAPC    C1 4449   1.519   5.134  11.020  0.3320 -0.5774  0.0702
   59SAPC    HA 4450   1.559   5.032  11.034  1.1768 -0.8696 -3.5297
   59SAPC    HB 4451   1.408   5.140  11.031  0.3979  2.4068  0.0752
   59SAPC    C2 4452   1.531   5.198  10.880  1.0096  0.0349  0.4589
   59SAPC    HS 4453   1.477   5.141  10.802 -1.9531  1.8102  1.0853
   59SAPC   O21 4454   1.675   5.198  10.852  0.1105 -0.4720  0.1396
   59SAPC   C21 4455   1.721   5.087  10.795 -0.2996  0.0181 -0.1313
   59SAPC   O22 4456   1.661   4.982  10.778  0.5227 -0.5350  0.2313
   59SAPC   C22 4457   1.863   5.105  10.739  0.0464  0.6401 -0.5887
   59SAPC   H2R 4458   1.909   5.197  10.782  0.7139 -0.4946  1.2901
   59SAPC   H2S 4459   1.920   5.015  10.772 -0.5780  1.1089  2.0548
   59SAPC    C3 4460   1.470   5.347  10.871 -0.0065  0.4869 -0.0909
   59SAPC    HX 4461   1.496   5.408  10.960  1.4948 -2.0413  1.3418
   59SAPC    HY 4462   1.361   5.335  10.886  0.1512  0.9848  1.7020
   59SAPC   O31 4463   1.492   5.412  10.747  0.2011  0.6686  0.5413
   59SAPC   C31 4464   1.595   5.494  10.743  0.4393 -0.2154 -0.0270
   59SAPC   O32 4465   1.683   5.509  10.822  0.3379  0.1214 -0.3710
   59SAPC   C32 4466   1.578   5.582  10.619 -0.1705 -0.1202  0.8119
   59SAPC   H2X 4467   1.514   5.668  10.648  0.7081  0.5612  0.7722
   59SAPC   H2Y 4468   1.503   5.547  10.544  0.7645 -0.8290  0.1930
   59SAPC   C23 4469   1.875   5.108  10.584  0.0274 -0.4225 -0.0677
   59SAPC   H3R 4470   1.818   5.026  10.536  0.5116 -0.3963 -0.6905
   59SAPC   H3S 4471   1.982   5.094  10.559  0.1972 -0.4244  0.6483
   59SAPC   C24 4472   1.831   5.242  10.516  0.2510  0.5821  0.0263
   59SAPC   H4R 4473   1.909   5.288  10.451  0.4519  1.3891  0.8074
   59SAPC   H4S 4474   1.811   5.315  10.598  1.9135  1.6242 -0.4447
   59SAPC   C25 4475   1.710   5.228  10.429  0.0622 -0.5153  0.9413
   59SAPC   H5R 4476   1.613   5.227  10.480 -0.2166  1.2024  0.5336
   59SAPC   C26 4477   1.710   5.213  10.293  0.0343  0.0074  0.2240
   59SAPC   H6R 4478   1.612   5.189  10.247 -1.0965  1.8521  1.5251
   59SAPC   C27 4479   1.839   5.218  10.210 -0.3131  0.4333  0.8889
   59SAPC   H7R 4480   1.927   5.253  10.268 -0.3632  0.3014  1.0461
   59SAPC   H7S 4481   1.815   5.279  10.120  0.9796  1.9079  1.5053
   59SAPC   C28 4482   1.891   5.082  10.164 -0.1426  0.3337  0.1414
   59SAPC   H8R 4483   1.880   4.998  10.234 -0.4848  0.6011  0.4114
   59SAPC   C29 4484   1.929   5.046  10.036 -0.4080 -0.1620 -0.0341
   59SAPC   H9R 4485   1.966   4.946  10.009  1.3396  0.2818  0.5784
   59SAPC  C210 4486   1.936   5.142   9.924 -0.4228 -0.3138  0.6411
   59SAPC  H10R 4487   2.041   5.119   9.899  0.0859  0.7294  1.7526
   59SAPC  H10S 4488   1.949   5.248   9.953 -0.8633 -0.3492  0.9963
   59SAPC  C211 4489   1.845   5.118   9.807  0.3814  0.7863 -0.5385
   59SAPC  H11R 4490   1.755   5.062   9.834  1.1391  0.8006  2.3703
   59SAPC  C212 4491   1.859   5.154   9.683  0.2866  0.4900 -0.3030
   59SAPC  H12R 4492   1.778   5.130   9.612  1.8927 -2.6097 -1.2520
   59SAPC  C213 4493   1.978   5.220   9.629  0.0879  0.1024 -0.1280
   59SAPC  H13R 4494   2.063   5.230   9.700  0.2361 -0.8684 -0.1497
   59SAPC  H13S 4495   1.957   5.326   9.605  0.8678  0.6096  1.3043
   59SAPC  C214 4496   2.031   5.147   9.513 -0.3216 -0.1832  0.0675
   59SAPC  H14R 4497   2.106   5.074   9.547 -0.4080  0.2922  1.3612
   59SAPC  C215 4498   2.010   5.167   9.378 -0.3069  0.1699  0.3313
   59SAPC  H15R 4499   2.045   5.102   9.296 -1.9461  0.6178 -0.7679
   59SAPC  C216 4500   1.920   5.265   9.317 -0.2042 -0.3202  0.9011
   59SAPC  H16R 4501   1.978   5.355   9.289 -1.8973  0.0975 -1.5402
   59SAPC  H16S 4502   1.833   5.292   9.380  1.1983  2.4283  1.8198
   59SAPC  C217 4503   1.848   5.213   9.187 -0.3022 -0.4373 -0.5659
   59SAPC  H17R 4504   1.923   5.203   9.106 -0.2060  0.3256 -0.5778
   59SAPC  H17S 4505   1.777   5.295   9.165  1.1220  0.8505 -0.5533
   59SAPC  C218 4506   1.768   5.086   9.202 -0.2562 -0.1473 -0.3923
   59SAPC  H18R 4507   1.701   5.095   9.291 -1.7642 -0.6322 -1.4304
   59SAPC  H18S 4508   1.827   4.996   9.230 -0.3108  0.4527  1.8633
   59SAPC  C219 4509   1.663   5.047   9.090 -0.5417  1.2685  0.0107
   59SAPC  H19R 4510   1.701   5.025   8.989 -1.4276  0.1659 -0.0995
   59SAPC  H19S 4511   1.607   5.143   9.082 -2.2361  0.2100 -1.5871
   59SAPC  C220 4512   1.569   4.936   9.139  0.5517 -0.1457 -0.3790
   59SAPC  H20R 4513   1.622   4.840   9.155 -1.6523 -1.4914 -0.8143
   59SAPC  H20S 4514   1.488   4.917   9.066  0.0561  0.5221 -0.0056
   59SAPC  H20T 4515   1.510   4.973   9.226  0.2300 -0.9196 -0.2592
   59SAPC   C33 4516   1.708   5.624  10.553 -0.2958 -0.0802 -0.7184
   59SAPC   H3X 4517   1.757   5.527  10.532 -1.0470 -0.3684 -1.1782
   59SAPC   H3Y 4518   1.769   5.677  10.629 -2.6760  0.8810  0.6309
   59SAPC   C34 4519   1.682   5.697  10.417  0.3664 -0.6479 -0.3074
   59SAPC   H4X 4520   1.788   5.704  10.386  0.5043 -1.8096 -0.1344
   59SAPC   H4Y 4521   1.643   5.799  10.437  1.1174  0.2875 -3.1114
   59SAPC   C35 4522   1.613   5.607  10.313  0.5164  0.0233  0.5139
   59SAPC   H5X 4523   1.505   5.599  10.335  0.1594  3.1054  0.3234
   59SAPC   H5Y 4524   1.653   5.508  10.344  2.7081  1.8209  4.1777
   59SAPC   C36 4525   1.644   5.639  10.166 -0.0639 -0.6860  0.0986
   59SAPC   H6X 4526   1.617   5.550  10.105  0.0418 -2.1991  2.1390
   59SAPC   H6Y 4527   1.754   5.656  10.160  0.8664 -4.8149  1.8461
   59SAPC   C37 4528   1.566   5.761  10.114  0.2373 -0.3256 -0.1976
   59SAPC   H7X 4529   1.591   5.856  10.166  0.6234 -0.2754 -0.4694
   59SAPC   H7Y 4530   1.457   5.746  10.124  0.4478 -1.5864  0.4893
   59SAPC   C38 4531   1.615   5.798   9.971 -0.3441  0.2294 -0.4803
   59SAPC   H8X 4532   1.618   5.703   9.914  1.2979 -1.7942  2.6600
   59SAPC   H8Y 4533   1.723   5.821   9.985 -0.6333  1.7918 -0.6658
   59SAPC   C39 4534   1.543   5.913   9.900  0.1235 -0.1944 -0.1245
   59SAPC   H9X 4535   1.597   5.936   9.806 -0.7437 -0.9470 -0.8331
   59SAPC   H9Y 4536   1.566   5.996   9.969 -1.0986  1.2398 -1.3636
   59SAPC  C310 4537   1.394   5.896   9.858  0.3869  0.3130  0.1932
   59SAPC  H10X 4538   1.320   5.886   9.939  0.4378 -1.0111  0.0860
   59SAPC  H10Y 4539   1.390   5.807   9.792 -0.3324 -2.7707  4.0217
   59SAPC  C311 4540   1.330   6.009   9.779  0.5687 -0.5465  0.2879
   59SAPC  H11X 4541   1.386   6.060   9.698 -0.1525  0.9159  0.6587
   59SAPC  H11Y 4542   1.321   6.091   9.854  2.3802 -0.1286  0.0941
   59SAPC  C312 4543   1.186   5.980   9.725  0.6813  0.0909  0.5101
   59SAPC  H12X 4544   1.120   6.066   9.752 -0.4142 -0.8038  0.7777
   59SAPC  H12Y 4545   1.137   5.901   9.786 -1.4035  0.5314 -0.4978
   59SAPC  C313 4546   1.157   5.958   9.580 -0.3400 -0.2223  0.3622
   59SAPC  H13X 4547   1.049   5.936   9.580 -0.2753 -0.5531  0.6777
   59SAPC  H13Y 4548   1.208   5.863   9.550  0.4330 -0.0946  1.2135
   59SAPC  C314 4549   1.182   6.068   9.466  0.2000  0.6048 -0.9818
   59SAPC  H14X 4550   1.287   6.101   9.484  0.1675 -0.3908  1.4836
   59SAPC  H14Y 4551   1.130   6.165   9.481  0.6701  0.5981  0.9850
   59SAPC  C315 4552   1.145   6.021   9.324 -0.0594  0.4684  1.0355
   59SAPC  H15X 4553   1.037   6.006   9.304  0.3055 -1.4244  0.3161
   59SAPC  H15Y 4554   1.202   5.927   9.310 -0.6807  0.3775 -1.3443
   59SAPC  C316 4555   1.202   6.120   9.217  0.2814  0.3567  0.8520
   59SAPC  H16X 4556   1.302   6.143   9.259  0.1608  0.5816  1.0139
   59SAPC  H16Y 4557   1.141   6.212   9.208 -0.0994  0.2171  1.8291
   59SAPC  C317 4558   1.211   6.063   9.076  0.0687 -0.2438  0.6418
   59SAPC  H17X 4559   1.256   5.961   9.077  0.7560  0.0626  1.3416
   59SAPC  H17Y 4560   1.281   6.133   9.025 -2.5212  1.5323 -0.6775
   59SAPC  C318 4561   1.075   6.061   8.997 -0.2382  0.5520  0.0624
   59SAPC  H18X 4562   1.033   6.163   9.010  0.1299  0.8087 -0.7103
   59SAPC  H18Y 4563   1.001   5.992   9.042 -0.8962  1.2245  0.0473
   59SAPC  H18Z 4564   1.083   6.051   8.886  0.8990  1.0651  0.0777
   60SAPC     N 4565   2.609   2.239  11.112  0.1172 -0.1443  0.1818
   60SAPC   C12 4566   2.610   2.314  10.975  0.0905  0.4447 -1.0191
   60SAPC  H12A 4567   2.552   2.260  10.902 -0.9754 -0.3714  0.3616
   60SAPC  H12B 4568   2.705   2.318  10.925  0.0294  1.5499 -1.0882
   60SAPC   C13 4569   2.704   2.307  11.210  0.7912 -0.6778  0.0926
   60SAPC  H13A 4570   2.807   2.294  11.180  1.0580  0.0543  0.6804
   60SAPC  H13B 4571   2.674   2.409  11.229 -1.2904 -0.9478 -1.3945
   60SAPC  H13C 4572   2.697   2.254  11.304 -1.0193 -0.9435 -0.1666
   60SAPC   C14 4573   2.476   2.227  11.174  0.1695  0.1693 -0.1226
   60SAPC  H14A 4574   2.433   2.326  11.171 -0.3575  0.1296  2.8519
   60SAPC  H14B 4575   2.407   2.160  11.125  1.5176 -1.6793  0.3799
   60SAPC  H14C 4576   2.468   2.192  11.276 -2.0999 -1.3955 -0.7515
   60SAPC   C15 4577   2.664   2.101  11.072 -0.0455 -0.5636  0.4686
   60SAPC  H15A 4578   2.767   2.102  11.039 -0.3508 -0.3393 -0.5266
   60SAPC  H15B 4579   2.662   2.035  11.157  2.8457 -1.0316  0.2605
   60SAPC  H15C 4580   2.606   2.053  10.994  0.4206 -0.5631  0.1131
   60SAPC   C11 4581   2.544   2.460  10.970  0.1011  0.4187  0.5085
   60SAPC  H11A 4582   2.437   2.442  10.994  0.4480 -0.3919  1.4959
   60SAPC  H11B 4583   2.544   2.496  10.864 -1.7540  0.1442  0.3774
   60SAPC     P 4584   2.750   2.632  11.023  0.0509  0.1385 -0.1175
   60SAPC   O13 4585   2.719   2.764  10.960  0.2072 -0.1418 -1.3257
   60SAPC   O14 4586   2.825   2.628  11.152 -0.0951 -0.7306  0.3563
   60SAPC   O12 4587   2.611   2.556  11.046  0.2670 -0.3366  0.0536
   60SAPC   O11 4588   2.815   2.529  10.916  0.4420 -0.4483 -0.1690
   60SAPC    C1 4589   2.802   2.524  10.771 -0.5958 -0.1423 -0.2367
   60SAPC    HA 4590   2.797   2.419  10.735 -2.3679 -0.2376  0.2087
   60SAPC    HB 4591   2.706   2.569  10.738 -0.4630  0.2442 -0.1004
   60SAPC    C2 4592   2.913   2.608  10.697  0.7746  0.4951 -0.0533
   60SAPC    HS 4593   2.915   2.710  10.741  0.0552  1.1181 -1.3914
   60SAPC   O21 4594   2.886   2.609  10.555  0.0007  0.6118  0.0449
   60SAPC   C21 4595   2.889   2.724  10.497  0.4426 -0.1067 -0.4137
   60SAPC   O22 4596   2.914   2.832  10.550 -0.5958  0.2224  0.4874
   60SAPC   C22 4597   2.864   2.701  10.345 -0.4039 -0.2874 -0.8658
   60SAPC   H2R 4598   2.940   2.635  10.298 -2.4694 -2.6927 -1.0855
   60SAPC   H2S 4599   2.768   2.646  10.340 -0.0123 -1.2403  1.0034
   60SAPC    C3 4600   3.049   2.546  10.727  0.2332 -0.0618 -0.1788
   60SAPC    HX 4601   3.065   2.557  10.837 -1.2913  1.6327 -0.0820
   60SAPC    HY 4602   3.135   2.595  10.678  1.0973  0.2421  1.5643
   60SAPC   O31 4603   3.057   2.411  10.680  0.6727  0.0568 -0.4585
   60SAPC   C31 4604   3.083   2.380  10.559  1.1260 -0.2195 -0.2025
   60SAPC   O32 4605   3.117   2.458  10.471  0.4571 -0.0480  0.5525
   60SAPC   C32 4606   3.061   2.230  10.537 -0.2628  0.6509 -0.0138
   60SAPC   H2X 4607   2.954   2.210  10.558 -0.2697 -2.5330 -2.3165
   60SAPC   H2Y 4608   3.127   2.167  10.601 -1.1362 -1.9895 -1.5895
   60SAPC   C23 4609   2.849   2.831  10.263  0.5045  0.3767 -0.1990
   60SAPC   H3R 4610   2.952   2.866  10.240  0.8310 -0.2150  0.3311
   60SAPC   H3S 4611   2.811   2.917  10.322  1.0080  0.3966  0.1054
   60SAPC   C24 4612   2.758   2.812  10.144  0.6591 -0.1746  0.6487
   60SAPC   H4R 4613   2.657   2.774  10.174 -0.8356  2.2694 -0.9832
   60SAPC   H4S 4614   2.804   2.727  10.090  1.0243 -1.2472  2.5357
   60SAPC   C25 4615   2.742   2.946  10.067 -0.0469 -0.0691 -0.0134
   60SAPC   H5R 4616   2.768   3.036  10.124 -1.3845  0.6380 -0.4819
   60SAPC   C26 4617   2.716   2.963   9.936  0.8295 -0.3062 -0.3171
   60SAPC   H6R 4618   2.709   3.069   9.907 -1.5468 -0.1811  0.4959
   60SAPC   C27 4619   2.688   2.857   9.841 -0.0988  0.8108  0.4718
   60SAPC   H7R 4620   2.596   2.873   9.781  1.1452 -0.2165 -1.8748
   60SAPC   H7S 4621   2.681   2.750   9.873  0.8469  0.1032 -1.4905
   60SAPC   C28 4622   2.808   2.866   9.747  0.3520  0.2935 -0.0449
   60SAPC   H8R 4623   2.905   2.894   9.790  0.2328 -0.2316  0.5731
   60SAPC   C29 4624   2.805   2.839   9.610  0.2352  0.1911  0.1713
   60SAPC   H9R 4625   2.897   2.836   9.550 -0.3126  2.3635 -0.8585
   60SAPC  C210 4626   2.689   2.795   9.528  0.2340  0.2075  0.0505
   60SAPC  H10R 4627   2.616   2.740   9.590  0.0576 -0.5419 -0.7973
   60SAPC  H10S 4628   2.726   2.723   9.452 -0.2940  1.0151 -0.9979
   60SAPC  C211 4629   2.618   2.909   9.459  0.1343 -0.4700 -0.3120
   60SAPC  H11R 4630   2.520   2.921   9.505  0.2851 -2.8770  0.7692
   60SAPC  C212 4631   2.664   2.993   9.363 -0.3267 -0.0126  0.0020
   60SAPC  H12R 4632   2.596   3.073   9.330 -2.3491 -1.5264  0.3242
   60SAPC  C213 4633   2.806   2.991   9.302 -0.2338 -0.2876 -0.2630
   60SAPC  H13R 4634   2.834   2.886   9.279 -0.6919 -0.5257  0.2466
   60SAPC  H13S 4635   2.885   3.030   9.371  0.2468 -1.3628 -0.1833
   60SAPC  C214 4636   2.805   3.065   9.171 -0.0225 -0.9557  0.3658
   60SAPC  H14R 4637   2.718   3.043   9.106 -0.8259  0.2710  0.9989
   60SAPC  C215 4638   2.893   3.150   9.128 -0.3618  0.1703 -0.7215
   60SAPC  H15R 4639   2.878   3.199   9.030  0.9410  2.3039  0.0834
   60SAPC  C216 4640   3.027   3.183   9.202 -0.7316 -0.2870 -0.2116
   60SAPC  H16R 4641   3.041   3.101   9.275  3.4823 -1.4553 -1.9978
   60SAPC  H16S 4642   3.019   3.278   9.258  1.5132 -1.6859  2.7343
   60SAPC  C217 4643   3.156   3.201   9.112 -0.3475 -0.1990 -0.2554
   60SAPC  H17R 4644   3.239   3.237   9.176 -1.3561  0.3426  0.7686
   60SAPC  H17S 4645   3.138   3.289   9.047 -1.2603  1.7558  2.4592
   60SAPC  C218 4646   3.202   3.084   9.022 -0.1137 -0.3976 -0.4513
   60SAPC  H18R 4647   3.123   3.055   8.950 -0.4743  1.0482 -0.6811
   60SAPC  H18S 4648   3.228   2.995   9.082  0.7224 -0.2699 -0.6173
   60SAPC  C219 4649   3.319   3.120   8.933  0.1237  0.2269  0.9415
   60SAPC  H19R 4650   3.347   3.029   8.875 -0.6382  0.6004 -0.0460
   60SAPC  H19S 4651   3.402   3.138   9.005  0.4304 -1.0431  0.9205
   60SAPC  C220 4652   3.293   3.229   8.831  0.6152 -0.2677 -0.1671
   60SAPC  H20R 4653   3.385   3.264   8.779  1.3436 -1.4622  0.2826
   60SAPC  H20S 4654   3.258   3.321   8.883  0.4938  0.3358 -1.2999
   60SAPC  H20T 4655   3.210   3.206   8.762 -1.0058  0.1151  1.5603
   60SAPC   C33 4656   3.084   2.189  10.385  1.2565  0.1382 -0.0513
   60SAPC   H3X 4657   3.101   2.079  10.376  1.6244  0.1913 -0.0039
   60SAPC   H3Y 4658   3.173   2.238  10.340  1.5639  1.1439  1.5565
   60SAPC   C34 4659   2.955   2.224  10.302 -0.1337 -0.2577  0.7556
   60SAPC   H4X 4660   2.931   2.329  10.328 -0.5960  0.2148 -1.3609
   60SAPC   H4Y 4661   2.867   2.162  10.329 -0.4713  0.4056  1.1756
   60SAPC   C35 4662   2.980   2.215  10.154  0.3984 -0.2813 -0.0569
   60SAPC   H5X 4663   2.994   2.109  10.124 -1.7260 -0.9592  1.1265
   60SAPC   H5Y 4664   3.076   2.264  10.128  0.9816  0.4768  3.1895
   60SAPC   C36 4665   2.866   2.271  10.060 -0.2661  0.1139 -0.0882
   60SAPC   H6X 4666   2.874   2.382  10.066  0.3095  0.0096  3.4408
   60SAPC   H6Y 4667   2.773   2.230  10.106 -0.5813  0.7112 -0.1689
   60SAPC   C37 4668   2.879   2.230   9.913 -0.1307 -0.2676 -0.1485
   60SAPC   H7X 4669   2.875   2.119   9.916 -0.3974 -0.2488  0.1583
   60SAPC   H7Y 4670   2.978   2.255   9.869  0.9066 -2.9610  0.4227
   60SAPC   C38 4671   2.772   2.294   9.831 -0.5109 -0.0337 -0.5177
   60SAPC   H8X 4672   2.772   2.403   9.856  2.3193 -0.0887 -0.0157
   60SAPC   H8Y 4673   2.668   2.266   9.858 -0.6937  1.6343  0.6818
   60SAPC   C39 4674   2.781   2.281   9.682  1.3117  0.2031  0.5244
   60SAPC   H9X 4675   2.697   2.326   9.625  1.6207 -0.8328 -0.8019
   60SAPC   H9Y 4676   2.773   2.170   9.673  0.1009  0.0778  2.5666
   60SAPC  C310 4677   2.907   2.330   9.618  0.2989  0.0358 -0.4128
   60SAPC  H10X 4678   2.991   2.270   9.659  0.3643  0.4188  0.0178
   60SAPC  H10Y 4679   2.920   2.437   9.644 -0.9876 -0.0214  0.5025
   60SAPC  C311 4680   2.894   2.307   9.467  1.0836 -0.2584  0.4543
   60SAPC  H11X 4681   2.813   2.377   9.438  1.2917  1.1416  3.0409
   60SAPC  H11Y 4682   2.873   2.199   9.449 -0.3639 -0.3406  2.3528
   60SAPC  C312 4683   3.014   2.338   9.382  0.1307 -0.6870 -0.8236
   60SAPC  H12X 4684   3.108   2.304   9.429  1.3854  1.9873 -1.2168
   60SAPC  H12Y 4685   3.035   2.447   9.373 -1.5861 -0.1342  1.1771
   60SAPC  C313 4686   3.000   2.253   9.250  0.1210 -0.5915 -0.3896
   60SAPC  H13X 4687   2.916   2.307   9.201  1.4356  2.1271  0.1305
   60SAPC  H13Y 4688   2.974   2.150   9.281  0.7105  0.1652  3.0556
   60SAPC  C314 4689   3.123   2.241   9.166  0.0249  0.4891 -0.1056
   60SAPC  H14X 4690   3.207   2.182   9.209  1.5740  0.9762 -2.2638
   60SAPC  H14Y 4691   3.168   2.342   9.159  0.4225  0.2896 -0.5006
   60SAPC  C315 4692   3.088   2.200   9.020  0.1284 -0.1442 -0.1148
   60SAPC  H15X 4693   3.025   2.286   8.990  0.1093  0.8760  2.5250
   60SAPC  H15Y 4694   3.034   2.103   9.012  3.1727 -1.8649 -1.4868
   60SAPC  C316 4695   3.213   2.198   8.920 -0.2879 -0.7936 -0.0668
   60SAPC  H16X 4696   3.287   2.127   8.963  1.3961  0.2153 -1.1748
   60SAPC  H16Y 4697   3.258   2.299   8.927 -3.8253  1.3439 -3.5668
   60SAPC  C317 4698   3.173   2.189   8.774 -0.1101  0.1653 -0.2498
   60SAPC  H17X 4699   3.087   2.256   8.757 -0.5666  0.9419  3.9519
   60SAPC  H17Y 4700   3.121   2.091   8.773 -0.5557  0.3783  0.7027
   60SAPC  C318 4701   3.283   2.203   8.668 -0.1137 -0.6633  0.2554
   60SAPC  H18X 4702   3.239   2.188   8.567 -1.9867  0.0191  0.9175
   60SAPC  H18Y 4703   3.374   2.150   8.705 -0.6004 -0.4351  1.8481
   60SAPC  H18Z 4704   3.309   2.310   8.659 -3.2518  0.1238 -0.9089
   61SAPC     N 4705   5.191   3.728  11.104 -0.5887  0.1034  0.5780
   61SAPC   C12 4706   5.067   3.639  11.135 -0.1912 -0.5319  0.2213
   61SAPC  H12A 4707   4.979   3.698  11.118  0.0725 -0.0613  0.4522
   61SAPC  H12B 4708   5.068   3.610  11.239 -2.5849 -0.0680  0.4377
   61SAPC   C13 4709   5.182   3.789  10.962 -0.5828  1.0287 -1.0367
   61SAPC  H13A 4710   5.193   3.717  10.883  2.7192 -0.3379  0.4470
   61SAPC  H13B 4711   5.091   3.847  10.962 -1.0768  0.3780  1.2057
   61SAPC  H13C 4712   5.261   3.860  10.942  0.1299 -0.1290 -2.4743
   61SAPC   C14 4713   5.191   3.841  11.207  0.1005  0.0948  0.2872
   61SAPC  H14A 4714   5.223   3.806  11.304  2.6780 -0.3877 -0.6805
   61SAPC  H14B 4715   5.254   3.920  11.169 -0.0499 -0.1918 -0.5713
   61SAPC  H14C 4716   5.093   3.887  11.212  0.6888  1.2921  1.6766
   61SAPC   C15 4717   5.317   3.649  11.106 -0.5945  0.3221 -0.5836
   61SAPC  H15A 4718   5.301   3.567  11.038 -1.3861 -0.3275  0.3466
   61SAPC  H15B 4719   5.387   3.716  11.058 -1.5133  0.0106 -2.4335
   61SAPC  H15C 4720   5.349   3.617  11.204  0.3628  0.8612 -0.7006
   61SAPC   C11 4721   5.038   3.522  11.043  0.8025  0.4309  1.0494
   61SAPC  H11A 4722   5.028   3.556  10.937  0.2022  0.2273  1.0349
   61SAPC  H11B 4723   4.935   3.489  11.067 -0.0518  3.0185  1.2849
   61SAPC     P 4724   5.159   3.336  11.181 -0.0597 -0.1617  0.0143
   61SAPC   O13 4725   5.302   3.307  11.192  0.4657 -0.2482  0.0949
   61SAPC   O14 4726   5.099   3.390  11.301  0.1607  0.3974  0.1241
   61SAPC   O12 4727   5.133   3.423  11.053 -0.1759 -0.2119 -0.3633
   61SAPC   O11 4728   5.084   3.200  11.146  0.0825  0.4711 -0.4144
   61SAPC    C1 4729   5.125   3.118  11.041 -0.5479  0.3172 -0.7485
   61SAPC    HA 4730   5.216   3.163  10.994  0.5441 -1.4432 -0.4281
   61SAPC    HB 4731   5.148   3.017  11.083 -0.3331  0.8869  0.5566
   61SAPC    C2 4732   5.028   3.110  10.924 -0.0151  0.0203 -0.8797
   61SAPC    HS 4733   5.002   3.214  10.898 -1.4784  0.0441  0.5047
   61SAPC   O21 4734   4.905   3.049  10.975  0.2028  0.7438 -0.1014
   61SAPC   C21 4735   4.793   3.084  10.915  0.3639 -0.6901  0.9664
   61SAPC   O22 4736   4.788   3.167  10.823 -0.4544  0.4237 -0.1348
   61SAPC   C22 4737   4.679   2.991  10.960  0.5810 -0.2509 -0.2239
   61SAPC   H2R 4738   4.709   2.884  10.955 -1.8760 -1.0378  0.6335
   61SAPC   H2S 4739   4.661   3.017  11.067  2.2480 -1.1766  0.3148
   61SAPC    C3 4740   5.087   3.037  10.804 -0.3826  0.4905  0.3617
   61SAPC    HX 4741   5.094   2.933  10.842 -1.0440  0.3254  0.0465
   61SAPC    HY 4742   5.196   3.058  10.798 -0.5847  1.0823 -2.8593
   61SAPC   O31 4743   5.009   3.044  10.679 -0.2593  0.0529 -0.0358
   61SAPC   C31 4744   5.038   3.156  10.608  0.4485  0.3096  0.1622
   61SAPC   O32 4745   5.108   3.252  10.643  0.2116 -0.2091  0.4024
   61SAPC   C32 4746   4.966   3.145  10.473 -0.1882 -0.0008  0.5525
   61SAPC   H2X 4747   4.856   3.136  10.490 -0.0796 -1.9014  0.4012
   61SAPC   H2Y 4748   4.998   3.054  10.418 -1.4736 -0.5648  0.7103
   61SAPC   C23 4749   4.548   3.020  10.884  0.2978 -0.0940 -0.1796
   61SAPC   H3R 4750   4.548   3.130  10.868  3.0332  0.0509  0.4056
   61SAPC   H3S 4751   4.455   2.995  10.939  0.3931 -1.1333 -0.4761
   61SAPC   C24 4752   4.533   2.961  10.744  0.0979  0.6184 -0.0167
   61SAPC   H4R 4753   4.629   2.987  10.694  0.3821 -1.6637 -0.7513
   61SAPC   H4S 4754   4.445   3.012  10.699 -0.7461 -1.6656 -1.1313
   61SAPC   C25 4755   4.508   2.812  10.747 -0.0108  0.5029 -0.3323
   61SAPC   H5R 4756   4.546   2.757  10.835 -2.7649  0.1814  0.7509
   61SAPC   C26 4757   4.442   2.736  10.656 -0.1851 -0.7205  1.2856
   61SAPC   H6R 4758   4.445   2.627  10.671 -0.3202 -0.9499 -0.1722
   61SAPC   C27 4759   4.393   2.787  10.519  0.4858 -0.8367 -0.4997
   61SAPC   H7R 4760   4.444   2.732  10.437  0.2399 -0.0513 -1.1913
   61SAPC   H7S 4761   4.426   2.892  10.506 -0.2665 -0.3201  1.4384
   61SAPC   C28 4762   4.241   2.772  10.496 -0.2165  0.1056 -1.0584
   61SAPC   H8R 4763   4.176   2.801  10.580  1.5077  6.0664 -1.3299
   61SAPC   C29 4764   4.186   2.757  10.376 -0.5332 -0.3400  0.4822
   61SAPC   H9R 4765   4.077   2.750  10.361 -0.4637  1.3401 -1.2903
   61SAPC  C210 4766   4.267   2.760  10.243 -0.0817 -0.1782 -0.1834
   61SAPC  H10R 4767   4.318   2.663  10.226  1.3540  0.6880 -0.9193
   61SAPC  H10S 4768   4.347   2.836  10.242  0.3029 -0.5738 -1.7600
   61SAPC  C211 4769   4.187   2.787  10.120  0.1914  0.4362 -0.5015
   61SAPC  H11R 4770   4.125   2.875  10.141  1.3633  0.7867  1.7452
   61SAPC  C212 4771   4.190   2.714  10.005 -0.6711 -0.2895 -0.1032
   61SAPC  H12R 4772   4.138   2.752   9.915  0.5699 -0.5841 -0.9726
   61SAPC  C213 4773   4.282   2.603   9.970  0.8599 -0.1536  0.2214
   61SAPC  H13R 4774   4.242   2.542   9.886  2.5835  1.8436 -2.2122
   61SAPC  H13S 4775   4.302   2.532  10.054  0.6208 -0.3796  0.0892
   61SAPC  C214 4776   4.412   2.648   9.912 -0.1795  0.0960  0.1229
   61SAPC  H14R 4777   4.488   2.675   9.987  0.1256  0.2294 -0.2316
   61SAPC  C215 4778   4.446   2.661   9.779  0.1394 -0.3274 -0.7707
   61SAPC  H15R 4779   4.545   2.705   9.761 -0.7698  1.3751 -1.9554
   61SAPC  C216 4780   4.349   2.640   9.662  0.5209 -0.1136 -0.0693
   61SAPC  H16R 4781   4.296   2.734   9.636  0.8097  0.3321  0.9179
   61SAPC  H16S 4782   4.272   2.562   9.678  0.3722 -0.0745 -0.5631
   61SAPC  C217 4783   4.424   2.588   9.534  0.5681  0.1602 -0.1378
   61SAPC  H17R 4784   4.468   2.487   9.539  1.1190  0.2843 -1.8752
   61SAPC  H17S 4785   4.505   2.660   9.510 -0.0316  0.4123 -1.5179
   61SAPC  C218 4786   4.319   2.578   9.422 -0.0167 -0.2880 -0.7852
   61SAPC  H18R 4787   4.304   2.683   9.387 -2.7078 -0.0544  0.8122
   61SAPC  H18S 4788   4.226   2.537   9.466  0.3808 -1.9567 -1.4491
   61SAPC  C219 4789   4.375   2.499   9.306  0.1121 -0.4134 -0.1172
   61SAPC  H19R 4790   4.367   2.396   9.347 -3.3989  0.5479  2.0855
   61SAPC  H19S 4791   4.475   2.545   9.289  0.1525  0.2928  1.8228
   61SAPC  C220 4792   4.302   2.500   9.175  0.1816 -0.3036  0.1671
   61SAPC  H20R 4793   4.196   2.479   9.202  0.5958 -1.9121  0.6308
   61SAPC  H20S 4794   4.348   2.424   9.109  0.5362 -1.2872  1.5174
   61SAPC  H20T 4795   4.311   2.600   9.127  1.0927 -0.8832 -0.9095
   61SAPC   C33 4796   5.004   3.263  10.377 -0.5785  0.4886  0.3402
   61SAPC   H3X 4797   5.115   3.264  10.370 -0.4228 -3.4237 -0.0438
   61SAPC   H3Y 4798   4.973   3.363  10.414 -0.1774  0.7423  0.0113
   61SAPC   C34 4799   4.961   3.231  10.234 -0.6601 -0.4064 -0.2501
   61SAPC   H4X 4800   4.856   3.196  10.226 -2.0006  3.3120 -0.7125
   61SAPC   H4Y 4801   5.015   3.146  10.187 -0.0259  0.9449 -2.0821
   61SAPC   C35 4802   4.987   3.347  10.140  0.7239  0.3395 -0.3715
   61SAPC   H5X 4803   5.095   3.337  10.115  0.1947 -2.2915 -1.9610
   61SAPC   H5Y 4804   4.964   3.445  10.187 -0.8546 -0.7040  1.1138
   61SAPC   C36 4805   4.907   3.339  10.002  0.3126  0.1610 -0.2000
   61SAPC   H6X 4806   4.886   3.444   9.973 -1.6036  0.6448  2.5080
   61SAPC   H6Y 4807   4.801   3.308  10.017 -0.1098  0.8934 -1.5211
   61SAPC   C37 4808   4.974   3.262   9.895  0.2162 -0.8444  0.3077
   61SAPC   H7X 4809   4.960   3.153   9.913 -4.7312 -0.5085 -0.3061
   61SAPC   H7Y 4810   5.081   3.289   9.878 -0.3360  0.3665 -1.5894
   61SAPC   C38 4811   4.911   3.301   9.760  0.3309  0.0017  0.0017
   61SAPC   H8X 4812   4.932   3.405   9.728 -1.4601  0.7968  1.2124
   61SAPC   H8Y 4813   4.801   3.303   9.778  0.1377 -1.4923 -0.8182
   61SAPC   C39 4814   4.942   3.188   9.657 -0.0085  0.1044 -0.1688
   61SAPC   H9X 4815   4.931   3.086   9.699  0.3954  0.5924  1.1622
   61SAPC   H9Y 4816   5.050   3.204   9.642  0.1874 -1.1634 -0.2150
   61SAPC  C310 4817   4.851   3.195   9.534 -0.4519 -0.0570  0.9651
   61SAPC  H10X 4818   4.881   3.285   9.476 -1.5513 -0.6549 -0.6051
   61SAPC  H10Y 4819   4.747   3.220   9.564  0.5969  4.1372  1.7693
   61SAPC  C311 4820   4.855   3.075   9.444 -0.5258 -1.0319  0.0754
   61SAPC  H11X 4821   4.758   3.057   9.393 -1.1813  0.2300  0.8496
   61SAPC  H11Y 4822   4.883   2.981   9.497 -0.3754  0.1774  2.2251
   61SAPC  C312 4823   4.954   3.099   9.329  0.9369 -0.2135  0.1450
   61SAPC  H12X 4824   5.051   3.125   9.376  0.2906  1.6033  0.5405
   61SAPC  H12Y 4825   4.918   3.185   9.269  0.2001  0.0170  0.8908
   61SAPC  C313 4826   4.972   2.962   9.258 -0.2503 -0.3289 -0.0354
   61SAPC  H13X 4827   4.875   2.909   9.242 -0.5428 -0.2170  1.2641
   61SAPC  H13Y 4828   5.029   2.901   9.331 -0.0195 -0.8672 -0.6581
   61SAPC  C314 4829   5.049   2.973   9.125 -0.5617  0.5245  0.2979
   61SAPC  H14X 4830   5.067   2.872   9.083  1.3538  0.7499  0.5118
   61SAPC  H14Y 4831   5.148   3.018   9.147 -0.5297  0.6757 -0.1340
   61SAPC  C315 4832   4.979   3.057   9.015 -0.0566 -0.1562 -0.3957
   61SAPC  H15X 4833   4.962   3.160   9.053 -1.2818 -0.2609 -0.6226
   61SAPC  H15Y 4834   4.883   3.011   8.985 -0.2136 -0.4162  0.4941
   61SAPC  C316 4835   5.090   3.059   8.897 -0.0676  0.1138 -0.0874
   61SAPC  H16X 4836   5.060   2.966   8.843 -1.8435  0.9293 -0.5851
   61SAPC  H16Y 4837   5.192   3.063   8.940  2.1047  0.2562 -4.6808
   61SAPC  C317 4838   5.071   3.166   8.789 -0.1010  0.1635 -0.3391
   61SAPC  H17X 4839   5.092   3.259   8.847 -2.2563 -0.2266  1.1643
   61SAPC  H17Y 4840   4.965   3.171   8.757 -0.7020 -2.5895  0.9248
   61SAPC  C318 4841   5.158   3.137   8.668  0.2716  0.3677 -0.4099
   61SAPC  H18X 4842   5.128   3.192   8.577 -1.4969  1.2219  0.6360
   61SAPC  H18Y 4843   5.155   3.028   8.648  1.6089  0.1301  0.5286
   61SAPC  H18Z 4844   5.263   3.167   8.689  0.0354  0.3440  0.9207
   62SAPC     N 4845   1.439   2.368  10.946 -0.0205 -0.2860  0.0805
   62SAPC   C12 4846   1.519   2.462  10.858  0.5379 -0.5113  0.3863
   62SAPC  H12A 4847   1.621   2.466  10.893  1.1755  1.0659 -1.4921
   62SAPC  H12B 4848   1.477   2.561  10.867 -0.3918 -0.9409  1.0719
   62SAPC   C13 4849   1.509   2.235  10.961 -0.1996  0.2482  0.0655
   62SAPC  H13A 4850   1.538   2.196  10.864 -2.4334  1.2700 -1.0842
   62SAPC  H13B 4851   1.600   2.240  11.019  0.8661  3.6895 -1.6417
   62SAPC  H13C 4852   1.448   2.163  11.013  1.9752 -0.1305  2.2738
   62SAPC   C14 4853   1.425   2.434  11.082  0.8100 -0.6256 -0.6640
   62SAPC  H14A 4854   1.517   2.429  11.137  0.2495 -1.2119  0.2519
   62SAPC  H14B 4855   1.387   2.535  11.079 -1.8482 -1.4679  0.7725
   62SAPC  H14C 4856   1.359   2.377  11.146  0.6561  2.7179  2.4599
   62SAPC   C15 4857   1.296   2.356  10.891 -0.2959  1.0557  0.1655
   62SAPC  H15A 4858   1.246   2.450  10.873 -2.0773 -0.0977 -1.2228
   62SAPC  H15B 4859   1.298   2.311  10.793  0.5002  1.3547  0.0331
   62SAPC  H15C 4860   1.229   2.290  10.944  1.6537 -1.9906 -0.9470
   62SAPC   C11 4861   1.528   2.433  10.705 -0.3841 -0.2069  0.4253
   62SAPC  H11A 4862   1.580   2.513  10.647 -0.3385 -1.3080 -1.1286
   62SAPC  H11B 4863   1.427   2.441  10.658 -0.2758 -2.2963 -0.2795
   62SAPC     P 4864   1.747   2.289  10.659 -0.3052  0.3551 -0.0839
   62SAPC   O13 4865   1.812   2.386  10.746  1.1117 -0.6306  0.1691
   62SAPC   O14 4866   1.783   2.149  10.682 -0.0862  0.0527  0.1571
   62SAPC   O12 4867   1.583   2.306  10.669 -0.3456 -0.2868 -0.7444
   62SAPC   O11 4868   1.775   2.323  10.509  0.1691  0.9832  0.7434
   62SAPC    C1 4869   1.732   2.239  10.405 -0.6261 -0.0618 -0.5734
   62SAPC    HA 4870   1.624   2.220  10.425 -0.3156 -0.3178  1.0467
   62SAPC    HB 4871   1.735   2.299  10.312 -0.5451 -0.2701 -0.7064
   62SAPC    C2 4872   1.814   2.108  10.377 -0.2295  0.2064 -0.9749
   62SAPC    HS 4873   1.891   2.104  10.457  1.8220  0.0184 -2.8598
   62SAPC   O21 4874   1.866   2.118  10.242 -0.8712 -0.1817  0.8154
   62SAPC   C21 4875   1.994   2.160  10.228  0.3220  0.0786 -0.1731
   62SAPC   O22 4876   2.075   2.176  10.320  0.2552  0.0799  0.1051
   62SAPC   C22 4877   2.023   2.191  10.083 -0.6824 -0.1741 -0.2753
   62SAPC   H2R 4878   2.069   2.292  10.083 -2.4177  0.6788  1.3247
   62SAPC   H2S 4879   2.096   2.112  10.057 -2.7093 -2.4191  0.3849
   62SAPC    C3 4880   1.739   1.974  10.392  0.2559  0.5920  0.4019
   62SAPC    HX 4881   1.701   1.953  10.494 -2.2158  0.3383 -0.5049
   62SAPC    HY 4882   1.818   1.903  10.357  1.4065  2.2317 -0.4887
   62SAPC   O31 4883   1.612   1.982  10.317 -0.5689  0.5587  0.1571
   62SAPC   C31 4884   1.562   1.861  10.278  0.1005 -0.2879 -0.8437
   62SAPC   O32 4885   1.620   1.758  10.300  0.0745 -0.4135 -0.2010
   62SAPC   C32 4886   1.443   1.879  10.191  0.2963 -0.0791 -0.0173
   62SAPC   H2X 4887   1.421   1.987  10.185  0.4205 -0.0056  0.6954
   62SAPC   H2Y 4888   1.355   1.835  10.243  1.2435 -1.7407  0.2500
   62SAPC   C23 4889   1.903   2.173   9.986  0.7665 -0.8021  0.5214
   62SAPC   H3R 4890   1.843   2.265   9.999  1.7355 -0.1150  0.2112
   62SAPC   H3S 4891   1.847   2.080  10.012  0.5248 -0.4874  1.1384
   62SAPC   C24 4892   1.948   2.153   9.832  0.1012 -0.2957  0.3223
   62SAPC   H4R 4893   1.872   2.095   9.775  0.7329 -1.0387  0.2268
   62SAPC   H4S 4894   2.034   2.083   9.827 -1.0816 -1.7616 -0.4552
   62SAPC   C25 4895   1.986   2.287   9.765 -0.6680  0.0015 -0.1066
   62SAPC   H5R 4896   1.999   2.377   9.828  2.0141 -0.6219  0.3315
   62SAPC   C26 4897   2.017   2.300   9.633  0.0750  0.4484 -0.1906
   62SAPC   H6R 4898   2.031   2.399   9.589 -0.4436  0.6524  0.0858
   62SAPC   C27 4899   2.029   2.191   9.527  0.0911  0.4677  1.2284
   62SAPC   H7R 4900   2.022   2.088   9.567  1.4392  1.2000  3.4995
   62SAPC   H7S 4901   2.128   2.194   9.476 -1.1634  1.3532 -1.3476
   62SAPC   C28 4902   1.921   2.200   9.419  0.0735  0.4371 -0.7114
   62SAPC   H8R 4903   1.825   2.158   9.451  0.5089 -0.3714 -0.4456
   62SAPC   C29 4904   1.918   2.284   9.316  0.0576 -0.6041  0.2133
   62SAPC   H9R 4905   1.827   2.281   9.254 -1.4334 -0.9344  2.3223
   62SAPC  C210 4906   2.033   2.367   9.255 -0.3338  0.1589 -0.5636
   62SAPC  H10R 4907   2.029   2.355   9.145  0.5929 -1.2355 -0.4780
   62SAPC  H10S 4908   2.136   2.334   9.281  0.9596  0.7858 -4.3740
   62SAPC  C211 4909   2.009   2.508   9.290  0.1837 -0.1731  1.1805
   62SAPC  H11R 4910   2.009   2.521   9.399 -1.7827 -1.3946  1.3595
   62SAPC  C212 4911   1.975   2.604   9.196  1.1145 -0.4703  0.1330
   62SAPC  H12R 4912   1.964   2.710   9.225  0.7633 -0.7818  1.2084
   62SAPC  C213 4913   1.958   2.589   9.050  0.2028  0.3379  0.3738
   62SAPC  H13R 4914   1.930   2.489   9.011  1.1776  1.2055 -2.8763
   62SAPC  H13S 4915   2.056   2.603   8.999 -1.5652  1.1146 -3.1058
   62SAPC  C214 4916   1.864   2.684   8.980  0.6259 -0.2699  0.7676
   62SAPC  H14R 4917   1.774   2.638   8.936  0.5748  0.5679 -0.0446
   62SAPC  C215 4918   1.884   2.810   8.955  0.2650  0.3080  0.9353
   62SAPC  H15R 4919   1.806   2.878   8.917  1.6479  2.1058  1.1890
   62SAPC  C216 4920   2.013   2.872   8.999  0.3961  0.7353 -0.1399
   62SAPC  H16R 4921   2.088   2.821   8.935 -0.8668 -0.4874 -0.7194
   62SAPC  H16S 4922   2.037   2.839   9.102  0.6728 -3.9630 -1.5007
   62SAPC  C217 4923   2.016   3.024   8.984 -0.1486  0.5137  0.2989
   62SAPC  H17R 4924   1.967   3.081   9.066  0.6309  0.2442  0.9654
   62SAPC  H17S 4925   1.985   3.057   8.882  0.2854 -1.8196 -0.6485
   62SAPC  C218 4926   2.158   3.081   8.998 -0.1351  0.1255 -0.1145
   62SAPC  H18R 4927   2.161   3.191   8.983 -2.0770  0.0670 -1.1601
   62SAPC  H18S 4928   2.211   3.044   8.907  0.4985 -1.1750  0.7453
   62SAPC  C219 4929   2.234   3.044   9.124 -0.4990  0.2361 -0.0790
   62SAPC  H19R 4930   2.235   2.935   9.144  1.6650  0.2202 -0.0681
   62SAPC  H19S 4931   2.176   3.091   9.206 -0.1567 -2.0103  1.5417
   62SAPC  C220 4932   2.380   3.090   9.126 -0.1654  0.0286 -0.0970
   62SAPC  H20R 4933   2.389   3.200   9.115 -1.0799 -0.0215 -1.6099
   62SAPC  H20S 4934   2.418   3.051   9.029  0.8173 -0.0287  0.2954
   62SAPC  H20T 4935   2.443   3.038   9.202  0.4386 -0.7912 -1.1164
   62SAPC   C33 4936   1.458   1.805  10.053 -1.0379 -0.3435  0.0856
   62SAPC   H3X 4937   1.363   1.819   9.996 -0.8490  0.7149  0.0168
   62SAPC   H3Y 4938   1.472   1.695  10.065  1.5187 -0.1332 -0.5079
   62SAPC   C34 4939   1.562   1.858   9.958 -0.2806 -0.1028  0.0771
   62SAPC   H4X 4940   1.662   1.846  10.004 -1.1792 -1.9406  1.6961
   62SAPC   H4Y 4941   1.533   1.963   9.935 -1.5570 -0.2508  0.8672
   62SAPC   C35 4942   1.574   1.779   9.827  0.3398 -0.1357 -0.8466
   62SAPC   H5X 4943   1.542   1.674   9.840 -1.8902  0.4801 -0.9710
   62SAPC   H5Y 4944   1.683   1.782   9.807  0.6678 -0.0097  0.8232
   62SAPC   C36 4945   1.501   1.838   9.705  0.6100 -0.2109  0.2157
   62SAPC   H6X 4946   1.520   1.947   9.697 -0.6019  0.3432  3.3278
   62SAPC   H6Y 4947   1.391   1.823   9.709  0.2229  2.4020  1.6712
   62SAPC   C37 4948   1.566   1.781   9.576  0.6616  0.3200  0.2534
   62SAPC   H7X 4949   1.538   1.673   9.576  1.8512 -0.0768  3.4590
   62SAPC   H7Y 4950   1.675   1.798   9.586  0.7028 -0.3107  0.9910
   62SAPC   C38 4951   1.518   1.858   9.454 -0.5624  0.4753  0.0164
   62SAPC   H8X 4952   1.548   1.965   9.465 -0.0481  0.5392 -1.7220
   62SAPC   H8Y 4953   1.409   1.858   9.432 -0.2968  1.2911 -1.4467
   62SAPC   C39 4954   1.582   1.806   9.321  0.4651  0.8745 -0.0019
   62SAPC   H9X 4955   1.533   1.715   9.279  1.2335  0.4744 -0.0494
   62SAPC   H9Y 4956   1.683   1.762   9.340  0.1389  1.1828  3.0599
   62SAPC  C310 4957   1.587   1.898   9.205  0.0556 -0.1525 -0.3915
   62SAPC  H10X 4958   1.666   1.974   9.224  2.1890 -2.4527  0.4891
   62SAPC  H10Y 4959   1.491   1.942   9.170  1.1214  0.5084 -2.6433
   62SAPC  C311 4960   1.656   1.832   9.083 -0.0144 -0.0544  0.7018
   62SAPC  H11X 4961   1.597   1.743   9.052  0.6371 -0.2173 -0.0966
   62SAPC  H11Y 4962   1.759   1.797   9.103  0.2877 -0.2394 -1.0389
   62SAPC  C312 4963   1.663   1.917   8.963  0.2767  0.3982 -0.1028
   62SAPC  H12X 4964   1.735   1.996   8.996  0.0709  0.4239  0.2787
   62SAPC  H12Y 4965   1.565   1.964   8.944  0.6067  1.3809  0.5485
   62SAPC  C313 4966   1.718   1.857   8.831  0.2624  0.2508 -0.2082
   62SAPC  H13X 4967   1.816   1.806   8.839  0.5465  0.9711  1.2205
   62SAPC  H13Y 4968   1.726   1.946   8.764 -2.3965  0.6973 -0.0515
   62SAPC  C314 4969   1.620   1.760   8.765 -0.0944  0.9955 -0.3182
   62SAPC  H14X 4970   1.522   1.810   8.755 -0.1247  0.8578 -0.7586
   62SAPC  H14Y 4971   1.594   1.673   8.829 -0.4984 -1.4716 -3.5508
   62SAPC  C315 4972   1.659   1.705   8.626 -0.4808 -0.1470  0.1060
   62SAPC  H15X 4973   1.765   1.671   8.622 -0.4320  0.0626 -0.6306
   62SAPC  H15Y 4974   1.655   1.792   8.557 -2.8254  1.0771  1.6622
   62SAPC  C316 4975   1.558   1.592   8.577 -0.1773 -0.1764  0.4510
   62SAPC  H16X 4976   1.547   1.579   8.468 -0.3753  0.3296  0.4077
   62SAPC  H16Y 4977   1.458   1.603   8.626  0.3357 -1.2593  1.8350
   62SAPC  C317 4978   1.600   1.448   8.615  1.1646 -0.3247 -0.9483
   62SAPC  H17X 4979   1.590   1.438   8.725 -0.4680  1.3839 -0.8817
   62SAPC  H17Y 4980   1.707   1.443   8.588  1.0814 -2.5403 -0.9949
   62SAPC  C318 4981   1.509   1.340   8.560  0.6581  0.6798  0.4481
   62SAPC  H18X 4982   1.400   1.363   8.555  0.4910 -0.0520 -4.7218
   62SAPC  H18Y 4983   1.527   1.236   8.595 -0.8425  0.0328 -0.5701
   62SAPC  H18Z 4984   1.529   1.329   8.451  0.3070  0.7381  0.3758
   63SAPC     N 4985   5.594   5.823   6.319 -0.0081 -0.3437 -0.1960
   63SAPC   C12 4986   5.590   5.911   6.443 -0.5866 -0.2666  0.4323
   63SAPC  H12A 4987   5.496   5.889   6.492 -1.5867 -0.2790 -1.3938
   63SAPC  H12B 4988   5.577   6.011   6.406  0.6442 -0.9909 -2.1769
   63SAPC   C13 4989   5.469   5.840   6.236 -0.2613 -0.2858 -0.0428
   63SAPC  H13A 4990   5.442   5.942   6.215  0.6530  0.2093  1.0758
   63SAPC  H13B 4991   5.463   5.774   6.151  0.2640  1.1453 -1.2147
   63SAPC  H13C 4992   5.385   5.815   6.300 -1.1283  0.9778 -0.6421
   63SAPC   C14 4993   5.703   5.851   6.226 -0.1509  0.2011 -0.0919
   63SAPC  H14A 4994   5.798   5.868   6.274 -1.0695  1.8130  1.2456
   63SAPC  H14B 4995   5.729   5.770   6.159  2.8010  0.2099  0.8653
   63SAPC  H14C 4996   5.670   5.926   6.157 -0.8590 -0.2993 -0.3152
   63SAPC   C15 4997   5.604   5.682   6.359  0.5866  0.0159  0.1464
   63SAPC  H15A 4998   5.692   5.668   6.422  1.8014  2.4290 -0.9099
   63SAPC  H15B 4999   5.513   5.649   6.406  1.3553 -0.2913  1.4900
   63SAPC  H15C 5000   5.615   5.622   6.270  1.7001  0.0566  0.2337
   63SAPC   C11 5001   5.694   5.887   6.545 -0.8561 -0.4140 -0.0002
   63SAPC  H11A 5002   5.691   5.784   6.586  1.3589  0.1874  1.9618
   63SAPC  H11B 5003   5.672   5.949   6.635 -0.1164 -2.0640  1.3868
   63SAPC     P 5004   5.870   6.071   6.468 -0.1540  0.4738 -0.0686
   63SAPC   O13 5005   5.982   6.059   6.372 -0.3535 -0.2536  0.2300
   63SAPC   O14 5006   5.756   6.157   6.427 -0.0628  0.1285  0.3656
   63SAPC   O12 5007   5.823   5.922   6.491 -0.0415  0.6157 -0.4487
   63SAPC   O11 5008   5.928   6.114   6.608 -0.0464 -0.0863  0.3432
   63SAPC    C1 5009   5.881   6.231   6.671  0.3127 -0.2589  0.0150
   63SAPC    HA 5010   5.777   6.261   6.647  0.0246 -1.3835 -0.1553
   63SAPC    HB 5011   5.878   6.195   6.777 -0.8064 -2.2171 -0.6313
   63SAPC    C2 5012   5.977   6.346   6.658 -0.1090 -0.0394  0.4164
   63SAPC    HS 5013   5.994   6.367   6.550 -1.2267  2.7792  0.7280
   63SAPC   O21 5014   6.102   6.304   6.716  0.1101 -1.0020  0.0411
   63SAPC   C21 5015   6.203   6.386   6.690 -0.1820  0.6090  0.3812
   63SAPC   O22 5016   6.202   6.471   6.598 -0.3112  0.4555 -0.0109
   63SAPC   C22 5017   6.324   6.371   6.778 -0.3491 -0.0496  0.0789
   63SAPC   H2R 5018   6.370   6.270   6.770  0.1346  0.0899  0.9847
   63SAPC   H2S 5019   6.399   6.441   6.735 -0.9263 -0.7226 -2.1674
   63SAPC    C3 5020   5.919   6.474   6.736 -0.1599  0.0056 -0.0739
   63SAPC    HX 5021   5.817   6.487   6.694 -0.9123 -2.2159  0.8953
   63SAPC    HY 5022   5.980   6.564   6.715  0.6450 -0.2106  1.2297
   63SAPC   O31 5023   5.898   6.455   6.879  0.2369 -0.1823 -0.0695
   63SAPC   C31 5024   5.973   6.537   6.960 -0.6033  0.6575  0.1260
   63SAPC   O32 5025   6.049   6.626   6.930  0.0321 -1.3301  0.0915
   63SAPC   C32 5026   5.942   6.500   7.105 -0.4765  0.3836  0.0561
   63SAPC   H2X 5027   5.983   6.401   7.135  0.1440  0.7858  0.5497
   63SAPC   H2Y 5028   5.831   6.496   7.117 -0.3459  1.9128  2.6024
   63SAPC   C23 5029   6.301   6.400   6.924  0.5276  0.6464 -0.0387
   63SAPC   H3R 5030   6.241   6.493   6.927  0.5568  0.7953 -2.4766
   63SAPC   H3S 5031   6.399   6.420   6.973  1.6497 -0.1389 -1.8338
   63SAPC   C24 5032   6.219   6.288   7.002 -0.4030  0.0424 -0.3111
   63SAPC   H4R 5033   6.118   6.287   6.957  0.4409 -0.1257 -2.3288
   63SAPC   H4S 5034   6.199   6.322   7.105  1.4640 -0.8719  0.4056
   63SAPC   C25 5035   6.285   6.148   7.007  0.7500  0.2318 -0.3445
   63SAPC   H5R 5036   6.287   6.093   6.911  1.4861 -1.6055  0.6645
   63SAPC   C26 5037   6.354   6.098   7.112  0.8426  0.4223  0.4172
   63SAPC   H6R 5038   6.404   6.000   7.108  1.1542  0.5405  1.2342
   63SAPC   C27 5039   6.359   6.164   7.252  0.0110  0.4892  0.6504
   63SAPC   H7R 5040   6.348   6.274   7.239 -0.2842  0.1943 -2.0926
   63SAPC   H7S 5041   6.461   6.159   7.295 -0.5836  0.5098  2.1327
   63SAPC   C28 5042   6.260   6.108   7.351  0.1511  0.5348 -0.1286
   63SAPC   H8R 5043   6.180   6.176   7.383  0.8889  0.2660  2.5493
   63SAPC   C29 5044   6.271   5.980   7.395  0.3326 -0.2495 -0.7251
   63SAPC   H9R 5045   6.197   5.952   7.472 -1.1664 -0.2572 -2.0940
   63SAPC  C210 5046   6.380   5.878   7.368 -0.2674  0.2809 -0.4084
   63SAPC  H10R 5047   6.419   5.855   7.469 -1.1862  2.3441  0.4937
   63SAPC  H10S 5048   6.456   5.926   7.303  0.8084  0.2272  0.7812
   63SAPC  C211 5049   6.330   5.751   7.299 -0.5125  0.3692 -0.7304
   63SAPC  H11R 5050   6.294   5.784   7.201  1.4235 -1.1518 -2.0268
   63SAPC  C212 5051   6.363   5.622   7.324  0.1840 -0.0707 -0.2606
   63SAPC  H12R 5052   6.318   5.545   7.260 -0.5926  0.2746 -0.1388
   63SAPC  C213 5053   6.433   5.580   7.444  0.8135 -0.7135  0.5777
   63SAPC  H13R 5054   6.513   5.652   7.472  1.5622 -0.2772 -2.3656
   63SAPC  H13S 5055   6.486   5.486   7.416 -0.5261 -1.4232  0.3524
   63SAPC  C214 5056   6.341   5.566   7.566  0.6070  0.0351  0.0623
   63SAPC  H14R 5057   6.243   5.615   7.555  0.5638  0.8536  3.1484
   63SAPC  C215 5058   6.355   5.509   7.682 -0.2157 -0.3255 -0.2858
   63SAPC  H15R 5059   6.275   5.526   7.756  0.5146  3.4888 -0.1480
   63SAPC  C216 5060   6.482   5.437   7.740  0.3141  0.0449  0.1455
   63SAPC  H16R 5061   6.559   5.415   7.663 -1.0713 -2.0774 -0.7332
   63SAPC  H16S 5062   6.447   5.338   7.777 -2.0849  0.4406 -0.8385
   63SAPC  C217 5063   6.557   5.527   7.839  0.2314  0.8946  0.1019
   63SAPC  H17R 5064   6.480   5.553   7.915 -2.1220 -0.8484 -1.5540
   63SAPC  H17S 5065   6.603   5.618   7.796  0.6204  0.3294 -0.7101
   63SAPC  C218 5066   6.674   5.444   7.898 -0.4325  0.4637 -0.8672
   63SAPC  H18R 5067   6.747   5.415   7.820  2.0594  0.2177  1.4006
   63SAPC  H18S 5068   6.618   5.355   7.935  0.9602 -0.7175 -1.5069
   63SAPC  C219 5069   6.748   5.513   8.014  0.0062  0.0642  0.3504
   63SAPC  H19R 5070   6.779   5.618   7.994 -0.0996  0.4961  2.2051
   63SAPC  H19S 5071   6.843   5.456   8.022 -0.3351 -0.2793  2.4796
   63SAPC  C220 5072   6.673   5.500   8.151 -0.5919  0.1020 -0.8723
   63SAPC  H20R 5073   6.578   5.556   8.163 -0.3825  0.1121  1.1031
   63SAPC  H20S 5074   6.738   5.548   8.228  0.5228 -0.9655 -1.1117
   63SAPC  H20T 5075   6.668   5.391   8.170  0.2658  0.5129  2.2956
   63SAPC   C33 5076   5.994   6.606   7.207 -0.2243 -0.1212 -0.6084
   63SAPC   H3X 5077   5.931   6.697   7.194 -2.8617 -1.2746  2.6422
   63SAPC   H3Y 5078   6.102   6.620   7.185 -0.4366  1.1031 -0.9379
   63SAPC   C34 5079   5.989   6.555   7.350  1.0806 -0.0172 -0.4217
   63SAPC   H4X 5080   5.892   6.505   7.372  0.5768  0.9369 -0.4147
   63SAPC   H4Y 5081   6.002   6.642   7.419 -1.4807  1.0355 -1.1389
   63SAPC   C35 5082   6.100   6.441   7.370  0.0857 -0.5243  0.4861
   63SAPC   H5X 5083   6.194   6.467   7.318  0.5974 -0.1976  1.5479
   63SAPC   H5Y 5084   6.069   6.345   7.322 -1.2775  0.1402 -0.0202
   63SAPC   C36 5085   6.125   6.401   7.511 -0.4019  0.0083  0.0593
   63SAPC   H6X 5086   6.155   6.487   7.573 -0.4958 -0.5197  0.8496
   63SAPC   H6Y 5087   6.210   6.330   7.511 -0.3340  0.0236 -1.9145
   63SAPC   C37 5088   6.006   6.330   7.583  0.4429 -0.1060  0.3901
   63SAPC   H7X 5089   6.021   6.220   7.590 -0.6966 -0.4172 -1.4503
   63SAPC   H7Y 5090   5.911   6.344   7.528  0.2389  0.1776  0.8046
   63SAPC   C38 5091   5.970   6.378   7.723  0.2982 -0.3628 -0.5321
   63SAPC   H8X 5092   5.876   6.336   7.763  0.4848  1.0963  1.5731
   63SAPC   H8Y 5093   5.939   6.482   7.698  0.5217 -0.4594 -1.2527
   63SAPC   C39 5094   6.090   6.382   7.818 -0.2359 -0.1232  0.4887
   63SAPC   H9X 5095   6.179   6.424   7.767 -0.7463 -1.6459 -1.8078
   63SAPC   H9Y 5096   6.114   6.274   7.830 -0.6461 -0.1317  1.3348
   63SAPC  C310 5097   6.061   6.435   7.956 -0.3583  0.5319 -0.0602
   63SAPC  H10X 5098   5.964   6.398   7.996 -0.1729  0.4588  0.3224
   63SAPC  H10Y 5099   6.048   6.546   7.954  2.1427  0.8738 -2.1975
   63SAPC  C311 5100   6.169   6.415   8.062 -0.3646  0.2026  0.3502
   63SAPC  H11X 5101   6.143   6.446   8.165  1.0440 -1.2171  1.1717
   63SAPC  H11Y 5102   6.256   6.474   8.027 -1.7596  2.2406  0.1472
   63SAPC  C312 5103   6.221   6.273   8.071  0.2381  0.1794  0.2092
   63SAPC  H12X 5104   6.285   6.245   7.984 -0.5172 -0.4753 -0.1536
   63SAPC  H12Y 5105   6.138   6.201   8.060  0.7451 -0.1112 -2.8636
   63SAPC  C313 5106   6.303   6.247   8.192  0.8320  0.2480 -0.4185
   63SAPC  H13X 5107   6.330   6.139   8.195  0.4136  0.1452 -0.4053
   63SAPC  H13Y 5108   6.243   6.268   8.283 -0.8162  2.0609 -1.8418
   63SAPC  C314 5109   6.439   6.313   8.195  0.3044 -0.1983  0.6843
   63SAPC  H14X 5110   6.416   6.419   8.176 -0.3425 -0.3472  0.6203
   63SAPC  H14Y 5111   6.496   6.272   8.109 -1.0606  1.0565 -0.8716
   63SAPC  C315 5112   6.520   6.280   8.321 -0.6824  0.5488  0.4098
   63SAPC  H15X 5113   6.534   6.171   8.332 -2.6296  0.3576  1.3420
   63SAPC  H15Y 5114   6.464   6.310   8.412  0.1125  1.7345  0.5391
   63SAPC  C316 5115   6.649   6.373   8.330 -0.0113  0.1043 -0.3936
   63SAPC  H16X 5116   6.625   6.474   8.292  1.8435  0.6632 -0.1418
   63SAPC  H16Y 5117   6.734   6.337   8.267  0.8995  2.4759 -0.6017
   63SAPC  C317 5118   6.710   6.382   8.465  0.1177 -0.3240  0.6619
   63SAPC  H17X 5119   6.813   6.421   8.446  0.7514 -1.8548  0.8183
   63SAPC  H17Y 5120   6.742   6.286   8.510  1.3620 -0.3347 -0.1824
   63SAPC  C318 5121   6.639   6.461   8.569 -1.0211 -0.4077  0.3289
   63SAPC  H18X 5122   6.719   6.496   8.638 -1.0165  0.9696 -0.3640
   63SAPC  H18Y 5123   6.565   6.405   8.631  2.6884 -4.0636  1.9715
   63SAPC  H18Z 5124   6.587   6.549   8.526  1.2555  0.0974 -1.5581
   64SAPC     N 5125   2.056   1.387   5.895 -0.2423  0.4832 -0.0456
   64SAPC   C12 5126   2.033   1.238   5.903 -0.3765  0.2611  0.0049
   64SAPC  H12A 5127   2.086   1.199   5.989 -0.5376 -0.8859 -0.4036
   64SAPC  H12B 5128   2.074   1.199   5.811 -2.2669  0.2324 -0.8730
   64SAPC   C13 5129   2.022   1.457   5.766 -0.0842 -0.0001  0.0227
   64SAPC  H13A 5130   2.111   1.438   5.707  2.5317  0.3400  3.5418
   64SAPC  H13B 5131   1.926   1.436   5.722 -1.0447  2.2226  0.9607
   64SAPC  H13C 5132   2.026   1.562   5.791 -2.1696 -0.4753  2.8117
   64SAPC   C14 5133   1.981   1.455   6.013 -0.2034  0.1883  0.2640
   64SAPC  H14A 5134   1.979   1.562   6.024 -1.0603  0.1118  0.9253
   64SAPC  H14B 5135   1.880   1.419   6.010  0.0398 -1.0734  3.1740
   64SAPC  H14C 5136   2.027   1.410   6.101 -1.4678 -0.5269  0.5728
   64SAPC   C15 5137   2.203   1.421   5.925  0.6189  0.2867 -0.2598
   64SAPC  H15A 5138   2.231   1.386   6.024 -1.8197  0.3793  0.5155
   64SAPC  H15B 5139   2.264   1.362   5.858  0.3041 -1.6692  1.0901
   64SAPC  H15C 5140   2.213   1.527   5.907 -0.0492  0.3355 -0.3603
   64SAPC   C11 5141   1.887   1.197   5.902 -0.1649  1.2257 -0.2031
   64SAPC  H11A 5142   1.871   1.094   5.862  0.1369  0.7698  0.8142
   64SAPC  H11B 5143   1.830   1.270   5.841  0.6108  1.4846 -0.6322
   64SAPC     P 5144   1.888   1.121   6.154 -0.1599  0.1670 -0.1784
   64SAPC   O13 5145   1.762   1.043   6.191 -0.4564  0.6591  0.1304
   64SAPC   O14 5146   2.008   1.039   6.130 -0.8556 -0.1278  0.3208
   64SAPC   O12 5147   1.851   1.216   6.036  0.4975  0.3183 -0.0944
   64SAPC   O11 5148   1.923   1.217   6.276 -0.0012  0.1914  0.4736
   64SAPC    C1 5149   1.875   1.204   6.415 -0.2242  0.3119 -0.3714
   64SAPC    HA 5150   1.891   1.309   6.449  1.2511 -0.4620  1.5114
   64SAPC    HB 5151   1.770   1.171   6.423  0.0748 -0.6167 -0.1146
   64SAPC    C2 5152   1.969   1.111   6.499 -0.3148 -0.8316 -0.6356
   64SAPC    HS 5153   1.968   1.008   6.457 -0.7192 -1.6659  1.3303
   64SAPC   O21 5154   1.931   1.127   6.634 -0.4433 -0.1748  0.7372
   64SAPC   C21 5155   1.846   1.039   6.679 -0.6949 -0.1754 -1.1161
   64SAPC   O22 5156   1.782   0.966   6.605  0.3586  0.5167 -0.0891
   64SAPC   C22 5157   1.851   1.045   6.827  0.6067  0.3517 -0.0074
   64SAPC   H2R 5158   1.924   0.967   6.859 -0.0319 -0.2576 -0.0112
   64SAPC   H2S 5159   1.875   1.144   6.870  2.7581  0.1228 -0.5796
   64SAPC    C3 5160   2.119   1.151   6.470  0.6112  0.0649 -0.5123
   64SAPC    HX 5161   2.122   1.160   6.359 -3.5902 -1.9143 -0.9638
   64SAPC    HY 5162   2.181   1.064   6.499 -1.6793 -2.2818 -2.2140
   64SAPC   O31 5163   2.149   1.291   6.524 -0.6495  0.0180  0.0907
   64SAPC   C31 5164   2.217   1.290   6.636  0.8408 -0.1001 -0.6241
   64SAPC   O32 5165   2.285   1.200   6.680  0.4521  0.1588 -0.4390
   64SAPC   C32 5166   2.185   1.409   6.721  0.8555  0.2897 -0.0337
   64SAPC   H2X 5167   2.241   1.495   6.678  1.1317  0.5361  0.7969
   64SAPC   H2Y 5168   2.221   1.387   6.824  0.3807  0.7414  0.2329
   64SAPC   C23 5169   1.710   1.019   6.881 -0.2397 -0.8327  0.2327
   64SAPC   H3R 5170   1.717   0.986   6.987 -1.6849  1.3359  1.0827
   64SAPC   H3S 5171   1.655   0.940   6.827 -2.5565  0.8694 -0.0549
   64SAPC   C24 5172   1.621   1.149   6.873  0.1859  0.4314 -0.2056
   64SAPC   H4R 5173   1.513   1.122   6.885 -0.2545  1.8197 -0.8721
   64SAPC   H4S 5174   1.620   1.184   6.768  1.5108 -2.3457 -1.2543
   64SAPC   C25 5175   1.648   1.256   6.969 -0.6711  0.0176 -0.4726
   64SAPC   H5R 5176   1.732   1.323   6.946 -0.1862 -0.8587 -1.3581
   64SAPC   C26 5177   1.602   1.274   7.090  1.0641 -0.6441  0.2906
   64SAPC   H6R 5178   1.630   1.364   7.147 -0.8498 -0.9459  1.8090
   64SAPC   C27 5179   1.498   1.183   7.155  0.2400 -0.0588  0.4486
   64SAPC   H7R 5180   1.538   1.080   7.142  1.4560  0.5178 -0.5296
   64SAPC   H7S 5181   1.402   1.194   7.100  0.6474  2.9589  0.1511
   64SAPC   C28 5182   1.460   1.207   7.294  0.6591  0.6217 -0.3881
   64SAPC   H8R 5183   1.361   1.252   7.309  0.3738 -0.2295  0.3597
   64SAPC   C29 5184   1.541   1.181   7.402  0.0886  0.4290 -0.2827
   64SAPC   H9R 5185   1.497   1.215   7.498  0.1271  1.1817 -0.5293
   64SAPC  C210 5186   1.675   1.116   7.401  0.6806  0.1121 -0.4792
   64SAPC  H10R 5187   1.735   1.169   7.323  1.7153  1.4304  1.1507
   64SAPC  H10S 5188   1.670   1.017   7.351  0.3882  0.0221 -0.2743
   64SAPC  C211 5189   1.746   1.093   7.532 -0.7211 -0.0310  0.4793
   64SAPC  H11R 5190   1.757   0.984   7.549  2.2564  0.3053  1.2298
   64SAPC  C212 5191   1.791   1.176   7.627  0.0284 -1.1798  0.4424
   64SAPC  H12R 5192   1.822   1.133   7.723 -0.7472  1.5146  1.9981
   64SAPC  C213 5193   1.783   1.334   7.616 -0.2441 -0.3079  0.3510
   64SAPC  H13R 5194   1.758   1.369   7.514  1.0535  1.2824  0.5334
   64SAPC  H13S 5195   1.875   1.394   7.632 -1.2270  2.0807 -2.1524
   64SAPC  C214 5196   1.676   1.363   7.721  0.0200 -0.4486 -0.7951
   64SAPC  H14R 5197   1.579   1.378   7.671  1.0855  1.6734 -2.4049
   64SAPC  C215 5198   1.691   1.388   7.858 -0.3591  0.0008  0.8036
   64SAPC  H15R 5199   1.603   1.406   7.922 -0.2067 -0.8123  1.2579
   64SAPC  C216 5200   1.819   1.384   7.936 -0.4613  0.2618 -0.3388
   64SAPC  H16R 5201   1.848   1.488   7.961 -0.1042 -0.0796  0.7261
   64SAPC  H16S 5202   1.905   1.352   7.874 -1.3590 -1.2012 -0.8772
   64SAPC  C217 5203   1.821   1.300   8.065  0.3358  0.3402 -0.0578
   64SAPC  H17R 5204   1.756   1.358   8.134  0.3812 -1.3464  1.5045
   64SAPC  H17S 5205   1.926   1.296   8.101  0.0246 -2.4677  0.8591
   64SAPC  C218 5206   1.762   1.148   8.055  0.2764 -0.3944  1.3866
   64SAPC  H18R 5207   1.821   1.102   7.973 -0.3718 -2.9005  2.2230
   64SAPC  H18S 5208   1.656   1.147   8.023  1.0438 -1.4040 -1.3915
   64SAPC  C219 5209   1.794   1.070   8.181 -0.0645  0.2185  0.5082
   64SAPC  H19R 5210   1.904   1.056   8.190  0.2290 -0.8546 -3.1005
   64SAPC  H19S 5211   1.754   0.969   8.160  0.9444  0.2421 -1.9108
   64SAPC  C220 5212   1.727   1.131   8.307 -0.9577 -0.3491 -0.2229
   64SAPC  H20R 5213   1.743   1.240   8.312 -1.4959 -0.2346 -0.8692
   64SAPC  H20S 5214   1.770   1.077   8.394  1.0930 -2.6970 -2.4909
   64SAPC  H20T 5215   1.617   1.114   8.308 -1.0912  0.5289  0.5111
   64SAPC   C33 5216   2.035   1.440   6.720  1.1780 -0.1817  0.0629
   64SAPC   H3X 5217   1.972   1.352   6.747  0.1602  0.3503 -0.4840
   64SAPC   H3Y 5218   2.007   1.474   6.618 -1.3711 -0.4794  0.5904
   64SAPC   C34 5219   1.991   1.550   6.810  0.2365  0.0620  0.4950
   64SAPC   H4X 5220   1.881   1.565   6.797 -0.3081 -0.5795  3.6521
   64SAPC   H4Y 5221   2.036   1.649   6.787  0.6204 -0.1206  0.4680
   64SAPC   C35 5222   2.002   1.523   6.957  0.0958  0.7315  0.2022
   64SAPC   H5X 5223   2.111   1.520   6.980  0.1718  0.5262 -0.1831
   64SAPC   H5Y 5224   1.956   1.430   6.998  0.9890  0.9416  1.7734
   64SAPC   C36 5225   1.954   1.631   7.045  0.2529 -1.2427  0.0904
   64SAPC   H6X 5226   1.852   1.670   7.021  0.4504  0.1258  1.3197
   64SAPC   H6Y 5227   2.014   1.722   7.023 -1.2844 -0.7943 -2.6896
   64SAPC   C37 5228   1.983   1.604   7.196  0.2307 -0.7387  0.0823
   64SAPC   H7X 5229   2.094   1.605   7.197  0.2291 -0.6153  0.3125
   64SAPC   H7Y 5230   1.959   1.500   7.225 -2.2202  0.2173  1.9381
   64SAPC   C38 5231   1.925   1.709   7.295 -0.1636 -0.0895 -0.9611
   64SAPC   H8X 5232   1.817   1.691   7.276 -0.0410 -1.6335 -0.3473
   64SAPC   H8Y 5233   1.953   1.815   7.277  1.1947  0.0593  1.5519
   64SAPC   C39 5234   1.957   1.674   7.444 -0.4640 -0.1286 -0.5356
   64SAPC   H9X 5235   2.066   1.656   7.453 -0.4158 -0.0191 -0.8629
   64SAPC   H9Y 5236   1.920   1.570   7.457  0.7238 -0.7675 -1.9395
   64SAPC  C310 5237   1.890   1.777   7.538 -0.3365  0.1330 -0.2780
   64SAPC  H10X 5238   1.787   1.793   7.498 -0.1259 -1.6747 -1.6349
   64SAPC  H10Y 5239   1.945   1.873   7.533  0.0261 -0.0938 -0.6571
   64SAPC  C311 5240   1.876   1.725   7.684  0.1765 -0.2262 -0.3421
   64SAPC  H11X 5241   1.970   1.701   7.738 -0.8515 -1.1164  1.1082
   64SAPC  H11Y 5242   1.818   1.630   7.675 -0.9949  0.5695 -1.5061
   64SAPC  C312 5243   1.797   1.824   7.763  0.1312 -0.1999 -0.4208
   64SAPC  H12X 5244   1.700   1.849   7.716 -0.1586  0.7163  0.6336
   64SAPC  H12Y 5245   1.850   1.922   7.765  1.3383 -0.8366  0.5466
   64SAPC  C313 5246   1.767   1.775   7.905  0.2347  0.0665 -0.4397
   64SAPC  H13X 5247   1.846   1.712   7.952  1.4506  0.3935 -1.9845
   64SAPC  H13Y 5248   1.686   1.699   7.903  1.7619 -1.6350 -1.2386
   64SAPC  C314 5249   1.718   1.894   7.997  0.4304  0.7735  0.5438
   64SAPC  H14X 5250   1.629   1.934   7.944 -0.1278  0.0443  0.9280
   64SAPC  H14Y 5251   1.805   1.963   7.992  0.8866  0.2630  1.3463
   64SAPC  C315 5252   1.675   1.859   8.141 -0.5658  0.3796  0.2020
   64SAPC  H15X 5253   1.572   1.818   8.131 -0.0022 -0.9042 -0.5763
   64SAPC  H15Y 5254   1.658   1.941   8.214 -1.5912 -0.6950  1.2074
   64SAPC  C316 5255   1.759   1.742   8.192  0.3572  0.7248 -0.8997
   64SAPC  H16X 5256   1.744   1.648   8.136 -0.0877  0.6344 -0.6339
   64SAPC  H16Y 5257   1.710   1.710   8.287  1.2307 -0.2089 -0.7539
   64SAPC  C317 5258   1.912   1.768   8.236 -0.6368 -0.0129  0.8892
   64SAPC  H17X 5259   1.911   1.846   8.314 -1.8151  1.1028 -0.1876
   64SAPC  H17Y 5260   1.972   1.807   8.151  1.5596 -0.8373  2.0052
   64SAPC  C318 5261   1.986   1.641   8.263  0.4161 -0.0337  0.1129
   64SAPC  H18X 5262   1.937   1.578   8.341  1.2452 -1.3602 -0.4096
   64SAPC  H18Y 5263   2.092   1.666   8.286  0.7530  0.4037 -1.7766
   64SAPC  H18Z 5264   1.997   1.576   8.174 -0.4407  0.9789 -0.7588
   65SAPC     N 5265   3.660   3.012   6.542 -0.2670  0.8534  0.4795
   65SAPC   C12 5266   3.610   2.879   6.603  0.1037  0.1866 -0.3519
   65SAPC  H12A 5267   3.502   2.884   6.604 -0.0144 -1.2361 -1.7922
   65SAPC  H12B 5268   3.637   2.866   6.706  0.0243 -1.5848 -0.5381
   65SAPC   C13 5269   3.593   3.036   6.405 -0.0906 -0.6230  0.4687
   65SAPC  H13A 5270   3.642   3.119   6.357  0.6773 -0.4046  1.5924
   65SAPC  H13B 5271   3.602   2.947   6.344  1.0805  0.5661 -1.1760
   65SAPC  H13C 5272   3.487   3.055   6.412 -0.5506 -2.1085 -1.5773
   65SAPC   C14 5273   3.627   3.128   6.632 -0.7211  0.2852  0.3123
   65SAPC  H14A 5274   3.678   3.120   6.727 -0.5213 -3.0366  0.0665
   65SAPC  H14B 5275   3.653   3.227   6.597 -0.7889  0.9827  2.1232
   65SAPC  H14C 5276   3.520   3.123   6.646 -0.7959 -1.8442 -0.5401
   65SAPC   C15 5277   3.801   3.001   6.522  0.2110  0.3978 -0.3798
   65SAPC  H15A 5278   3.821   2.939   6.436 -0.5454 -2.1496  1.1685
   65SAPC  H15B 5279   3.850   3.096   6.506 -1.2011  1.0969 -0.7307
   65SAPC  H15C 5280   3.835   2.955   6.614 -2.3869  0.1370  0.5431
   65SAPC   C11 5281   3.655   2.745   6.537 -0.4337  0.6956  0.8904
   65SAPC  H11A 5282   3.619   2.661   6.600  2.8651 -1.0108  0.7220
   65SAPC  H11B 5283   3.765   2.730   6.535 -0.7612 -2.0240  0.0173
   65SAPC     P 5284   3.658   2.671   6.283 -0.0913  0.0057 -0.5899
   65SAPC   O13 5285   3.557   2.585   6.214 -0.1720  0.2680  0.1428
   65SAPC   O14 5286   3.710   2.778   6.195  0.2269 -0.1684  0.0763
   65SAPC   O12 5287   3.592   2.732   6.409 -0.2703 -0.5765  0.0594
   65SAPC   O11 5288   3.772   2.593   6.338  0.2665 -0.2781  0.7003
   65SAPC    C1 5289   3.792   2.445   6.323 -0.2453 -0.7312  0.3721
   65SAPC    HA 5290   3.714   2.385   6.271  0.3257 -0.6250 -0.6200
   65SAPC    HB 5291   3.883   2.429   6.262  0.6230 -1.3272  1.7782
   65SAPC    C2 5292   3.801   2.377   6.460  0.1858 -0.7324 -0.0164
   65SAPC    HS 5293   3.822   2.269   6.443 -0.7431 -1.4851  3.0843
   65SAPC   O21 5294   3.671   2.393   6.526  0.1083 -0.2693 -0.3821
   65SAPC   C21 5295   3.572   2.322   6.486 -0.7691  0.1871  0.7008
   65SAPC   O22 5296   3.586   2.230   6.403  0.1297  0.2889  0.4301
   65SAPC   C22 5297   3.449   2.352   6.570  1.4220 -0.8452 -0.0712
   65SAPC   H2R 5298   3.474   2.405   6.664 -2.7314 -1.0858  1.3762
   65SAPC   H2S 5299   3.378   2.415   6.511  1.6140  0.8671  1.4421
   65SAPC    C3 5300   3.918   2.429   6.554 -0.1259  0.0431 -0.3031
   65SAPC    HX 5301   3.899   2.539   6.555 -2.6796 -0.3362 -1.2776
   65SAPC    HY 5302   4.007   2.396   6.496 -0.1712 -0.2967 -0.1807
   65SAPC   O31 5303   3.941   2.368   6.676 -0.0556 -0.0028  0.1667
   65SAPC   C31 5304   3.893   2.427   6.777 -0.0567  0.1130 -0.6350
   65SAPC   O32 5305   3.846   2.538   6.783 -0.2734 -0.3169 -0.4037
   65SAPC   C32 5306   3.890   2.325   6.893  0.3980  0.7118  0.2141
   65SAPC   H2X 5307   3.995   2.288   6.896 -0.1176 -0.8536  0.3185
   65SAPC   H2Y 5308   3.825   2.237   6.870  2.1401 -1.1532  1.9439
   65SAPC   C23 5309   3.377   2.219   6.608 -0.3978  0.1748 -0.2910
   65SAPC   H3R 5310   3.356   2.161   6.516  1.2631 -0.5068 -0.2760
   65SAPC   H3S 5311   3.279   2.242   6.655 -1.0761 -1.5427 -0.7905
   65SAPC   C24 5312   3.446   2.136   6.707  0.5817  0.0897 -0.4676
   65SAPC   H4R 5313   3.532   2.087   6.657  1.4342  0.8513  0.2288
   65SAPC   H4S 5314   3.382   2.052   6.742 -0.4255  1.1735  0.3814
   65SAPC   C25 5315   3.505   2.204   6.830  0.5258 -0.4850  0.4385
   65SAPC   H5R 5316   3.579   2.277   6.796  0.8715 -0.9457  0.2064
   65SAPC   C26 5317   3.480   2.186   6.960 -0.3552  0.0376  0.0571
   65SAPC   H6R 5318   3.523   2.251   7.038  0.8912  0.3249 -0.8523
   65SAPC   C27 5319   3.380   2.087   7.011 -0.1376  0.0651  0.4076
   65SAPC   H7R 5320   3.433   2.010   7.071  0.4481  3.2810  4.3933
   65SAPC   H7S 5321   3.330   2.033   6.927 -1.6959  0.9976  0.6864
   65SAPC   C28 5322   3.259   2.140   7.079 -0.6427 -0.2697 -0.3768
   65SAPC   H8R 5323   3.169   2.148   7.016 -1.1756  0.6375  0.4775
   65SAPC   C29 5324   3.239   2.181   7.209  0.4940  0.8136 -0.4563
   65SAPC   H9R 5325   3.138   2.207   7.241 -0.2222 -0.7377 -1.3392
   65SAPC  C210 5326   3.347   2.189   7.316  0.2440 -0.0652 -0.6689
   65SAPC  H10R 5327   3.389   2.291   7.314 -1.2997  0.6305  0.2030
   65SAPC  H10S 5328   3.428   2.115   7.299  0.6644  0.4193 -0.7805
   65SAPC  C211 5329   3.276   2.150   7.444  0.6518 -0.0239 -0.3555
   65SAPC  H11R 5330   3.245   2.046   7.461 -0.8992  0.6265  1.1033
   65SAPC  C212 5331   3.256   2.232   7.550 -0.2001  0.0499 -0.4341
   65SAPC  H12R 5332   3.207   2.192   7.640  1.3859 -2.0539 -0.4479
   65SAPC  C213 5333   3.281   2.382   7.559  0.2583  0.0151  0.3924
   65SAPC  H13R 5334   3.318   2.430   7.466  1.8628 -1.4727  0.2093
   65SAPC  H13S 5335   3.348   2.405   7.644  1.9285 -0.0674 -0.8548
   65SAPC  C214 5336   3.149   2.443   7.573  0.2368  0.5698  0.0990
   65SAPC  H14R 5337   3.096   2.451   7.477 -0.8089 -2.2450  0.3603
   65SAPC  C215 5338   3.082   2.507   7.676 -0.5754  0.0816  0.2076
   65SAPC  H15R 5339   2.980   2.543   7.661 -0.6657  1.1755  2.8851
   65SAPC  C216 5340   3.145   2.532   7.809 -0.2102  0.1691 -0.1507
   65SAPC  H16R 5341   3.114   2.630   7.851 -0.9048 -0.2481  0.3417
   65SAPC  H16S 5342   3.254   2.541   7.791  0.2054 -2.6287  0.5347
   65SAPC  C217 5343   3.126   2.424   7.916  0.2159  0.2137  0.4430
   65SAPC  H17R 5344   3.151   2.322   7.880 -0.1075  0.3195 -0.1017
   65SAPC  H17S 5345   3.023   2.420   7.958  0.1598 -2.9742  0.1959
   65SAPC  C218 5346   3.215   2.438   8.042  0.0333 -0.8348  0.2638
   65SAPC  H18R 5347   3.210   2.542   8.079 -0.8162 -0.8628  0.2422
   65SAPC  H18S 5348   3.315   2.401   8.009  0.8569  0.0940  1.6510
   65SAPC  C219 5349   3.163   2.362   8.165 -0.5656 -0.4817  0.2767
   65SAPC  H19R 5350   3.252   2.372   8.231  0.4657  0.3902 -1.1842
   65SAPC  H19S 5351   3.149   2.261   8.122  1.3193 -0.2832 -0.8970
   65SAPC  C220 5352   3.043   2.411   8.243  0.4993  0.3696  0.1454
   65SAPC  H20R 5353   2.944   2.387   8.198  0.8495 -0.5165 -0.1600
   65SAPC  H20S 5354   3.048   2.522   8.247  1.3788  0.5631 -3.2346
   65SAPC  H20T 5355   3.037   2.371   8.346 -0.2196 -0.0102 -0.0327
   65SAPC   C33 5356   3.849   2.378   7.032  0.0500  0.5493  0.5520
   65SAPC   H3X 5357   3.741   2.397   7.049 -0.1522 -0.6118  0.6885
   65SAPC   H3Y 5358   3.899   2.472   7.062  0.2295  0.0138  2.0482
   65SAPC   C34 5359   3.912   2.282   7.140  0.0440  0.7611 -0.4097
   65SAPC   H4X 5360   4.021   2.303   7.146  0.3813 -0.9862  0.0866
   65SAPC   H4Y 5361   3.896   2.176   7.113  0.2249  0.7927 -0.6452
   65SAPC   C35 5362   3.843   2.301   7.281 -0.0784  0.5157  0.1881
   65SAPC   H5X 5363   3.739   2.270   7.255 -0.2404  2.3799 -1.7270
   65SAPC   H5Y 5364   3.845   2.408   7.309 -1.6336  0.8227 -0.7234
   65SAPC   C36 5365   3.907   2.209   7.388 -0.4911  0.5007 -0.2436
   65SAPC   H6X 5366   4.014   2.237   7.383  0.1396 -1.6062  0.3847
   65SAPC   H6Y 5367   3.900   2.099   7.374 -1.9385  0.6704 -1.0257
   65SAPC   C37 5368   3.836   2.252   7.520 -0.4174  0.2102 -0.1550
   65SAPC   H7X 5369   3.828   2.363   7.528 -2.7574  0.1596 -0.9327
   65SAPC   H7Y 5370   3.899   2.218   7.605  0.8012  1.8244 -0.3627
   65SAPC   C38 5371   3.697   2.185   7.526  0.1930  0.2336 -0.8598
   65SAPC   H8X 5372   3.710   2.075   7.530 -1.6625  0.0142  0.1948
   65SAPC   H8Y 5373   3.641   2.217   7.435 -0.2928  0.5897 -0.4390
   65SAPC   C39 5374   3.614   2.219   7.648  0.1239  0.0400 -0.9669
   65SAPC   H9X 5375   3.508   2.194   7.626 -0.7099  2.3108  0.1576
   65SAPC   H9Y 5376   3.621   2.329   7.660  0.6862 -0.0658 -0.1853
   65SAPC  C310 5377   3.660   2.147   7.766 -0.1762 -0.0118 -0.0191
   65SAPC  H10X 5378   3.767   2.170   7.786 -0.3288  0.4584  0.2591
   65SAPC  H10Y 5379   3.638   2.038   7.756  1.0418 -0.2279 -0.4531
   65SAPC  C311 5380   3.601   2.205   7.895  1.0889 -0.2176 -0.0216
   65SAPC  H11X 5381   3.492   2.203   7.872  1.0637  0.5226 -0.0028
   65SAPC  H11Y 5382   3.635   2.306   7.925  1.2324 -0.8006  1.9035
   65SAPC  C312 5383   3.617   2.103   8.008  0.1039 -0.6265 -0.0116
   65SAPC  H12X 5384   3.719   2.111   8.051 -0.6312  0.8918  1.5564
   65SAPC  H12Y 5385   3.617   1.998   7.971  2.2523 -0.4205 -0.7194
   65SAPC  C313 5386   3.527   2.112   8.128 -0.1265 -0.2329 -0.0965
   65SAPC  H13X 5387   3.423   2.080   8.107  0.8384 -3.0826 -1.0404
   65SAPC  H13Y 5388   3.526   2.222   8.144 -2.8256 -0.3750  1.3019
   65SAPC  C314 5389   3.581   2.029   8.251  0.6028 -0.2482 -0.2377
   65SAPC  H14X 5390   3.682   1.988   8.228  1.4947  0.0086  2.8006
   65SAPC  H14Y 5391   3.506   1.953   8.281 -1.0538  1.9165  1.4761
   65SAPC  C315 5392   3.603   2.122   8.371 -0.2922 -0.0267 -0.0335
   65SAPC  H15X 5393   3.507   2.150   8.420  0.3669 -0.3437  1.5028
   65SAPC  H15Y 5394   3.658   2.213   8.340  1.4590 -0.3084  2.0241
   65SAPC  C316 5395   3.680   2.051   8.480  0.4328 -0.3736 -0.4778
   65SAPC  H16X 5396   3.774   2.009   8.438 -0.0325 -3.1187  0.9583
   65SAPC  H16Y 5397   3.614   1.972   8.522 -0.5986 -0.4454 -2.1460
   65SAPC  C317 5398   3.718   2.142   8.594  0.0239  0.0165  0.3743
   65SAPC  H17X 5399   3.620   2.183   8.628 -0.5619 -0.8974 -0.1898
   65SAPC  H17Y 5400   3.774   2.230   8.555  1.2806 -1.8187 -2.2564
   65SAPC  C318 5401   3.800   2.065   8.700  0.2866 -0.6263  0.1744
   65SAPC  H18X 5402   3.906   2.041   8.678  1.3476  1.1771  2.7968
   65SAPC  H18Y 5403   3.739   1.972   8.709 -0.7432  0.1362  1.5993
   65SAPC  H18Z 5404   3.807   2.121   8.796  1.9030 -2.1198  0.9842
   66SAPC     N 5405   0.711   0.904   5.908  0.6141  0.0376 -0.2680
   66SAPC   C12 5406   0.746   0.782   5.996  0.2897  0.2841  0.0440
   66SAPC  H12A 5407   0.854   0.781   6.004  0.2612  0.1173  0.4427
   66SAPC  H12B 5408   0.718   0.689   5.949  1.2040  0.0233 -0.0153
   66SAPC   C13 5409   0.803   0.901   5.794  0.3444  0.4421 -0.1028
   66SAPC  H13A 5410   0.808   0.809   5.737 -0.3079 -0.5085  1.3197
   66SAPC  H13B 5411   0.791   0.981   5.721  0.9503  2.8667  2.2966
   66SAPC  H13C 5412   0.900   0.915   5.838  1.3949  0.0225 -2.1679
   66SAPC   C14 5413   0.574   0.893   5.864  0.1272  0.8152  0.1852
   66SAPC  H14A 5414   0.528   0.987   5.837 -2.6584 -0.6951 -0.7270
   66SAPC  H14B 5415   0.574   0.824   5.781  2.4449  0.2419  0.6003
   66SAPC  H14C 5416   0.507   0.851   5.938  0.4896  1.0986  0.6804
   66SAPC   C15 5417   0.738   1.024   6.000 -0.0657  0.1038  0.0196
   66SAPC  H15A 5418   0.836   1.018   6.044  0.6807  1.0898 -1.4488
   66SAPC  H15B 5419   0.722   1.123   5.959  2.2837  0.1384 -0.9383
   66SAPC  H15C 5420   0.671   1.019   6.085 -1.5935  0.8213 -1.0981
   66SAPC   C11 5421   0.693   0.779   6.138  0.4989  0.0170  0.5184
   66SAPC  H11A 5422   0.719   0.863   6.205  0.0048  0.0242  0.7035
   66SAPC  H11B 5423   0.735   0.692   6.194 -0.4031 -0.0878  1.0493
   66SAPC     P 5424   0.449   0.868   6.204  0.1452 -0.4053  0.0775
   66SAPC   O13 5425   0.506   0.994   6.262  0.2641  0.2973  0.4161
   66SAPC   O14 5426   0.348   0.883   6.099  0.2673 -0.3401  0.5556
   66SAPC   O12 5427   0.556   0.770   6.144  0.1549  0.1099 -0.0606
   66SAPC   O11 5428   0.390   0.777   6.319  0.3536  0.0381 -0.4221
   66SAPC    C1 5429   0.475   0.699   6.404 -0.5806  0.5393  0.7953
   66SAPC    HA 5430   0.510   0.609   6.348 -1.1965 -0.9079  2.6454
   66SAPC    HB 5431   0.568   0.758   6.423  0.7346 -1.1949  0.0096
   66SAPC    C2 5432   0.423   0.679   6.540  0.0846  0.9741 -0.4804
   66SAPC    HS 5433   0.504   0.645   6.608 -1.1016  1.6604  1.3703
   66SAPC   O21 5434   0.303   0.597   6.549  0.3331  0.1651 -0.1708
   66SAPC   C21 5435   0.329   0.469   6.550 -0.4738  0.4902 -0.5975
   66SAPC   O22 5436   0.439   0.420   6.553 -0.1667  0.2426 -0.2843
   66SAPC   C22 5437   0.199   0.390   6.526 -0.6004 -0.1061 -0.2383
   66SAPC   H2R 5438   0.124   0.410   6.606  0.2431  1.9720  0.0984
   66SAPC   H2S 5439   0.160   0.425   6.428  0.7999 -0.6225 -0.9989
   66SAPC    C3 5440   0.394   0.816   6.603  0.3078 -0.1992  0.2596
   66SAPC    HX 5441   0.326   0.868   6.531  0.8148  0.4774  0.2638
   66SAPC    HY 5442   0.487   0.876   6.592 -1.5675  2.5912 -1.9492
   66SAPC   O31 5443   0.329   0.822   6.729 -0.5492 -0.2226  0.4053
   66SAPC   C31 5444   0.393   0.782   6.828 -0.8377  0.3632  0.0259
   66SAPC   O32 5445   0.514   0.757   6.841  0.2644  0.1149  0.1224
   66SAPC   C32 5446   0.298   0.769   6.945  0.3006  0.3822 -0.4307
   66SAPC   H2X 5447   0.207   0.715   6.913  1.4609 -1.4022 -0.8858
   66SAPC   H2Y 5448   0.257   0.867   6.974 -2.3154 -0.9406  0.6190
   66SAPC   C23 5449   0.218   0.236   6.526  0.0436  0.1298  0.5980
   66SAPC   H3R 5450   0.312   0.212   6.472  1.2107  1.7358  1.8226
   66SAPC   H3S 5451   0.135   0.177   6.481  0.9737  0.0411 -1.1001
   66SAPC   C24 5452   0.216   0.177   6.663 -0.5571 -0.2423 -0.5379
   66SAPC   H4R 5453   0.180   0.072   6.661 -0.6956 -0.2502  1.2304
   66SAPC   H4S 5454   0.133   0.219   6.724  0.8514  0.9996  0.5739
   66SAPC   C25 5455   0.345   0.207   6.731 -0.1659  0.3543 -0.5296
   66SAPC   H5R 5456   0.436   0.180   6.675 -0.3880  0.8817 -1.1628
   66SAPC   C26 5457   0.359   0.248   6.862 -0.7539 -0.6626  0.0204
   66SAPC   H6R 5458   0.460   0.257   6.903 -0.5691  0.7216 -0.6911
   66SAPC   C27 5459   0.242   0.278   6.954  0.6444  0.3475  0.4016
   66SAPC   H7R 5460   0.159   0.334   6.907 -1.8610 -3.8863 -0.7270
   66SAPC   H7S 5461   0.291   0.346   7.027  1.7554  0.6776 -0.6275
   66SAPC   C28 5462   0.199   0.152   7.020 -0.0960  0.3513  0.5170
   66SAPC   H8R 5463   0.228   0.050   6.991  0.5842  0.2923  1.3550
   66SAPC   C29 5464   0.111   0.155   7.121  0.7354  0.1822 -1.2781
   66SAPC   H9R 5465   0.070   0.063   7.165  0.1908  2.0299  2.4311
   66SAPC  C210 5466   0.052   0.282   7.181 -0.1103 -0.1738 -0.0374
   66SAPC  H10R 5467  -0.052   0.261   7.214  0.5461 -1.1319  1.5686
   66SAPC  H10S 5468   0.047   0.357   7.100  3.9286  0.7796  0.4027
   66SAPC  C211 5469   0.118   0.352   7.299 -0.1864  0.2118  0.1624
   66SAPC  H11R 5470   0.188   0.428   7.261 -0.2345 -0.2659 -0.9043
   66SAPC  C212 5471   0.104   0.328   7.430  0.4392  0.1627  0.6648
   66SAPC  H12R 5472   0.149   0.397   7.503  0.0453 -0.8642  1.9112
   66SAPC  C213 5473   0.021   0.212   7.490 -0.3818 -0.9027  0.1401
   66SAPC  H13R 5474  -0.024   0.152   7.409 -0.1776  0.8540 -1.3504
   66SAPC  H13S 5475  -0.059   0.267   7.543  2.0351  2.6249  0.4802
   66SAPC  C214 5476   0.098   0.123   7.581 -0.7195 -0.9691  0.7829
   66SAPC  H14R 5477   0.135   0.039   7.519  3.7061  1.9298 -1.0050
   66SAPC  C215 5478   0.114   0.120   7.711  0.0676  0.9317  0.0734
   66SAPC  H15R 5479   0.161   0.031   7.757 -1.0091  0.7144  0.8021
   66SAPC  C216 5480   0.064   0.225   7.803 -0.1602  0.9141  0.1587
   66SAPC  H16R 5481  -0.035   0.196   7.847  0.5500 -3.0813 -0.5013
   66SAPC  H16S 5482   0.068   0.325   7.755 -1.4318  1.3006  0.7773
   66SAPC  C217 5483   0.157   0.240   7.930 -0.4077  0.2223  0.2220
   66SAPC  H17R 5484   0.108   0.329   7.974 -0.2418  1.3305 -1.7547
   66SAPC  H17S 5485   0.259   0.271   7.900 -0.4369  2.6521  2.3032
   66SAPC  C218 5486   0.163   0.134   8.042  0.5354 -0.7812 -0.7788
   66SAPC  H18R 5487   0.234   0.059   8.001  2.1148 -1.3844  2.6504
   66SAPC  H18S 5488   0.069   0.079   8.059  0.7138 -0.4120  1.7773
   66SAPC  C219 5489   0.220   0.181   8.177 -0.1740  1.0283  0.0545
   66SAPC  H19R 5490   0.315   0.236   8.160  1.0894 -0.4444  1.8935
   66SAPC  H19S 5491   0.248   0.083   8.221 -0.1582 -0.7312 -3.5511
   66SAPC  C220 5492   0.124   0.258   8.261 -0.2633  0.6563 -0.3034
   66SAPC  H20R 5493   0.106   0.356   8.212  2.2823  1.6183  0.5148
   66SAPC  H20S 5494   0.175   0.279   8.358  0.7706  1.3115 -0.9624
   66SAPC  H20T 5495   0.028   0.202   8.264 -0.7603  1.4444 -1.1312
   66SAPC   C33 5496   0.359   0.710   7.071 -0.4266  0.1428 -0.3949
   66SAPC   H3X 5497   0.443   0.770   7.112  0.6233 -1.0972 -0.6554
   66SAPC   H3Y 5498   0.415   0.615   7.060  1.4472  1.1197  0.1339
   66SAPC   C34 5499   0.257   0.704   7.188  0.5201 -0.4943  0.1332
   66SAPC   H4X 5500   0.192   0.615   7.176  1.6576 -1.2558 -0.7148
   66SAPC   H4Y 5501   0.198   0.797   7.201  1.1047 -0.0951 -0.0082
   66SAPC   C35 5502   0.340   0.691   7.319 -0.5395  0.5336 -0.3389
   66SAPC   H5X 5503   0.420   0.766   7.333 -0.0946 -0.1427  0.8207
   66SAPC   H5Y 5504   0.386   0.590   7.321 -2.3316 -0.3198  0.3166
   66SAPC   C36 5505   0.234   0.688   7.437 -0.1873  0.5692  0.7711
   66SAPC   H6X 5506   0.160   0.605   7.434  0.1682  0.2724  0.1191
   66SAPC   H6Y 5507   0.177   0.783   7.429 -2.0377 -0.6498 -1.7585
   66SAPC   C37 5508   0.304   0.665   7.568  0.2247  0.0108  0.3607
   66SAPC   H7X 5509   0.390   0.733   7.585 -0.2799  0.2322  2.1987
   66SAPC   H7Y 5510   0.344   0.562   7.570 -1.2530 -0.5774  0.7005
   66SAPC   C38 5511   0.210   0.672   7.693 -0.0827 -0.4192 -0.3358
   66SAPC   H8X 5512   0.115   0.616   7.687  0.4468 -1.2723 -1.0794
   66SAPC   H8Y 5513   0.155   0.768   7.690  0.0881 -0.3412 -1.7649
   66SAPC   C39 5514   0.275   0.641   7.831  0.5493 -0.2923  0.6073
   66SAPC   H9X 5515   0.361   0.711   7.831  1.5516 -1.4817  0.5919
   66SAPC   H9Y 5516   0.318   0.538   7.830 -3.5288 -2.1819 -1.1185
   66SAPC  C310 5517   0.193   0.656   7.961 -0.4978  0.1509  0.8338
   66SAPC  H10X 5518   0.097   0.603   7.945  1.5865 -4.2326  1.4463
   66SAPC  H10Y 5519   0.167   0.763   7.976 -0.5703  0.5664 -1.8682
   66SAPC  C311 5520   0.265   0.608   8.093  0.4403  0.4578 -0.3556
   66SAPC  H11X 5521   0.354   0.674   8.100  0.7303 -0.0669  1.7501
   66SAPC  H11Y 5522   0.288   0.501   8.076 -0.0926  0.1560  0.6984
   66SAPC  C312 5523   0.189   0.630   8.224 -0.2542 -0.6664  0.3074
   66SAPC  H12X 5524   0.091   0.578   8.216 -0.2673 -0.4124 -1.5128
   66SAPC  H12Y 5525   0.165   0.737   8.240  0.6423 -0.3452 -0.4407
   66SAPC  C313 5526   0.265   0.579   8.342 -0.9868 -0.1682  0.2439
   66SAPC  H13X 5527   0.349   0.650   8.361 -0.4909 -0.6437 -0.1244
   66SAPC  H13Y 5528   0.320   0.487   8.310 -1.4921 -0.6100  0.6194
   66SAPC  C314 5529   0.175   0.534   8.465  0.0166  0.2189 -0.4346
   66SAPC  H14X 5530   0.234   0.457   8.519  0.4032  0.2656 -0.7899
   66SAPC  H14Y 5531   0.077   0.492   8.432 -0.1553 -0.0214  0.3404
   66SAPC  C315 5532   0.158   0.653   8.570 -0.1199  0.6267 -0.3127
   66SAPC  H15X 5533   0.091   0.611   8.648 -0.7527  0.9999 -0.6481
   66SAPC  H15Y 5534   0.102   0.732   8.515 -0.5478 -1.6361 -3.4054
   66SAPC  C316 5535   0.289   0.702   8.626 -0.2058 -0.1961  0.2388
   66SAPC  H16X 5536   0.333   0.764   8.544 -1.3006  0.4435  0.1231
   66SAPC  H16Y 5537   0.351   0.612   8.647 -2.1918 -1.2267  2.0074
   66SAPC  C317 5538   0.265   0.799   8.740  0.2813  0.3319 -0.3762
   66SAPC  H17X 5539   0.359   0.842   8.781  0.1729 -0.7288  1.1175
   66SAPC  H17Y 5540   0.227   0.748   8.832 -2.0087 -1.7541 -2.3191
   66SAPC  C318 5541   0.172   0.918   8.708  0.0881  0.4452  0.2943
   66SAPC  H18X 5542   0.216   0.974   8.623  1.0739 -1.1021 -0.2542
   66SAPC  H18Y 5543   0.173   0.978   8.801  1.5405  0.0767  0.5332
   66SAPC  H18Z 5544   0.066   0.888   8.693 -0.0104  0.3835  1.0892
   67SAPC     N 5545   2.211   2.843   6.521 -0.1423 -0.1378 -0.5947
   67SAPC   C12 5546   2.173   2.965   6.609 -0.6074  0.3484  0.0209
   67SAPC  H12A 5547   2.159   3.056   6.553  0.8504 -1.0185 -2.7413
   67SAPC  H12B 5548   2.264   2.997   6.659 -0.0577  1.2978 -1.5136
   67SAPC   C13 5549   2.293   2.890   6.407  0.0250 -0.1176  0.5545
   67SAPC  H13A 5550   2.297   2.812   6.331 -1.1418 -0.9385  1.2981
   67SAPC  H13B 5551   2.267   2.977   6.349  2.9057  0.1464 -0.5180
   67SAPC  H13C 5552   2.393   2.912   6.441  0.4400 -0.9884 -0.0429
   67SAPC   C14 5553   2.274   2.733   6.598 -0.5950 -0.5536 -0.2833
   67SAPC  H14A 5554   2.315   2.655   6.536  0.5103  0.8550 -1.4165
   67SAPC  H14B 5555   2.356   2.764   6.662 -1.2828  1.0568 -0.1123
   67SAPC  H14C 5556   2.196   2.686   6.656 -0.8655  0.8729  0.5540
   67SAPC   C15 5557   2.085   2.788   6.462  0.7156 -0.2671 -0.4979
   67SAPC  H15A 5558   2.008   2.768   6.535  2.0675  1.8499  1.6586
   67SAPC  H15B 5559   2.041   2.849   6.385 -1.7920 -1.0605  0.2047
   67SAPC  H15C 5560   2.104   2.689   6.424 -0.7807 -0.5184 -0.6601
   67SAPC   C11 5561   2.056   2.943   6.714 -0.3391 -0.2863  0.7383
   67SAPC  H11A 5562   2.053   3.034   6.778  0.2759  1.7330 -1.8854
   67SAPC  H11B 5563   2.093   2.864   6.782  2.4011  1.3245  1.2838
   67SAPC     P 5564   1.836   3.025   6.600  0.3973 -0.2320  0.0624
   67SAPC   O13 5565   1.917   3.112   6.517 -0.3359  0.5353  0.2931
   67SAPC   O14 5566   1.718   2.964   6.536  0.6803 -0.1946  0.0663
   67SAPC   O12 5567   1.926   2.912   6.658  0.3272  0.4988  0.2570
   67SAPC   O11 5568   1.789   3.087   6.739 -0.3038  0.8179  0.0803
   67SAPC    C1 5569   1.839   3.215   6.769  0.1956  0.0643  0.0499
   67SAPC    HA 5570   1.896   3.212   6.864 -0.6656  0.9422  0.6161
   67SAPC    HB 5571   1.908   3.261   6.695  0.8928  1.1401  1.3180
   67SAPC    C2 5572   1.723   3.311   6.789  0.5390  0.4716  0.2711
   67SAPC    HS 5573   1.778   3.407   6.788  1.4305 -0.0266 -0.7575
   67SAPC   O21 5574   1.646   3.283   6.912 -0.1500  0.1292 -0.4207
   67SAPC   C21 5575   1.693   3.344   7.019  0.4537 -0.8558 -0.5848
   67SAPC   O22 5576   1.786   3.424   7.017 -0.3392  0.1485 -0.0731
   67SAPC   C22 5577   1.625   3.308   7.157 -1.0360 -0.1210 -0.9859
   67SAPC   H2R 5578   1.557   3.389   7.189 -3.4447 -2.1623 -0.5935
   67SAPC   H2S 5579   1.574   3.209   7.155 -1.7967  0.2558 -0.4966
   67SAPC    C3 5580   1.627   3.310   6.672 -0.1996  0.3913  0.4379
   67SAPC    HX 5581   1.564   3.219   6.675 -1.0072  0.9295  0.0730
   67SAPC    HY 5582   1.699   3.312   6.587  1.7271 -0.2588  1.9745
   67SAPC   O31 5583   1.539   3.421   6.677 -0.4818 -0.4846  0.1371
   67SAPC   C31 5584   1.446   3.418   6.582  0.1752 -0.6055  0.5509
   67SAPC   O32 5585   1.424   3.327   6.504  0.3673  0.3102 -0.0938
   67SAPC   C32 5586   1.344   3.538   6.609 -0.3229 -0.6711  0.6055
   67SAPC   H2X 5587   1.269   3.547   6.528 -0.2765  0.4987  0.6691
   67SAPC   H2Y 5588   1.397   3.636   6.605  1.0297 -1.3809  0.6869
   67SAPC   C23 5589   1.731   3.292   7.269 -0.1407  0.3735 -0.5282
   67SAPC   H3R 5590   1.766   3.393   7.298  1.8738 -0.7972  1.4237
   67SAPC   H3S 5591   1.819   3.237   7.229 -0.0353  0.7842 -0.8743
   67SAPC   C24 5592   1.666   3.213   7.385 -0.1368 -0.9306  0.3566
   67SAPC   H4R 5593   1.756   3.174   7.437 -0.2236  0.3515  1.5286
   67SAPC   H4S 5594   1.609   3.124   7.353 -3.7796  0.9441  1.1300
   67SAPC   C25 5595   1.571   3.296   7.465  0.2250  0.6443 -0.1309
   67SAPC   H5R 5596   1.496   3.349   7.404  0.7968  1.2304 -0.3395
   67SAPC   C26 5597   1.564   3.313   7.599 -0.1607  0.3929  0.9775
   67SAPC   H6R 5598   1.481   3.367   7.646 -1.3178 -1.2051  0.8490
   67SAPC   C27 5599   1.658   3.247   7.691  0.8191 -0.3907  0.4274
   67SAPC   H7R 5600   1.764   3.265   7.662  0.7161 -1.9567 -1.0903
   67SAPC   H7S 5601   1.643   3.137   7.681  2.2545 -0.7600  1.8917
   67SAPC   C28 5602   1.656   3.297   7.831  0.1203  0.1666  0.0536
   67SAPC   H8R 5603   1.698   3.397   7.847 -0.0450  0.1689  0.4822
   67SAPC   C29 5604   1.591   3.239   7.935 -0.0657 -0.1110  0.1535
   67SAPC   H9R 5605   1.600   3.288   8.033  3.8247 -1.3783  0.5937
   67SAPC  C210 5606   1.511   3.114   7.941 -0.2343 -0.2413  0.7926
   67SAPC  H10R 5607   1.481   3.080   7.840  0.4346  2.7663 -0.5406
   67SAPC  H10S 5608   1.419   3.145   7.995 -0.9153  1.1202 -1.0222
   67SAPC  C211 5609   1.603   3.006   8.002  0.3191 -0.2214  0.5482
   67SAPC  H11R 5610   1.669   2.958   7.929 -1.3391 -0.0785 -1.1416
   67SAPC  C212 5611   1.598   2.958   8.124 -1.1311 -0.1078 -0.3927
   67SAPC  H12R 5612   1.676   2.883   8.144 -1.4838 -0.3999 -0.1026
   67SAPC  C213 5613   1.515   3.015   8.232  0.1023  0.3996 -0.5428
   67SAPC  H13R 5614   1.509   3.125   8.226  1.5541  0.5341  0.0529
   67SAPC  H13S 5615   1.566   3.006   8.330  0.0422  0.2017 -0.5281
   67SAPC  C214 5616   1.371   2.960   8.237  0.1395 -0.1940  0.3530
   67SAPC  H14R 5617   1.320   2.979   8.142 -1.0336  0.7406  1.1458
   67SAPC  C215 5618   1.301   2.918   8.351 -0.0986  0.0293 -0.0641
   67SAPC  H15R 5619   1.196   2.890   8.339 -0.0732  0.6210 -2.1160
   67SAPC  C216 5620   1.352   2.911   8.491  0.0940  0.7330  0.3220
   67SAPC  H16R 5621   1.287   2.963   8.565 -0.4988 -1.6978  1.6150
   67SAPC  H16S 5622   1.448   2.965   8.504  1.2679 -0.2973 -3.0238
   67SAPC  C217 5623   1.362   2.759   8.535  0.0526 -0.2175 -0.1595
   67SAPC  H17R 5624   1.425   2.704   8.462  1.1007  0.9665 -0.1841
   67SAPC  H17S 5625   1.261   2.713   8.522 -0.9231  1.6475  0.4727
   67SAPC  C218 5626   1.413   2.739   8.676 -0.5335 -0.3367  0.5948
   67SAPC  H18R 5627   1.512   2.790   8.682  1.1305 -3.4126  1.1821
   67SAPC  H18S 5628   1.420   2.630   8.697 -0.2533 -0.8079 -1.7244
   67SAPC  C219 5629   1.320   2.804   8.777 -0.2495  0.5777 -0.4769
   67SAPC  H19R 5630   1.218   2.763   8.764 -0.4176 -0.6780  3.4182
   67SAPC  H19S 5631   1.322   2.915   8.768  0.7948  0.4814 -1.5771
   67SAPC  C220 5632   1.366   2.782   8.928 -0.0323  0.3915 -0.1108
   67SAPC  H20R 5633   1.286   2.807   9.000 -1.7141 -0.8088 -1.4702
   67SAPC  H20S 5634   1.468   2.819   8.952  0.2952 -0.9534  0.6761
   67SAPC  H20T 5635   1.385   2.674   8.945 -0.3444  0.1516 -1.1733
   67SAPC   C33 5636   1.281   3.522   6.750 -0.3917 -0.1675 -0.5248
   67SAPC   H3X 5637   1.209   3.603   6.772 -1.5906 -1.6967  1.4991
   67SAPC   H3Y 5638   1.365   3.533   6.822 -0.5721 -0.0561 -0.3316
   67SAPC   C34 5639   1.206   3.388   6.771 -0.1030 -0.4028  0.4656
   67SAPC   H4X 5640   1.267   3.296   6.770 -0.6091 -0.7988 -2.0653
   67SAPC   H4Y 5641   1.127   3.375   6.694 -0.7468  0.2161  1.0010
   67SAPC   C35 5642   1.128   3.378   6.900  0.5169  0.4115 -0.0498
   67SAPC   H5X 5643   1.044   3.306   6.889  1.2429 -0.7036  1.3385
   67SAPC   H5Y 5644   1.082   3.478   6.919  2.1113  0.8826  1.7168
   67SAPC   C36 5645   1.219   3.329   7.015  0.4339 -0.5170 -0.7869
   67SAPC   H6X 5646   1.313   3.388   7.011 -0.1610  0.4311 -1.4002
   67SAPC   H6Y 5647   1.231   3.220   7.004 -0.5190 -0.5237 -2.0308
   67SAPC   C37 5648   1.147   3.348   7.150  0.0432 -0.5274 -1.0131
   67SAPC   H7X 5649   1.040   3.319   7.152 -0.0687 -0.0955 -0.2466
   67SAPC   H7Y 5650   1.151   3.454   7.183  1.9302 -0.8513 -0.0348
   67SAPC   C38 5651   1.211   3.267   7.260 -0.9626 -0.7302 -0.4244
   67SAPC   H8X 5652   1.307   3.314   7.290 -1.1817 -0.1508 -0.6195
   67SAPC   H8Y 5653   1.232   3.164   7.225 -1.6722 -0.7877 -0.7094
   67SAPC   C39 5654   1.113   3.260   7.388  0.2616  0.2136 -0.2873
   67SAPC   H9X 5655   1.035   3.186   7.361  2.0294 -0.7065 -3.2946
   67SAPC   H9Y 5656   1.074   3.361   7.413 -0.6764 -1.2678  6.1179
   67SAPC  C310 5657   1.193   3.219   7.514 -0.2128  0.4094  0.2856
   67SAPC  H10X 5658   1.275   3.293   7.531 -0.4385  0.7800 -0.2226
   67SAPC  H10Y 5659   1.236   3.120   7.486  0.2048  1.4412 -3.2336
   67SAPC  C311 5660   1.118   3.218   7.641 -0.0493  0.5017  0.2467
   67SAPC  H11X 5661   1.044   3.134   7.640  0.6090 -0.0919  0.5397
   67SAPC  H11Y 5662   1.059   3.312   7.650 -1.2556 -0.0796 -1.2333
   67SAPC  C312 5663   1.206   3.180   7.757  0.0059 -0.4520 -1.1634
   67SAPC  H12X 5664   1.284   3.259   7.766  0.9285 -1.4951  0.4547
   67SAPC  H12Y 5665   1.268   3.091   7.734  0.1265 -0.4106 -1.0031
   67SAPC  C313 5666   1.131   3.169   7.886  0.6770 -0.5361  0.0229
   67SAPC  H13X 5667   1.070   3.262   7.888  0.3942 -0.6939 -0.8411
   67SAPC  H13Y 5668   1.194   3.169   7.978  1.4965  1.0895 -0.5135
   67SAPC  C314 5669   1.030   3.060   7.894  0.0730  0.5316  0.0640
   67SAPC  H14X 5670   1.075   2.959   7.882  0.8759  0.8910  0.0435
   67SAPC  H14Y 5671   0.948   3.072   7.820  1.3970 -0.6134 -1.6642
   67SAPC  C315 5672   0.960   3.056   8.033 -0.0241  0.1322 -0.9335
   67SAPC  H15X 5673   0.896   3.144   8.052 -2.4109 -1.5950 -0.4746
   67SAPC  H15Y 5674   1.039   3.073   8.109 -0.5100  0.7804 -0.5685
   67SAPC  C316 5675   0.884   2.930   8.072 -0.1403  0.2052  1.0017
   67SAPC  H16X 5676   0.958   2.847   8.080 -0.1051 -0.1337 -1.8383
   67SAPC  H16Y 5677   0.823   2.892   7.987  0.7313 -0.0549  0.4656
   67SAPC  C317 5678   0.800   2.941   8.203 -0.5035  0.4209  0.3141
   67SAPC  H17X 5679   0.725   3.019   8.182  0.9242  1.3103 -1.8557
   67SAPC  H17Y 5680   0.860   2.973   8.291  0.0588 -0.5212  0.2869
   67SAPC  C318 5681   0.721   2.811   8.240  0.5809  1.0572  0.0406
   67SAPC  H18X 5682   0.788   2.734   8.285 -2.0168 -1.2425  0.2240
   67SAPC  H18Y 5683   0.668   2.766   8.154 -1.5864  1.4944  1.0680
   67SAPC  H18Z 5684   0.643   2.831   8.317 -0.6269  0.1246 -0.8950
   68SAPC     N 5685   0.180   1.880   6.219 -0.6017 -0.5000 -0.3816
   68SAPC   C12 5686   0.300   1.945   6.304  0.2843  0.4796 -0.4614
   68SAPC  H12A 5687   0.394   1.894   6.286 -0.9267 -2.0281 -0.1846
   68SAPC  H12B 5688   0.285   1.931   6.410  2.4552  2.7019  0.2426
   68SAPC   C13 5689   0.193   1.917   6.076 -0.2461  0.2582 -0.3275
   68SAPC  H13A 5690   0.174   2.021   6.052  1.6468  1.2797  2.1136
   68SAPC  H13B 5691   0.288   1.887   6.035 -0.0702  1.6321 -0.9969
   68SAPC  H13C 5692   0.112   1.870   6.023 -0.4904  0.4192 -0.1003
   68SAPC   C14 5693   0.176   1.732   6.241 -0.4254 -0.3890  0.5916
   68SAPC  H14A 5694   0.105   1.687   6.173  0.2510 -0.5165 -0.0282
   68SAPC  H14B 5695   0.265   1.677   6.216 -1.9160 -2.2576 -0.9553
   68SAPC  H14C 5696   0.132   1.709   6.338 -0.7989 -1.6238  0.1545
   68SAPC   C15 5697   0.053   1.933   6.270  0.2076 -0.6926  0.7080
   68SAPC  H15A 5698   0.044   1.907   6.375  1.3221  0.3423  1.0857
   68SAPC  H15B 5699   0.031   2.038   6.259 -2.5573 -1.2462  0.2268
   68SAPC  H15C 5700  -0.022   1.881   6.212  0.9694 -0.0599 -0.8962
   68SAPC   C11 5701   0.310   2.103   6.285  0.0782 -0.1924 -0.4517
   68SAPC  H11A 5702   0.367   2.126   6.192  1.1652 -0.2444  0.1821
   68SAPC  H11B 5703   0.382   2.145   6.358 -0.0485 -1.7507  0.6316
   68SAPC     P 5704   0.138   2.259   6.409  0.2038  0.2998 -0.3742
   68SAPC   O13 5705   0.176   2.398   6.383  0.5219  0.0607 -0.2927
   68SAPC   O14 5706  -0.005   2.234   6.419 -0.0476  0.7438  0.5300
   68SAPC   O12 5707   0.193   2.178   6.282  0.1288  0.2007 -0.3481
   68SAPC   O11 5708   0.208   2.197   6.535 -0.8624 -0.1099  0.2518
   68SAPC    C1 5709   0.220   2.274   6.654  1.3249  0.2013  0.3249
   68SAPC    HA 5710   0.195   2.381   6.640  1.1365  0.1216  0.0540
   68SAPC    HB 5711   0.156   2.234   6.735  1.0366  1.4929  0.7503
   68SAPC    C2 5712   0.366   2.262   6.704  0.3233 -0.2022  0.3151
   68SAPC    HS 5713   0.395   2.157   6.682 -0.9034  0.0608 -3.2758
   68SAPC   O21 5714   0.371   2.299   6.843 -0.0901 -0.4153  0.5472
   68SAPC   C21 5715   0.468   2.244   6.911 -0.6591  0.2602 -0.2030
   68SAPC   O22 5716   0.549   2.162   6.866 -0.3712 -0.0858  0.3729
   68SAPC   C22 5717   0.468   2.292   7.057 -0.5812 -0.5226  0.4240
   68SAPC   H2R 5718   0.553   2.362   7.068  0.1887 -0.7031 -3.2180
   68SAPC   H2S 5719   0.370   2.340   7.077 -0.8158 -0.1119 -1.5076
   68SAPC    C3 5720   0.449   2.368   6.621 -0.1632 -0.4457  0.4420
   68SAPC    HX 5721   0.410   2.470   6.643  0.3974  0.2384 -1.5322
   68SAPC    HY 5722   0.430   2.361   6.512  0.8287  0.6701  0.1747
   68SAPC   O31 5723   0.585   2.381   6.663  0.5080  0.3617 -0.0451
   68SAPC   C31 5724   0.669   2.312   6.580 -0.9530  0.4758  0.5495
   68SAPC   O32 5725   0.635   2.244   6.486  0.0998  0.1309  0.3333
   68SAPC   C32 5726   0.813   2.355   6.612 -0.5845  0.5995 -0.0003
   68SAPC   H2X 5727   0.806   2.406   6.711 -1.0222  0.2209  0.1674
   68SAPC   H2Y 5728   0.831   2.412   6.518 -1.7413 -1.1479 -1.3322
   68SAPC   C23 5729   0.490   2.167   7.145 -0.0308  0.0152  0.1388
   68SAPC   H3R 5730   0.597   2.145   7.128  0.4161  2.0736  0.0025
   68SAPC   H3S 5731   0.438   2.078   7.102  0.4539 -0.4560  0.5183
   68SAPC   C24 5732   0.450   2.185   7.293  0.0622  0.1947  0.2923
   68SAPC   H4R 5733   0.421   2.092   7.345 -0.7107 -0.2694 -0.9135
   68SAPC   H4S 5734   0.355   2.242   7.301  0.8602  1.7979 -1.0015
   68SAPC   C25 5735   0.565   2.254   7.367  0.3912 -0.1086  0.4038
   68SAPC   H5R 5736   0.658   2.277   7.313 -0.1369 -0.2843 -0.5897
   68SAPC   C26 5737   0.569   2.284   7.497 -0.4414  0.2181 -0.4384
   68SAPC   H6R 5738   0.658   2.336   7.536 -0.3496 -0.0867 -0.2476
   68SAPC   C27 5739   0.457   2.248   7.594 -0.8479 -0.8723  0.3329
   68SAPC   H7R 5740   0.358   2.250   7.544 -0.0880 -1.4823 -1.2785
   68SAPC   H7S 5741   0.450   2.328   7.670 -0.0630 -0.0024 -0.4689
   68SAPC   C28 5742   0.482   2.124   7.667  0.9525  0.2663  0.0558
   68SAPC   H8R 5743   0.513   2.041   7.601 -0.5176 -1.1231  1.0223
   68SAPC   C29 5744   0.469   2.092   7.798 -0.6971 -0.4809 -0.0908
   68SAPC   H9R 5745   0.502   1.995   7.837 -2.1119 -0.3947  1.4360
   68SAPC  C210 5746   0.429   2.193   7.906 -0.3786  0.0221 -0.0949
   68SAPC  H10R 5747   0.463   2.295   7.879  0.5260 -1.0076 -3.3735
   68SAPC  H10S 5748   0.494   2.166   7.992  2.3107  0.1884 -1.9279
   68SAPC  C211 5749   0.281   2.199   7.919 -0.2215  0.6373 -0.2694
   68SAPC  H11R 5750   0.218   2.245   7.842 -0.6574 -0.1448 -0.3895
   68SAPC  C212 5751   0.212   2.158   8.033 -0.4290 -0.0602  0.2832
   68SAPC  H12R 5752   0.103   2.145   8.025 -0.2970 -0.9042 -0.1258
   68SAPC  C213 5753   0.272   2.095   8.160 -0.3540 -0.5559  0.5037
   68SAPC  H13R 5754   0.380   2.068   8.155 -0.2832 -0.0595 -0.9058
   68SAPC  H13S 5755   0.218   2.001   8.185  1.0769 -2.6023 -3.3215
   68SAPC  C214 5756   0.272   2.187   8.281  0.4814 -0.7241 -0.2234
   68SAPC  H14R 5757   0.316   2.287   8.272 -2.2689  0.6098  0.0156
   68SAPC  C215 5758   0.214   2.163   8.404 -0.0592 -0.0600  0.9462
   68SAPC  H15R 5759   0.232   2.241   8.479  1.1972  0.9816 -0.3999
   68SAPC  C216 5760   0.150   2.033   8.446  0.0929 -0.3682 -0.3144
   68SAPC  H16R 5761   0.227   1.954   8.429 -0.0240 -0.7114  0.7155
   68SAPC  H16S 5762   0.059   2.013   8.386 -0.1120  1.2182 -0.5799
   68SAPC  C217 5763   0.126   2.018   8.596  0.1618  0.2472 -0.1466
   68SAPC  H17R 5764   0.072   1.923   8.617 -0.4300  0.8183  0.9800
   68SAPC  H17S 5765   0.056   2.098   8.627  1.3472  0.9586  0.7923
   68SAPC  C218 5766   0.258   2.036   8.676  0.0843 -0.2463 -0.2505
   68SAPC  H18R 5767   0.303   2.135   8.653  1.4354 -1.1700 -1.8246
   68SAPC  H18S 5768   0.344   1.968   8.658  1.9155  1.1729  2.3685
   68SAPC  C219 5769   0.227   2.027   8.828 -0.1967 -0.2933  0.1853
   68SAPC  H19R 5770   0.125   2.072   8.834 -0.5100 -0.5204 -2.3882
   68SAPC  H19S 5771   0.303   2.084   8.886 -0.3794  0.1388  0.0079
   68SAPC  C220 5772   0.225   1.880   8.877  0.2803 -1.3355 -0.2995
   68SAPC  H20R 5773   0.132   1.833   8.837  0.9659 -2.0638 -1.0976
   68SAPC  H20S 5774   0.221   1.883   8.988  0.1152 -0.0084 -0.3194
   68SAPC  H20T 5775   0.302   1.819   8.826 -0.0873 -1.6226 -0.5201
   68SAPC   C33 5776   0.912   2.236   6.624  0.0182 -0.2064  0.4468
   68SAPC   H3X 5777   0.925   2.195   6.521 -0.2366  0.6031  0.0860
   68SAPC   H3Y 5778   0.864   2.159   6.688 -0.8316 -0.4646 -0.4804
   68SAPC   C34 5779   1.054   2.287   6.664 -0.1532 -0.0817  0.4848
   68SAPC   H4X 5780   1.091   2.370   6.600  1.5260 -1.0750  0.0922
   68SAPC   H4Y 5781   1.124   2.202   6.648 -0.3820 -0.1448 -0.2005
   68SAPC   C35 5782   1.064   2.335   6.806 -1.1964 -0.7958 -0.1626
   68SAPC   H5X 5783   1.023   2.438   6.811  0.9285  0.2937 -2.5329
   68SAPC   H5Y 5784   1.173   2.335   6.827 -0.9557 -1.2040 -1.3264
   68SAPC   C36 5785   1.006   2.239   6.899 -0.3626 -0.3863  0.8042
   68SAPC   H6X 5786   1.032   2.132   6.884 -1.4377 -0.8392  1.8873
   68SAPC   H6Y 5787   0.895   2.246   6.899 -0.4853 -1.6967 -0.6936
   68SAPC   C37 5788   1.060   2.262   7.043  0.4326 -0.7439  0.9827
   68SAPC   H7X 5789   1.061   2.372   7.062 -0.1118  0.0924 -3.0535
   68SAPC   H7Y 5790   1.165   2.225   7.041  0.2429 -1.2585  0.2785
   68SAPC   C38 5791   0.970   2.198   7.153 -0.1612 -1.2901  0.5840
   68SAPC   H8X 5792   0.953   2.090   7.138  1.1020 -1.6040  1.3070
   68SAPC   H8Y 5793   0.867   2.240   7.142  0.3364 -0.3079 -0.5488
   68SAPC   C39 5794   1.025   2.229   7.291 -0.2633  0.7591  0.0788
   68SAPC   H9X 5795   1.016   2.335   7.323 -0.9450  1.4106 -2.0620
   68SAPC   H9Y 5796   1.134   2.208   7.301 -0.2476  0.4448 -0.6680
   68SAPC  C310 5797   0.972   2.136   7.406  0.1238 -0.1787 -0.4294
   68SAPC  H10X 5798   1.006   2.031   7.395  1.9797  0.2438  0.9284
   68SAPC  H10Y 5799   0.861   2.144   7.404  0.0449 -0.9325  0.4887
   68SAPC  C311 5800   1.026   2.179   7.541  0.7104  0.2519  0.1819
   68SAPC  H11X 5801   1.012   2.289   7.547  2.1169  0.4072  1.3282
   68SAPC  H11Y 5802   1.135   2.161   7.551  0.4747 -0.9647  0.7776
   68SAPC  C312 5803   0.942   2.109   7.651 -0.3118 -0.3110 -0.2476
   68SAPC  H12X 5804   0.979   2.004   7.649 -1.3573 -0.7178 -3.0061
   68SAPC  H12Y 5805   0.836   2.126   7.624 -0.3198  1.3750  0.6981
   68SAPC  C313 5806   0.972   2.148   7.789  0.3087  0.0349 -0.2570
   68SAPC  H13X 5807   0.967   2.259   7.799 -1.0833 -0.1080  1.0177
   68SAPC  H13Y 5808   1.080   2.125   7.805  0.1315 -0.2237  0.5865
   68SAPC  C314 5809   0.909   2.062   7.905 -0.1067 -0.4031  0.3225
   68SAPC  H14X 5810   0.927   1.952   7.894 -0.8110 -0.3110 -2.9820
   68SAPC  H14Y 5811   0.800   2.061   7.887 -0.3478 -1.4600  1.6659
   68SAPC  C315 5812   0.941   2.116   8.045  0.2391  0.5569  0.4591
   68SAPC  H15X 5813   0.892   2.216   8.040  0.8838  0.8038 -1.6769
   68SAPC  H15Y 5814   1.046   2.124   8.079  0.5538  1.4929 -0.6808
   68SAPC  C316 5815   0.870   2.038   8.154  0.4152  1.0465  0.2557
   68SAPC  H16X 5816   0.771   2.011   8.111  0.9342  1.7279 -1.4459
   68SAPC  H16Y 5817   0.857   2.102   8.244  1.1987  0.3750  0.8682
   68SAPC  C317 5818   0.954   1.918   8.209  0.1169 -0.4622  0.2228
   68SAPC  H17X 5819   0.987   1.860   8.120 -0.4952 -0.5288  0.0354
   68SAPC  H17Y 5820   0.882   1.866   8.276 -0.2171 -1.8349 -1.1464
   68SAPC  C318 5821   1.075   1.956   8.295  0.0043 -0.1230 -0.0231
   68SAPC  H18X 5822   1.170   1.956   8.237 -0.5936 -1.6092 -1.0482
   68SAPC  H18Y 5823   1.101   1.881   8.372  0.5935  2.4313  2.4455
   68SAPC  H18Z 5824   1.060   2.049   8.354  0.7791  0.4772 -0.7309
   69SLPC     N 5825   4.899   2.607  11.501  0.6284  0.2151  0.1184
   69SLPC   C13 5826   4.792   2.554  11.595 -0.3048 -0.1099 -0.3401
   69SLPC  H13A 5827   4.740   2.624  11.658 -0.6629 -1.3365  0.7547
   69SLPC  H13B 5828   4.716   2.508  11.534  0.5810 -0.0508 -1.5311
   69SLPC  H13C 5829   4.830   2.482  11.666  0.2641  2.1475  1.8086
   69SLPC   C14 5830   5.013   2.664  11.578  0.3050  0.2035  0.6227
   69SLPC  H14A 5831   4.981   2.742  11.646 -0.0236  0.2906  0.3716
   69SLPC  H14B 5832   5.061   2.596  11.646  2.3228  0.7673 -0.1402
   69SLPC  H14C 5833   5.088   2.705  11.511 -0.7316  2.1816  0.6024
   69SLPC   C15 5834   4.833   2.722  11.422 -0.9503 -0.0209 -0.5539
   69SLPC  H15A 5835   4.740   2.679  11.387  0.1805 -2.2869 -1.0026
   69SLPC  H15B 5836   4.815   2.808  11.484 -1.8010 -1.7169  1.7099
   69SLPC  H15C 5837   4.891   2.750  11.336  0.7060  0.2080  0.5792
   69SLPC   C12 5838   4.955   2.507  11.402  0.0318 -0.2443 -0.5825
   69SLPC  H12A 5839   4.983   2.423  11.464  1.9661 -0.2494 -1.3771
   69SLPC  H12B 5840   5.051   2.536  11.362 -0.3819 -1.8477 -2.8964
   69SLPC   C11 5841   4.864   2.458  11.285 -0.1426 -0.1598 -0.0199
   69SLPC  H11A 5842   4.926   2.387  11.226 -0.4306  0.1462 -0.6922
   69SLPC  H11B 5843   4.840   2.541  11.216  1.0421 -1.3025 -1.8945
   69SLPC     P 5844   4.604   2.382  11.301  0.2503  0.3027 -0.1752
   69SLPC   O13 5845   4.524   2.322  11.409  0.3332  0.2480  0.5609
   69SLPC   O14 5846   4.564   2.513  11.256  0.3056 -0.3227  0.5910
   69SLPC   O12 5847   4.759   2.383  11.340 -0.6893  0.6172  0.7067
   69SLPC   O11 5848   4.591   2.288  11.178  0.2051  0.1757  0.1295
   69SLPC    C1 5849   4.697   2.271  11.089  0.1973 -0.4415  0.0283
   69SLPC    HA 5850   4.726   2.369  11.046  1.8969 -1.8826 -2.3326
   69SLPC    HB 5851   4.781   2.221  11.142 -0.8068 -1.4035  0.7698
   69SLPC    C2 5852   4.664   2.172  10.977  0.2438 -0.4329  0.3560
   69SLPC    HS 5853   4.766   2.151  10.938 -0.9501 -1.4066 -2.5572
   69SLPC   O21 5854   4.571   2.233  10.880 -0.6302 -0.0091 -0.2486
   69SLPC   C21 5855   4.639   2.284  10.773 -0.3820 -0.5196 -0.1343
   69SLPC   O22 5856   4.760   2.276  10.747  0.1645  0.2021 -0.5713
   69SLPC   C22 5857   4.532   2.323  10.665  0.2753 -0.0405  0.4368
   69SLPC   H2R 5858   4.474   2.237  10.625  0.4094 -0.0259  0.2138
   69SLPC   H2S 5859   4.453   2.384  10.714  0.7880  0.2167  0.9547
   69SLPC    C3 5860   4.604   2.045  11.045  0.0597  0.5900 -0.2578
   69SLPC    HX 5861   4.506   2.065  11.093  0.9538  1.6437  1.2274
   69SLPC    HY 5862   4.662   2.000  11.129 -0.5063  0.1262 -0.1076
   69SLPC   O31 5863   4.589   1.938  10.945 -0.3285 -0.7690  0.1149
   69SLPC   C31 5864   4.475   1.929  10.883 -0.3913  0.2182 -0.4642
   69SLPC   O32 5865   4.374   1.992  10.900  0.2514  0.4019  0.3791
   69SLPC   C32 5866   4.481   1.820  10.783  0.4590  0.0269 -0.3772
   69SLPC   H2X 5867   4.407   1.744  10.815 -2.0924  2.1788 -0.8120
   69SLPC   H2Y 5868   4.580   1.771  10.795 -0.1466 -1.0753  0.3103
   69SLPC   C23 5869   4.579   2.413  10.550 -0.3472 -0.4660  0.5431
   69SLPC   H3R 5870   4.658   2.484  10.579 -0.8618  0.4696 -0.2702
   69SLPC   H3S 5871   4.499   2.481  10.514  1.2067  0.4461 -1.3507
   69SLPC   C24 5872   4.613   2.325  10.428 -0.0036  0.5039 -0.5814
   69SLPC   H4R 5873   4.531   2.251  10.413  0.2779 -0.0486  0.5587
   69SLPC   H4S 5874   4.700   2.266  10.463 -0.1089  0.6056 -0.1428
   69SLPC   C25 5875   4.631   2.419  10.309 -0.7955  0.3843 -0.1488
   69SLPC   H5R 5876   4.726   2.473  10.329 -1.5076  0.8014  2.4476
   69SLPC   H5S 5877   4.546   2.488  10.291 -0.5548  0.9427  0.7909
   69SLPC   C26 5878   4.666   2.347  10.176  0.2928 -0.2694 -0.1481
   69SLPC   H6R 5879   4.765   2.297  10.185  0.7557  0.7406  0.5348
   69SLPC   H6S 5880   4.674   2.428  10.101  0.7992  0.0451  0.2306
   69SLPC   C27 5881   4.573   2.228  10.129 -0.0414  0.2017  0.4982
   69SLPC   H7R 5882   4.471   2.272  10.134  0.8192  2.7232 -1.8110
   69SLPC   H7S 5883   4.563   2.148  10.205 -0.9449 -1.0465 -0.9005
   69SLPC   C28 5884   4.609   2.174   9.990  0.1109 -0.4152  1.2777
   69SLPC   H8R 5885   4.557   2.077   9.976 -1.4848  0.6095 -0.1647
   69SLPC   H8S 5886   4.715   2.143   9.974 -1.0627 -3.6163 -1.4400
   69SLPC   C29 5887   4.572   2.273   9.879  0.3553  0.3222 -0.5946
   69SLPC   H9R 5888   4.506   2.354   9.914 -1.0426 -1.2486  0.5867
   69SLPC  C210 5889   4.588   2.256   9.750  0.2982  1.1693  0.5013
   69SLPC  H10R 5890   4.550   2.333   9.681 -2.4858 -1.2414 -0.8819
   69SLPC  C211 5891   4.641   2.133   9.675  0.0181 -0.1009  0.0455
   69SLPC  H11R 5892   4.667   2.051   9.746 -0.1650  0.6884  1.0606
   69SLPC  H11S 5893   4.732   2.164   9.620 -1.2897 -0.2568 -2.3327
   69SLPC  C212 5894   4.534   2.085   9.583  0.8785 -0.1776  0.8689
   69SLPC  H12R 5895   4.428   2.080   9.612 -0.3728  0.3818 -3.0309
   69SLPC  C213 5896   4.564   2.042   9.462  0.0226  0.3286 -0.0973
   69SLPC  H13R 5897   4.481   2.023   9.393  1.7772 -1.5528 -1.8525
   69SLPC  C214 5898   4.695   2.016   9.396  0.0847 -0.3589 -0.8390
   69SLPC  H14R 5899   4.764   1.960   9.463  0.2112  3.0272  2.1233
   69SLPC  H14S 5900   4.750   2.111   9.384 -0.1361  0.0198  0.9007
   69SLPC  C215 5901   4.695   1.936   9.262 -0.1291  0.1326 -0.4894
   69SLPC  H15R 5902   4.664   2.002   9.179  2.4509  1.7067 -0.3214
   69SLPC  H15S 5903   4.634   1.845   9.278 -1.1417  1.0688  1.2035
   69SLPC  C216 5904   4.833   1.880   9.231  0.0823  0.4072  0.0701
   69SLPC  H16R 5905   4.862   1.808   9.310  2.9602  1.2155 -0.1163
   69SLPC  H16S 5906   4.908   1.962   9.242  0.4004 -0.0498  1.3734
   69SLPC  C217 5907   4.851   1.801   9.099 -0.1455 -0.3846  0.1501
   69SLPC  H17R 5908   4.801   1.849   9.012  0.9729 -2.7861 -1.9603
   69SLPC  H17S 5909   4.800   1.702   9.094 -3.3643  1.1808 -1.3733
   69SLPC  C218 5910   5.003   1.776   9.075 -0.5760  0.2046 -0.4530
   69SLPC  H18R 5911   5.012   1.714   8.983 -2.3048 -2.6175  1.1189
   69SLPC  H18S 5912   5.058   1.744   9.166  0.8681 -0.9267 -1.6606
   69SLPC  H18T 5913   5.045   1.878   9.065  0.2741 -0.1704 -0.7477
   69SLPC   C33 5914   4.462   1.868  10.636  0.5449 -0.3240  0.3057
   69SLPC   H3X 5915   4.535   1.945  10.604 -1.2838  0.5429 -1.9985
   69SLPC   H3Y 5916   4.360   1.909  10.624  0.6616 -0.4146 -1.0519
   69SLPC   C34 5917   4.479   1.744  10.540  0.2840 -0.6988 -0.9767
   69SLPC   H4X 5918   4.379   1.697  10.552 -0.5551  1.4087  0.8883
   69SLPC   H4Y 5919   4.553   1.680  10.592  0.7626  0.1424 -0.6042
   69SLPC   C35 5920   4.508   1.790  10.394 -0.3850 -0.1826 -0.3405
   69SLPC   H5X 5921   4.543   1.713  10.321  1.5316  0.2134  0.0866
   69SLPC   H5Y 5922   4.596   1.856  10.414 -3.1480  3.9112 -0.4734
   69SLPC   C36 5923   4.391   1.870  10.331 -0.9510  0.1522 -0.6288
   69SLPC   H6X 5924   4.430   1.932  10.248  0.3694  2.4203  1.5548
   69SLPC   H6Y 5925   4.362   1.948  10.405 -0.6233  0.4402 -0.8045
   69SLPC   C37 5926   4.272   1.782  10.301  0.0910  0.4643  0.2271
   69SLPC   H7X 5927   4.193   1.831  10.240  1.0120  0.2689 -1.1682
   69SLPC   H7Y 5928   4.217   1.760  10.395  0.3328 -0.9490  0.0601
   69SLPC   C38 5929   4.312   1.642  10.242 -0.0729  0.0444 -0.2037
   69SLPC   H8X 5930   4.223   1.576  10.231 -0.4336 -0.1644  2.9324
   69SLPC   H8Y 5931   4.371   1.578  10.312  0.0360 -0.7870 -1.0365
   69SLPC   C39 5932   4.386   1.645  10.108 -0.1817  0.0887 -0.3234
   69SLPC   H9X 5933   4.438   1.548  10.092  0.5112  0.4212 -0.0756
   69SLPC   H9Y 5934   4.461   1.726  10.105  0.4908 -0.4446 -4.3388
   69SLPC  C310 5935   4.283   1.662   9.994  0.3680 -0.1077 -0.4538
   69SLPC  H10X 5936   4.222   1.750  10.023  0.6051 -1.1843  4.0257
   69SLPC  H10Y 5937   4.219   1.572   9.988 -0.3047  0.3058  0.2653
   69SLPC  C311 5938   4.349   1.689   9.860  0.6062 -0.3329  0.2931
   69SLPC  H11X 5939   4.434   1.624   9.834  0.7598 -0.1259  0.2724
   69SLPC  H11Y 5940   4.384   1.794   9.869 -1.0542  0.5640 -2.4991
   69SLPC  C312 5941   4.243   1.684   9.747  0.1120 -0.1553  0.2879
   69SLPC  H12X 5942   4.151   1.738   9.778  0.6223  1.7311 -1.2872
   69SLPC  H12Y 5943   4.219   1.576   9.733  2.2302 -0.5693 -0.5394
   69SLPC  C313 5944   4.292   1.730   9.605  0.5142 -0.0206 -0.1814
   69SLPC  H13X 5945   4.307   1.837   9.629 -5.4574  1.1179  0.0359
   69SLPC  H13Y 5946   4.211   1.721   9.530  1.1116 -1.0426 -0.7184
   69SLPC  C314 5947   4.416   1.648   9.563 -0.2095 -0.0692  0.0025
   69SLPC  H14X 5948   4.384   1.542   9.570 -0.9324  0.1284 -0.2325
   69SLPC  H14Y 5949   4.496   1.673   9.636 -0.6001 -0.2716  0.5115
   69SLPC  C315 5950   4.463   1.676   9.412 -0.5836  0.1266 -0.1116
   69SLPC  H15X 5951   4.558   1.624   9.386 -1.0172  0.5398 -2.9173
   69SLPC  H15Y 5952   4.483   1.784   9.397  0.0207 -0.0733 -0.7755
   69SLPC  C316 5953   4.367   1.626   9.300  0.1561 -0.9987  0.1458
   69SLPC  H16X 5954   4.263   1.649   9.333  0.6155 -1.1141  1.7412
   69SLPC  H16Y 5955   4.367   1.516   9.289  0.8267 -1.0825  0.9306
   69SLPC  C317 5956   4.386   1.688   9.156  0.1560  0.5238  0.4186
   69SLPC  H17X 5957   4.392   1.799   9.153  1.9269  0.4406  0.0555
   69SLPC  H17Y 5958   4.303   1.651   9.092  1.2725 -2.2170  0.4372
   69SLPC  C318 5959   4.510   1.639   9.070 -0.5487  0.3126  0.0804
   69SLPC  H18X 5960   4.497   1.529   9.060  2.1661  0.0692 -1.7174
   69SLPC  H18Y 5961   4.610   1.664   9.110 -0.5064  0.5225 -0.1518
   69SLPC  H18Z 5962   4.497   1.682   8.968  0.3086  1.6301  0.5069
   70SLPC     N 5963   6.327   5.259  10.795 -0.0895 -0.0762 -0.0022
   70SLPC   C13 5964   6.298   5.115  10.840 -0.1783 -0.1098 -0.2652
   70SLPC  H13A 5965   6.378   5.051  10.803  1.6860  0.6305  2.1980
   70SLPC  H13B 5966   6.294   5.103  10.947 -0.5165 -0.6382 -0.3376
   70SLPC  H13C 5967   6.203   5.075  10.811 -0.4455  0.0995  0.3093
   70SLPC   C14 5968   6.211   5.347  10.811 -0.0677  0.5220  0.0682
   70SLPC  H14A 5969   6.183   5.354  10.915  0.9488 -0.2463  0.4082
   70SLPC  H14B 5970   6.223   5.444  10.764 -0.0943  1.7136  2.4022
   70SLPC  H14C 5971   6.126   5.302  10.762 -0.3633  1.2327 -0.0862
   70SLPC   C15 5972   6.352   5.247  10.644 -0.0590 -0.0043  0.3566
   70SLPC  H15A 5973   6.359   5.349  10.610 -4.3053  1.2395  2.4332
   70SLPC  H15B 5974   6.431   5.186  10.603 -1.1577 -1.5503  0.4193
   70SLPC  H15C 5975   6.265   5.201  10.599 -0.3147  2.2962 -1.6652
   70SLPC   C12 5976   6.453   5.318  10.858  0.0177 -0.2450 -0.0816
   70SLPC  H12A 5977   6.477   5.412  10.809 -0.4843 -0.0331  0.0697
   70SLPC  H12B 5978   6.539   5.253  10.848 -0.0350 -0.9627  3.1801
   70SLPC   C11 5979   6.447   5.360  11.006 -0.1452 -0.3334  0.0911
   70SLPC  H11A 5980   6.361   5.429  11.017 -0.4753 -0.3849 -1.7527
   70SLPC  H11B 5981   6.544   5.412  11.022  0.3167 -0.2641 -2.4406
   70SLPC     P 5982   6.552   5.154  11.122  0.0000  0.3079 -0.3076
   70SLPC   O13 5983   6.647   5.222  11.206 -0.3135 -0.2180 -0.1054
   70SLPC   O14 5984   6.484   5.037  11.182  0.0742  0.2731  0.3851
   70SLPC   O12 5985   6.438   5.251  11.094  0.2838  0.3792 -0.0742
   70SLPC   O11 5986   6.601   5.113  10.981  0.2118 -0.0330 -0.2076
   70SLPC    C1 5987   6.744   5.133  10.960  0.1764  0.7217  0.2821
   70SLPC    HA 5988   6.778   5.231  10.999 -0.0190  0.0342  2.3389
   70SLPC    HB 5989   6.797   5.057  11.022 -1.0243  1.1850  1.9531
   70SLPC    C2 5990   6.787   5.097  10.813 -1.0146  0.3176 -0.2658
   70SLPC    HS 5991   6.881   5.038  10.826 -0.5736  1.3389  1.5836
   70SLPC   O21 5992   6.825   5.217  10.744  1.0035  0.3013 -1.0816
   70SLPC   C21 5993   6.932   5.287  10.786 -1.2524  0.4557 -0.1726
   70SLPC   O22 5994   7.014   5.244  10.868 -0.6814  0.6601 -0.3481
   70SLPC   C22 5995   6.943   5.415  10.701 -0.1529 -0.0526 -0.2481
   70SLPC   H2R 5996   6.853   5.423  10.637  0.3052 -0.0593 -0.9118
   70SLPC   H2S 5997   6.929   5.488  10.783 -0.7640 -2.0546  1.5152
   70SLPC    C3 5998   6.690   5.026  10.724  0.3934 -1.0235 -0.1439
   70SLPC    HX 5999   6.599   5.089  10.713  2.0192  1.1665 -1.8984
   70SLPC    HY 6000   6.669   4.929  10.775 -0.7363 -2.9603 -3.8956
   70SLPC   O31 6001   6.746   4.995  10.597  0.1422 -0.8251  0.3079
   70SLPC   C31 6002   6.719   5.088  10.500 -0.3636  0.2587  0.2169
   70SLPC   O32 6003   6.647   5.183  10.510  0.3999  0.0819 -0.3652
   70SLPC   C32 6004   6.794   5.049  10.376  0.1531  0.2458 -0.3607
   70SLPC   H2X 6005   6.712   5.041  10.301 -0.4543  1.0042  0.2071
   70SLPC   H2Y 6006   6.838   4.948  10.392 -1.2450 -0.2631  0.4637
   70SLPC   C23 6007   7.079   5.430  10.625  0.6672 -0.0272  0.3234
   70SLPC   H3R 6008   7.109   5.337  10.574  0.9228  1.2268 -1.9421
   70SLPC   H3S 6009   7.162   5.451  10.695  0.7058 -0.0254  0.2766
   70SLPC   C24 6010   7.066   5.550  10.520 -0.7226  0.1295 -0.1100
   70SLPC   H4R 6011   7.167   5.572  10.479  0.9382  0.4554  3.7068
   70SLPC   H4S 6012   7.028   5.635  10.580  2.1293  1.5400 -0.0998
   70SLPC   C25 6013   6.974   5.535  10.404  0.7819  0.3009  0.1695
   70SLPC   H5R 6014   6.868   5.562  10.424  0.0779 -2.6726  0.9553
   70SLPC   H5S 6015   6.973   5.424  10.391  1.0565 -0.2601  3.9782
   70SLPC   C26 6016   7.033   5.590  10.266 -0.5054  0.8329 -0.0009
   70SLPC   H6R 6017   7.124   5.529  10.246 -0.6423  0.4391  0.5518
   70SLPC   H6S 6018   7.057   5.697  10.281  0.7826  0.7328 -1.1817
   70SLPC   C27 6019   6.941   5.583  10.139 -0.2607 -0.3725 -0.0625
   70SLPC   H7R 6020   6.854   5.647  10.165  1.3313  1.4506  1.1228
   70SLPC   H7S 6021   6.909   5.479  10.120 -0.2652 -0.7163  1.6307
   70SLPC   C28 6022   7.010   5.625  10.017 -0.4449 -0.5665  0.2284
   70SLPC   H8R 6023   7.099   5.561  10.002 -0.2658 -0.3578  0.3935
   70SLPC   H8S 6024   7.057   5.722  10.046  2.1520 -1.9211  0.8633
   70SLPC   C29 6025   6.916   5.636   9.897 -0.2042  0.1509 -0.1208
   70SLPC   H9R 6026   6.853   5.726   9.898  1.5137  1.4812  2.5832
   70SLPC  C210 6027   6.930   5.567   9.789  0.6888 -0.7759  0.7152
   70SLPC  H10R 6028   6.854   5.589   9.713  2.1391 -0.4848 -0.6977
   70SLPC  C211 6029   7.032   5.461   9.751  0.2627 -0.4908  0.5431
   70SLPC  H11R 6030   6.981   5.362   9.745  1.8549 -1.3322  0.3682
   70SLPC  H11S 6031   7.096   5.444   9.839  2.1876  2.0272 -0.2601
   70SLPC  C212 6032   7.102   5.484   9.618 -0.3636 -0.1344 -0.2995
   70SLPC  H12R 6033   7.208   5.505   9.642 -0.7354  0.2851  1.0662
   70SLPC  C213 6034   7.054   5.484   9.489 -0.9543 -0.4869 -0.4711
   70SLPC  H13R 6035   7.134   5.500   9.416  0.8745 -0.2934  1.4580
   70SLPC  C214 6036   6.917   5.458   9.447  0.8205  0.3872 -0.2761
   70SLPC  H14R 6037   6.864   5.550   9.417  1.0963  1.0923  1.3082
   70SLPC  H14S 6038   6.855   5.424   9.533  1.0050 -2.4207 -1.1632
   70SLPC  C215 6039   6.920   5.349   9.343 -0.1676  0.4138  0.1502
   70SLPC  H15R 6040   6.815   5.314   9.332  0.0189  0.2404 -1.2252
   70SLPC  H15S 6041   6.975   5.259   9.379  1.1148  1.5104  1.0138
   70SLPC  C216 6042   6.948   5.394   9.196 -0.3728 -0.8620  0.4549
   70SLPC  H16R 6043   7.053   5.431   9.186 -1.2978  2.3502  1.3932
   70SLPC  H16S 6044   6.875   5.475   9.177  0.9940  0.1765 -0.5907
   70SLPC  C217 6045   6.925   5.290   9.086 -0.2819 -0.4314 -0.4413
   70SLPC  H17R 6046   6.817   5.265   9.087 -0.8213  1.7157 -0.4952
   70SLPC  H17S 6047   6.986   5.201   9.112  1.4649  0.0829 -2.4130
   70SLPC  C218 6048   6.970   5.322   8.941 -0.1593 -0.2365  0.1724
   70SLPC  H18R 6049   7.070   5.371   8.942  0.1575 -0.8733  0.0653
   70SLPC  H18S 6050   6.903   5.393   8.888 -0.4504 -0.2656  0.5004
   70SLPC  H18T 6051   6.975   5.225   8.887  1.0127 -0.2372  0.2438
   70SLPC   C33 6052   6.889   5.169  10.328  0.3893  0.5995 -0.1175
   70SLPC   H3X 6053   6.968   5.185  10.405 -1.2781  1.1717  1.5414
   70SLPC   H3Y 6054   6.831   5.258  10.295 -1.5472 -1.1344 -1.6734
   70SLPC   C34 6055   6.963   5.122  10.193  0.2329 -0.2941  0.0231
   70SLPC   H4X 6056   7.037   5.043  10.216  2.2769  0.9322 -1.9100
   70SLPC   H4Y 6057   7.035   5.201  10.164  2.0057 -1.9390 -0.2811
   70SLPC   C35 6058   6.867   5.104  10.068 -0.3731 -0.0181 -0.4372
   70SLPC   H5X 6059   6.807   5.198  10.067 -1.5498 -0.7226 -2.2740
   70SLPC   H5Y 6060   6.806   5.013  10.084  0.7785 -0.5213  1.3334
   70SLPC   C36 6061   6.944   5.099   9.928 -0.7243  0.7715 -0.7312
   70SLPC   H6X 6062   6.978   5.203   9.910  0.7696  0.7856  1.7333
   70SLPC   H6Y 6063   6.877   5.066   9.846 -1.2361 -0.4193  0.1258
   70SLPC   C37 6064   7.055   4.994   9.934 -0.0602  0.9456 -0.2487
   70SLPC   H7X 6065   7.018   4.899   9.978 -0.0829  1.0450 -0.0541
   70SLPC   H7Y 6066   7.129   5.033  10.007  1.0683 -1.5666  0.0516
   70SLPC   C38 6067   7.127   4.965   9.802  0.7258 -0.0853  0.5698
   70SLPC   H8X 6068   7.057   4.921   9.728  2.0256 -2.7795  0.8279
   70SLPC   H8Y 6069   7.213   4.895   9.808  1.8350  0.8685 -2.4216
   70SLPC   C39 6070   7.191   5.092   9.753  0.3330 -0.3040 -0.0648
   70SLPC   H9X 6071   7.299   5.104   9.779  0.7670  0.9793 -2.2350
   70SLPC   H9Y 6072   7.141   5.182   9.793 -0.7300 -1.0597  0.3505
   70SLPC  C310 6073   7.189   5.111   9.603 -0.3023  0.0368 -0.4133
   70SLPC  H10X 6074   7.241   5.208   9.586  2.0887 -1.1875 -0.4594
   70SLPC  H10Y 6075   7.085   5.116   9.564 -0.4697  1.5243  0.1343
   70SLPC  C311 6076   7.274   5.012   9.516  0.0477 -0.4880  0.3751
   70SLPC  H11X 6077   7.226   4.913   9.530 -1.3979  0.1213  0.0170
   70SLPC  H11Y 6078   7.375   5.020   9.562 -0.7821  0.5035  2.1578
   70SLPC  C312 6079   7.294   5.049   9.367  0.4477 -0.3472 -0.3055
   70SLPC  H12X 6080   7.197   5.067   9.317 -0.1695  2.6170  1.6667
   70SLPC  H12Y 6081   7.356   4.965   9.329 -1.1595 -2.0892  0.7237
   70SLPC  C313 6082   7.370   5.185   9.357 -0.0856  0.0189 -0.4367
   70SLPC  H13X 6083   7.474   5.174   9.393 -0.1330  0.9206 -0.0127
   70SLPC  H13Y 6084   7.333   5.256   9.434 -1.0092 -0.3437 -0.5306
   70SLPC  C314 6085   7.357   5.246   9.218 -0.7609  0.1855 -0.0236
   70SLPC  H14X 6086   7.392   5.351   9.227  3.0685 -0.8575 -0.6103
   70SLPC  H14Y 6087   7.253   5.247   9.180  0.3248  0.9003 -3.3795
   70SLPC  C315 6088   7.457   5.184   9.115 -0.2792 -0.3539 -0.2970
   70SLPC  H15X 6089   7.451   5.074   9.122  0.2325 -0.3595  0.1452
   70SLPC  H15Y 6090   7.559   5.220   9.139 -0.2177 -0.8737  0.2332
   70SLPC  C316 6091   7.411   5.211   8.968 -0.4232  0.4600 -0.6774
   70SLPC  H16X 6092   7.317   5.162   8.935 -1.1705  1.3210  0.1175
   70SLPC  H16Y 6093   7.495   5.172   8.908  0.9603  1.9086  0.2426
   70SLPC  C317 6094   7.399   5.360   8.936  0.2969 -0.4205 -0.1381
   70SLPC  H17X 6095   7.496   5.411   8.952  0.4407 -1.1328  1.3688
   70SLPC  H17Y 6096   7.327   5.403   9.009 -0.1397 -2.4365  0.6868
   70SLPC  C318 6097   7.342   5.384   8.798  0.2271  0.7421 -0.3186
   70SLPC  H18X 6098   7.411   5.354   8.716 -1.0014 -0.6398 -0.8868
   70SLPC  H18Y 6099   7.317   5.492   8.785 -0.1508  0.9014  1.4433
   70SLPC  H18Z 6100   7.256   5.314   8.789  0.6826 -0.3836  2.9792
   71SLPC     N 6101   4.262   3.665  11.136  0.1632 -0.7958 -0.2654
   71SLPC   C13 6102   4.207   3.547  11.058 -0.1004 -0.2850  0.1097
   71SLPC  H13A 6103   4.282   3.500  10.996  1.1801  0.9638  0.6582
   71SLPC  H13B 6104   4.180   3.463  11.120  0.0442  0.2353  0.8820
   71SLPC  H13C 6105   4.126   3.586  10.998  1.3911  3.0482  0.0652
   71SLPC   C14 6106   4.355   3.622  11.240 -0.0639  0.1911  0.4203
   71SLPC  H14A 6107   4.381   3.708  11.300  1.5666 -0.3710  0.5559
   71SLPC  H14B 6108   4.306   3.557  11.311  1.0203 -0.4575  0.5957
   71SLPC  H14C 6109   4.444   3.575  11.200 -1.1713 -0.3628 -1.5133
   71SLPC   C15 6110   4.136   3.716  11.207 -0.1585 -0.0920 -0.1569
   71SLPC  H15A 6111   4.092   3.643  11.274  0.6184  2.3110  3.2297
   71SLPC  H15B 6112   4.153   3.801  11.272 -0.9932 -1.2132  1.6207
   71SLPC  H15C 6113   4.060   3.750  11.139  0.1735  1.8592  0.3724
   71SLPC   C12 6114   4.325   3.763  11.046  0.4659 -0.3896  0.4561
   71SLPC  H12A 6115   4.342   3.860  11.092 -0.6913 -0.3020  0.7363
   71SLPC  H12B 6116   4.256   3.791  10.968  0.1301  1.0889  1.2383
   71SLPC   C11 6117   4.444   3.717  10.965  0.2668  0.0839  0.2182
   71SLPC  H11A 6118   4.442   3.774  10.870  2.0444  4.2801  2.4282
   71SLPC  H11B 6119   4.446   3.608  10.946  3.3123  0.2483 -1.0160
   71SLPC     P 6120   4.702   3.717  10.967  0.2357 -0.4198  0.1476
   71SLPC   O13 6121   4.821   3.755  11.046  0.0898 -0.0316  0.0154
   71SLPC   O14 6122   4.691   3.576  10.928 -0.2745 -0.4433 -0.1281
   71SLPC   O12 6123   4.567   3.760  11.041  0.7383  0.5992  1.0309
   71SLPC   O11 6124   4.703   3.806  10.835 -0.5395  0.2485  0.3510
   71SLPC    C1 6125   4.691   3.951  10.832 -0.6138 -0.6157  0.7220
   71SLPC    HA 6126   4.622   3.982  10.914  0.9461  0.0112  1.8571
   71SLPC    HB 6127   4.788   4.004  10.841 -1.6426  2.5321 -3.5480
   71SLPC    C2 6128   4.628   4.001  10.701 -0.1200 -1.0088  0.3094
   71SLPC    HS 6129   4.533   3.944  10.705 -0.4698 -0.4866 -0.2682
   71SLPC   O21 6130   4.714   3.967  10.592 -0.2566 -0.7974 -0.5706
   71SLPC   C21 6131   4.676   3.865  10.512  0.1779  0.0681  0.0051
   71SLPC   O22 6132   4.577   3.798  10.524  0.0254 -0.2465 -0.1263
   71SLPC   C22 6133   4.786   3.834  10.407 -0.3478  0.0773 -0.5458
   71SLPC   H2R 6134   4.806   3.931  10.356  1.0991  1.7335  2.8645
   71SLPC   H2S 6135   4.875   3.794  10.460 -0.8142 -1.7268 -1.0743
   71SLPC    C3 6136   4.596   4.149  10.699 -0.2531 -0.2697  0.0081
   71SLPC    HX 6137   4.693   4.203  10.704 -0.6216  0.3556  3.7289
   71SLPC    HY 6138   4.556   4.183  10.797  1.3382  1.4820  0.1007
   71SLPC   O31 6139   4.513   4.185  10.588  0.0665  0.3003 -0.0147
   71SLPC   C31 6140   4.386   4.153  10.611 -0.0206 -0.9746 -0.3309
   71SLPC   O32 6141   4.344   4.086  10.703 -0.0813 -0.3096 -0.6237
   71SLPC   C32 6142   4.297   4.229  10.504  0.0552  0.3984  0.5823
   71SLPC   H2X 6143   4.276   4.332  10.542 -0.0051  0.3744  0.6160
   71SLPC   H2Y 6144   4.205   4.168  10.491  0.7201 -0.5067 -0.0012
   71SLPC   C23 6145   4.748   3.727  10.298 -0.5245  0.0364 -0.2082
   71SLPC   H3R 6146   4.667   3.663  10.337 -0.3761  0.3673  0.6746
   71SLPC   H3S 6147   4.832   3.656  10.281 -0.2490 -0.1095  1.6208
   71SLPC   C24 6148   4.717   3.791  10.158 -0.7073  0.6138 -0.3199
   71SLPC   H4R 6149   4.800   3.862  10.138  0.6383 -1.0225 -0.9006
   71SLPC   H4S 6150   4.620   3.841  10.175 -1.5192 -1.0303  0.1216
   71SLPC   C25 6151   4.709   3.693  10.032 -0.6921  0.8597  0.0948
   71SLPC   H5R 6152   4.629   3.615  10.031  0.7310 -0.6535 -0.5721
   71SLPC   H5S 6153   4.805   3.638  10.025 -0.9115  0.6739 -2.1975
   71SLPC   C26 6154   4.689   3.774   9.907 -0.0437  0.6194  0.6409
   71SLPC   H6R 6155   4.763   3.856   9.894 -0.2208  0.5981 -0.6265
   71SLPC   H6S 6156   4.590   3.823   9.900  0.6416  2.3786  2.2095
   71SLPC   C27 6157   4.723   3.677   9.786  0.0544 -0.0217  0.6241
   71SLPC   H7R 6158   4.660   3.585   9.787 -0.5744  0.2757 -2.6329
   71SLPC   H7S 6159   4.820   3.627   9.807 -0.6472 -2.4871 -1.6068
   71SLPC   C28 6160   4.741   3.740   9.649  0.2346 -0.2115 -0.7669
   71SLPC   H8R 6161   4.811   3.673   9.595  0.5373 -0.5722  0.0726
   71SLPC   H8S 6162   4.776   3.846   9.655 -2.1692  0.5701  0.9049
   71SLPC   C29 6163   4.619   3.752   9.560 -0.4778 -0.2598 -0.0739
   71SLPC   H9R 6164   4.565   3.847   9.574  0.9143  0.6025 -0.3985
   71SLPC  C210 6165   4.569   3.667   9.470  0.1392 -0.5150  0.1680
   71SLPC  H10R 6166   4.490   3.705   9.405  1.3222  1.4566 -0.2119
   71SLPC  C211 6167   4.629   3.539   9.435 -0.6221  0.4733  1.1659
   71SLPC  H11R 6168   4.696   3.509   9.518 -1.0849  3.2253  2.6648
   71SLPC  H11S 6169   4.692   3.560   9.346  2.6397  0.6094  3.3235
   71SLPC  C212 6170   4.532   3.425   9.406  0.6952 -0.6987  0.3011
   71SLPC  H12R 6171   4.437   3.437   9.460  0.4435  0.1228 -0.2895
   71SLPC  C213 6172   4.538   3.334   9.311 -0.3230  0.5067  0.5885
   71SLPC  H13R 6173   4.451   3.269   9.291  0.7667 -0.8469  0.0507
   71SLPC  C214 6174   4.655   3.324   9.217 -0.4115  0.1594 -0.5534
   71SLPC  H14R 6175   4.681   3.219   9.193  0.6286  0.2270  0.2009
   71SLPC  H14S 6176   4.750   3.357   9.265 -0.9478  0.1838  0.5273
   71SLPC  C215 6177   4.642   3.407   9.094  0.7250 -0.4949 -0.2193
   71SLPC  H15R 6178   4.625   3.514   9.114 -0.5089 -1.1718  2.9105
   71SLPC  H15S 6179   4.551   3.378   9.037  1.5693 -0.2202 -1.7785
   71SLPC  C216 6180   4.769   3.394   9.006 -0.1254 -0.0743  0.0485
   71SLPC  H16R 6181   4.770   3.292   8.963 -0.0576 -0.7037  1.5004
   71SLPC  H16S 6182   4.860   3.414   9.067  0.3150  0.2437 -0.6947
   71SLPC  C217 6183   4.782   3.493   8.887  0.0118 -0.4371  0.4867
   71SLPC  H17R 6184   4.763   3.594   8.928 -1.2896 -0.4183 -0.0976
   71SLPC  H17S 6185   4.719   3.482   8.796  0.7332 -1.8245  0.1278
   71SLPC  C218 6186   4.924   3.509   8.839  0.3496  0.3711  0.2130
   71SLPC  H18R 6187   4.932   3.594   8.768 -1.2099  1.2073  0.9991
   71SLPC  H18S 6188   4.949   3.418   8.781 -1.5050 -1.9295  2.8056
   71SLPC  H18T 6189   4.989   3.522   8.928  0.2219  1.3101  0.1816
   71SLPC   C33 6190   4.370   4.243  10.367  0.6743  0.4339 -0.0542
   71SLPC   H3X 6191   4.478   4.266  10.379  1.6607 -3.3857 -0.0865
   71SLPC   H3Y 6192   4.324   4.330  10.316 -0.3532  0.5806  1.0782
   71SLPC   C34 6193   4.357   4.129  10.267  0.7121  0.4090  0.1694
   71SLPC   H4X 6194   4.251   4.094  10.269  1.3916 -1.8800  2.8040
   71SLPC   H4Y 6195   4.425   4.044  10.290  0.9197  0.3396 -0.6716
   71SLPC   C35 6196   4.394   4.169  10.124 -0.1470  0.2005  0.1988
   71SLPC   H5X 6197   4.489   4.225  10.113 -1.3204  2.2135 -0.1800
   71SLPC   H5Y 6198   4.320   4.249  10.102 -0.9676 -0.9730 -1.5856
   71SLPC   C36 6199   4.383   4.069  10.010  0.1551  1.0410  0.3532
   71SLPC   H6X 6200   4.316   3.988  10.045  0.7491  0.5206  0.3131
   71SLPC   H6Y 6201   4.481   4.016  10.005 -0.1122  0.2247  2.4771
   71SLPC   C37 6202   4.340   4.130   9.878 -0.1767  0.2630 -0.1536
   71SLPC   H7X 6203   4.421   4.201   9.852 -0.6048 -0.5022 -4.2490
   71SLPC   H7Y 6204   4.243   4.183   9.892 -0.8698 -1.3427  1.5618
   71SLPC   C38 6205   4.329   4.025   9.766 -0.2607  0.6018 -0.2483
   71SLPC   H8X 6206   4.250   3.954   9.797 -0.0089 -0.5399 -2.0491
   71SLPC   H8Y 6207   4.423   3.966   9.760  0.0567  1.0803 -0.0742
   71SLPC   C39 6208   4.292   4.100   9.638  0.2066 -0.0173  0.3452
   71SLPC   H9X 6209   4.384   4.160   9.622  1.2922 -1.7765 -0.3622
   71SLPC   H9Y 6210   4.206   4.168   9.654 -0.6820 -1.2884  1.1320
   71SLPC  C310 6211   4.263   4.011   9.517 -0.4830  0.1729  0.2140
   71SLPC  H10X 6212   4.168   3.958   9.536 -0.1972  0.1417  1.7053
   71SLPC  H10Y 6213   4.341   3.933   9.504  0.7473  1.1858  1.2443
   71SLPC  C311 6214   4.239   4.085   9.382 -0.3736  0.0789  0.0894
   71SLPC  H11X 6215   4.330   4.145   9.358  0.5892 -0.8504  1.2810
   71SLPC  H11Y 6216   4.164   4.161   9.414  0.4739  0.3329  1.5718
   71SLPC  C312 6217   4.199   3.995   9.263 -0.0092 -0.7205 -1.3839
   71SLPC  H12X 6218   4.181   4.062   9.176  0.0947  0.0855 -0.7960
   71SLPC  H12Y 6219   4.101   3.945   9.281  0.7060 -1.9194 -0.6993
   71SLPC  C313 6220   4.303   3.887   9.230 -0.4685  0.3228  0.3900
   71SLPC  H13X 6221   4.299   3.809   9.309  0.4162 -1.4294 -1.1853
   71SLPC  H13Y 6222   4.404   3.933   9.233 -0.8979  1.4616 -1.3323
   71SLPC  C314 6223   4.271   3.820   9.094 -0.3733  0.0025  0.5025
   71SLPC  H14X 6224   4.339   3.735   9.072  0.8641  1.6217 -2.5143
   71SLPC  H14Y 6225   4.305   3.898   9.022  0.6851  0.4171  1.4195
   71SLPC  C315 6226   4.124   3.779   9.081  0.5487  0.4317  0.6060
   71SLPC  H15X 6227   4.063   3.871   9.079 -1.9452 -1.1391  0.7707
   71SLPC  H15Y 6228   4.091   3.716   9.166 -1.8056 -2.4386 -2.2122
   71SLPC  C316 6229   4.097   3.698   8.950  0.5071 -0.5085 -0.6983
   71SLPC  H16X 6230   4.157   3.606   8.964 -0.5950 -0.8818  2.3373
   71SLPC  H16Y 6231   4.122   3.762   8.862 -2.7318  2.7315  0.4660
   71SLPC  C317 6232   3.949   3.663   8.931  0.4879 -0.4411 -0.4683
   71SLPC  H17X 6233   3.918   3.588   9.008  1.3464  0.1063  0.4376
   71SLPC  H17Y 6234   3.944   3.609   8.834  2.5442 -0.5694 -0.5480
   71SLPC  C318 6235   3.857   3.783   8.925  0.2565 -0.3138  0.1256
   71SLPC  H18X 6236   3.924   3.870   8.908 -0.5877  0.1929 -0.6606
   71SLPC  H18Y 6237   3.789   3.772   9.013 -0.5502 -1.6518 -0.6357
   71SLPC  H18Z 6238   3.800   3.770   8.831 -1.1558  1.4968  0.6651
   72SLPC     N 6239   6.669   2.598  10.993  0.2265 -0.4349 -0.5572
   72SLPC   C13 6240   6.639   2.663  11.125 -0.0069 -0.4714  0.0647
   72SLPC  H13A 6241   6.536   2.640  11.145 -0.0340  2.3934  4.6922
   72SLPC  H13B 6242   6.708   2.626  11.199 -0.2143 -1.6891 -0.3296
   72SLPC  H13C 6243   6.644   2.771  11.119 -0.3895 -0.4833 -0.5901
   72SLPC   C14 6244   6.814   2.617  10.962  0.0159 -0.6930 -0.1273
   72SLPC  H14A 6245   6.842   2.579  10.865  0.0659 -0.1328 -0.3373
   72SLPC  H14B 6246   6.837   2.723  10.960 -2.6158 -0.0459  0.5223
   72SLPC  H14C 6247   6.874   2.559  11.031  1.7738 -0.1431 -1.1251
   72SLPC   C15 6248   6.586   2.678  10.897  0.3518 -0.3510 -0.6533
   72SLPC  H15A 6249   6.629   2.777  10.894  2.9107 -1.3299  0.7206
   72SLPC  H15B 6250   6.591   2.638  10.797 -0.8939 -1.3596 -0.3347
   72SLPC  H15C 6251   6.485   2.691  10.932  1.3120  1.9747  1.5467
   72SLPC   C12 6252   6.631   2.456  10.992  0.4710  0.0505 -0.3687
   72SLPC  H12A 6253   6.534   2.451  11.039 -0.1232  0.5540 -1.5186
   72SLPC  H12B 6254   6.691   2.386  11.049 -1.0450 -0.8821  0.1457
   72SLPC   C11 6255   6.632   2.382  10.856  0.0467 -0.0989  0.0279
   72SLPC  H11A 6256   6.589   2.441  10.773  0.9494  0.0293 -0.3491
   72SLPC  H11B 6257   6.555   2.303  10.875 -0.5541  0.6146  0.6356
   72SLPC     P 6258   6.798   2.182  10.859 -0.0938 -0.3369 -0.1682
   72SLPC   O13 6259   6.936   2.150  10.834 -0.0211  0.6078 -0.0000
   72SLPC   O14 6260   6.755   2.158  10.997 -0.1576 -0.2932 -0.3513
   72SLPC   O12 6261   6.766   2.340  10.827 -0.0090  0.4784  0.6654
   72SLPC   O11 6262   6.705   2.102  10.762  0.3259 -0.2826  0.2464
   72SLPC    C1 6263   6.740   2.101  10.623 -0.2103  0.4592  0.0785
   72SLPC    HA 6264   6.844   2.134  10.601 -0.6407  0.7310 -1.6562
   72SLPC    HB 6265   6.737   2.000  10.577 -1.1938  0.7043 -0.4246
   72SLPC    C2 6266   6.661   2.200  10.541  0.1078 -0.5845 -0.4527
   72SLPC    HS 6267   6.687   2.305  10.568 -0.1716 -0.1611 -1.7510
   72SLPC   O21 6268   6.522   2.175  10.560 -0.1985 -0.4229 -0.2553
   72SLPC   C21 6269   6.444   2.270  10.519  0.0928  0.0442  0.0129
   72SLPC   O22 6270   6.474   2.380  10.478 -0.5769 -0.0618  0.2269
   72SLPC   C22 6271   6.305   2.224  10.543 -0.7116  0.3479 -0.1752
   72SLPC   H2R 6272   6.306   2.113  10.556  0.7881  0.4300  0.7850
   72SLPC   H2S 6273   6.272   2.265  10.641  1.1034 -2.3222  1.7182
   72SLPC    C3 6274   6.697   2.188  10.391 -0.0776 -0.5436 -0.1024
   72SLPC    HX 6275   6.650   2.097  10.347  2.9859 -1.0397 -2.7002
   72SLPC    HY 6276   6.805   2.167  10.397 -0.4699 -2.7776 -0.0264
   72SLPC   O31 6277   6.673   2.306  10.312  0.1669  0.3178 -0.0656
   72SLPC   C31 6278   6.775   2.392  10.293  0.5760  0.2478  0.1396
   72SLPC   O32 6279   6.886   2.381  10.326 -0.1825 -0.0673 -0.0967
   72SLPC   C32 6280   6.707   2.520  10.218 -0.1087  0.4336  1.0267
   72SLPC   H2X 6281   6.623   2.550  10.284 -2.5412 -2.4270 -0.5291
   72SLPC   H2Y 6282   6.657   2.484  10.126  0.3403  1.8680  0.1900
   72SLPC   C23 6283   6.211   2.263  10.425 -0.1952  0.3729  0.3986
   72SLPC   H3R 6284   6.254   2.344  10.362 -0.8562  0.0733 -0.4484
   72SLPC   H3S 6285   6.114   2.305  10.460 -0.8497 -0.0995 -0.7945
   72SLPC   C24 6286   6.165   2.139  10.345 -0.1583  0.6062 -0.4906
   72SLPC   H4R 6287   6.099   2.186  10.269  0.4193  1.4417 -0.4915
   72SLPC   H4S 6288   6.112   2.066  10.410  0.2136 -0.5854 -1.4890
   72SLPC   C25 6289   6.281   2.063  10.276  0.5745  0.4833  0.4082
   72SLPC   H5R 6290   6.253   1.956  10.267 -0.8800  0.8243  0.6061
   72SLPC   H5S 6291   6.375   2.068  10.335  0.3186  2.8304  0.7100
   72SLPC   C26 6292   6.316   2.104  10.130  0.8714  0.2204  0.5410
   72SLPC   H6R 6293   6.278   2.208  10.118 -1.0286 -0.3330  1.3573
   72SLPC   H6S 6294   6.248   2.054  10.059 -0.2728 -1.0134  2.4097
   72SLPC   C27 6295   6.464   2.096  10.098  0.1981  0.5441  0.6334
   72SLPC   H7R 6296   6.505   1.992  10.096 -0.7533  0.1040  2.2672
   72SLPC   H7S 6297   6.523   2.150  10.175  0.5605  0.2552  0.5663
   72SLPC   C28 6298   6.501   2.168   9.964  0.2511  0.6274  0.3236
   72SLPC   H8R 6299   6.470   2.275   9.968 -0.4739  0.3720  1.8844
   72SLPC   H8S 6300   6.445   2.129   9.876 -1.2030 -1.3871  2.0492
   72SLPC   C29 6301   6.651   2.149   9.951  0.2749  0.1953  0.4455
   72SLPC   H9R 6302   6.710   2.094  10.025  1.5906 -2.4857 -2.3469
   72SLPC  C210 6303   6.720   2.191   9.847  0.2797 -0.1694  0.0920
   72SLPC  H10R 6304   6.829   2.190   9.861  0.1307 -0.7105  1.4155
   72SLPC  C211 6305   6.663   2.256   9.729  0.0475 -0.5447  0.0705
   72SLPC  H11R 6306   6.574   2.318   9.756  0.8414  1.2863 -1.2679
   72SLPC  H11S 6307   6.638   2.165   9.671  2.3541 -0.8440 -0.5368
   72SLPC  C212 6308   6.763   2.356   9.665 -0.0370 -0.0414 -0.7137
   72SLPC  H12R 6309   6.796   2.441   9.727 -1.7615 -0.6827  1.1853
   72SLPC  C213 6310   6.815   2.352   9.544  0.2449 -0.6225 -0.2051
   72SLPC  H13R 6311   6.880   2.435   9.512 -0.3072 -0.9999 -2.5219
   72SLPC  C214 6312   6.782   2.261   9.434  0.8995  0.6883  0.1074
   72SLPC  H14R 6313   6.761   2.310   9.337  1.0064  0.9314  0.2080
   72SLPC  H14S 6314   6.693   2.198   9.456  0.7356  0.3850 -1.3223
   72SLPC  C215 6315   6.895   2.156   9.402  0.5367  0.3435  0.0247
   72SLPC  H15R 6316   6.858   2.053   9.380  0.4824 -0.2988  2.7346
   72SLPC  H15S 6317   6.964   2.135   9.486  0.1322  0.3239  0.3550
   72SLPC  C216 6318   6.991   2.197   9.286  0.2645  0.5846 -0.1956
   72SLPC  H16R 6319   7.081   2.133   9.293  0.8742  1.6048  3.3065
   72SLPC  H16S 6320   7.019   2.304   9.296  0.5851  0.8407 -2.9372
   72SLPC  C217 6321   6.927   2.180   9.145 -0.7615 -0.3662 -1.2284
   72SLPC  H17R 6322   6.824   2.139   9.151 -1.3984  1.1124 -1.5868
   72SLPC  H17S 6323   6.980   2.097   9.093 -3.9835 -2.5634 -1.3154
   72SLPC  C218 6324   6.938   2.304   9.048 -0.7261  0.3472  0.1133
   72SLPC  H18R 6325   6.847   2.311   8.984 -1.0193  0.9667  0.5891
   72SLPC  H18S 6326   7.028   2.293   8.983 -1.2170  0.1621 -0.5526
   72SLPC  H18T 6327   6.949   2.392   9.115  1.0213 -0.1859  0.5603
   72SLPC   C33 6328   6.821   2.621  10.184  0.0446  0.3802 -0.4055
   72SLPC   H3X 6329   6.868   2.657  10.278 -0.0547 -1.9865  0.6196
   72SLPC   H3Y 6330   6.771   2.715  10.153  0.6092  1.2980  1.3569
   72SLPC   C34 6331   6.925   2.584  10.072 -0.5568 -0.3740 -0.8047
   72SLPC   H4X 6332   6.879   2.556   9.974 -2.8616  3.3158 -0.9619
   72SLPC   H4Y 6333   6.981   2.494  10.105  0.5654  0.5048 -0.2766
   72SLPC   C35 6334   7.033   2.701  10.051 -0.2803  0.4902  0.1926
   72SLPC   H5X 6335   7.134   2.656  10.047  0.3910  1.9914 -1.3554
   72SLPC   H5Y 6336   7.025   2.763  10.143  1.3049  0.6585  0.2422
   72SLPC   C36 6337   6.992   2.792   9.937 -0.6992 -0.6289  0.2660
   72SLPC   H6X 6338   7.049   2.888   9.941 -2.3855  0.9250 -4.8805
   72SLPC   H6Y 6339   6.885   2.821   9.931 -0.3354  0.5527 -2.4067
   72SLPC   C37 6340   7.046   2.730   9.812  0.3941 -0.2424  0.0986
   72SLPC   H7X 6341   6.999   2.629   9.813 -2.1986  0.8042  3.3181
   72SLPC   H7Y 6342   7.155   2.709   9.820  0.1823 -0.6601  3.0964
   72SLPC   C38 6343   7.010   2.822   9.698 -0.1209  0.2985  0.1742
   72SLPC   H8X 6344   7.088   2.897   9.672 -0.4302 -0.3987 -3.2177
   72SLPC   H8Y 6345   6.916   2.879   9.717  0.4753  0.9099  1.3675
   72SLPC   C39 6346   6.965   2.746   9.569  0.3822  0.2057  0.1125
   72SLPC   H9X 6347   6.880   2.676   9.588  0.5966 -0.0129  0.2719
   72SLPC   H9Y 6348   7.046   2.677   9.539  0.1048  0.6621 -1.8142
   72SLPC  C310 6349   6.944   2.843   9.445  0.0137 -0.4185  0.9461
   72SLPC  H10X 6350   7.015   2.929   9.445 -0.3885 -0.0269 -1.0813
   72SLPC  H10Y 6351   6.843   2.888   9.458 -0.2862 -1.3782  2.0797
   72SLPC  C311 6352   6.941   2.772   9.311  0.7051  0.1888 -0.4519
   72SLPC  H11X 6353   6.869   2.689   9.329  3.2649 -1.6959  2.0686
   72SLPC  H11Y 6354   7.038   2.722   9.294 -0.5280 -2.7873  0.5029
   72SLPC  C312 6355   6.904   2.861   9.192 -0.7151  0.0496  0.7895
   72SLPC  H12X 6356   6.820   2.930   9.217 -1.3872 -0.4776  0.0487
   72SLPC  H12Y 6357   6.868   2.805   9.103 -0.4184 -1.7531  1.7502
   72SLPC  C313 6358   7.033   2.932   9.136  0.0829 -0.5518 -0.3938
   72SLPC  H13X 6359   7.087   2.986   9.217  0.8503 -0.0985 -1.1850
   72SLPC  H13Y 6360   6.999   2.997   9.053 -3.3339  0.1610  1.3909
   72SLPC  C314 6361   7.123   2.826   9.075  0.6242 -0.2768 -1.1899
   72SLPC  H14X 6362   7.072   2.754   9.006 -0.5623 -1.5449  0.9026
   72SLPC  H14Y 6363   7.162   2.771   9.163  0.5427  2.5383  0.7147
   72SLPC  C315 6364   7.243   2.890   9.006 -0.6679  0.3564 -0.1225
   72SLPC  H15X 6365   7.308   2.809   8.965 -2.3238 -0.6244 -0.9250
   72SLPC  H15Y 6366   7.298   2.953   9.079 -1.3934 -0.5668  1.2563
   72SLPC  C316 6367   7.203   2.974   8.883 -0.1167  0.4701 -0.2189
   72SLPC  H16X 6368   7.168   3.072   8.922  1.2835  0.9636 -0.1478
   72SLPC  H16Y 6369   7.117   2.923   8.833  1.0120 -2.3147  0.4917
   72SLPC  C317 6370   7.308   2.990   8.777  0.7722  0.4876 -0.2054
   72SLPC  H17X 6371   7.323   2.893   8.725 -0.4375  0.8424 -1.2564
   72SLPC  H17Y 6372   7.401   3.028   8.824  1.2142  1.4554 -1.7716
   72SLPC  C318 6373   7.268   3.095   8.677 -0.6293  0.5655  0.4974
   72SLPC  H18X 6374   7.351   3.119   8.607  1.4285 -2.0746  1.8624
   72SLPC  H18Y 6375   7.234   3.186   8.731 -1.1072  1.2850 -0.9586
   72SLPC  H18Z 6376   7.181   3.062   8.616 -1.0685  0.5220  1.1442
   73SLPC     N 6377   5.830   2.082  11.141 -0.7255 -0.9057  0.4708
   73SLPC   C13 6378   5.923   1.994  11.218  0.5534 -0.1524  0.5123
   73SLPC  H13A 6379   5.868   1.919  11.273 -0.1090  0.3432  0.5343
   73SLPC  H13B 6380   6.002   1.958  11.153  0.1579  0.5671 -0.3905
   73SLPC  H13C 6381   5.982   2.051  11.288 -0.9189  1.1662  0.7419
   73SLPC   C14 6382   5.763   2.008  11.028 -0.0148 -0.0254 -1.4193
   73SLPC  H14A 6383   5.832   1.981  10.950  1.0466  2.6888 -1.5163
   73SLPC  H14B 6384   5.720   1.919  11.072  1.6729  0.1128  0.7374
   73SLPC  H14C 6385   5.696   2.080  10.983  0.8454  1.3490 -0.5957
   73SLPC   C15 6386   5.914   2.187  11.083  0.2488 -0.8342  0.3292
   73SLPC  H15A 6387   5.954   2.158  10.986 -2.8148 -1.3820 -0.8789
   73SLPC  H15B 6388   5.851   2.273  11.065  0.3451 -0.4868  1.5771
   73SLPC  H15C 6389   5.996   2.210  11.150  1.5185  0.7775 -1.6496
   73SLPC   C12 6390   5.719   2.141  11.238  0.6989 -0.5184 -0.3755
   73SLPC  H12A 6391   5.768   2.210  11.305  2.5189  1.2489 -3.3093
   73SLPC  H12B 6392   5.661   2.066  11.290 -0.6422  0.8549  0.2015
   73SLPC   C11 6393   5.604   2.224  11.168 -0.0890 -0.6081  0.0997
   73SLPC  H11A 6394   5.541   2.266  11.249 -2.4156 -2.5298 -0.5562
   73SLPC  H11B 6395   5.545   2.162  11.096 -1.8957  1.0550  0.0521
   73SLPC     P 6396   5.597   2.370  10.947 -0.0712 -0.5110 -0.0449
   73SLPC   O13 6397   5.452   2.414  10.961 -0.1062  0.2712  0.1095
   73SLPC   O14 6398   5.687   2.476  10.887 -0.3902  0.0066 -0.0834
   73SLPC   O12 6399   5.659   2.331  11.096 -0.0351  0.5239  0.3566
   73SLPC   O11 6400   5.591   2.233  10.872 -0.1595  0.0314  0.5223
   73SLPC    C1 6401   5.487   2.196  10.782  0.0837 -0.1069  0.6155
   73SLPC    HA 6402   5.463   2.089  10.799 -1.7358 -0.1592 -1.7390
   73SLPC    HB 6403   5.402   2.266  10.792  0.4361  0.2994  0.7804
   73SLPC    C2 6404   5.535   2.212  10.632 -0.5937 -0.2735 -0.4360
   73SLPC    HS 6405   5.565   2.318  10.618 -0.1210 -0.3897 -0.3031
   73SLPC   O21 6406   5.420   2.202  10.539 -0.5953 -0.0896 -0.4447
   73SLPC   C21 6407   5.366   2.086  10.528 -0.4277  0.1688  0.7977
   73SLPC   O22 6408   5.392   1.985  10.588  0.0835  0.2448  0.0326
   73SLPC   C22 6409   5.251   2.096  10.427 -0.2599  0.2164  0.5083
   73SLPC   H2R 6410   5.151   2.106  10.473 -0.3701  0.1659  0.2825
   73SLPC   H2S 6411   5.271   2.180  10.358 -2.3617  0.9417  0.7265
   73SLPC    C3 6412   5.661   2.121  10.598  0.3853 -0.1663 -0.7939
   73SLPC    HX 6413   5.642   2.024  10.649  2.3947 -1.3289 -2.1006
   73SLPC    HY 6414   5.752   2.167  10.641  0.6734  0.9432 -2.4861
   73SLPC   O31 6415   5.682   2.099  10.457  0.2067  0.4877  0.1115
   73SLPC   C31 6416   5.784   2.019  10.428 -0.3001  0.5649 -0.1417
   73SLPC   O32 6417   5.865   1.973  10.506 -0.1107  0.9430  0.5210
   73SLPC   C32 6418   5.773   1.976  10.281  0.1474 -0.6386  0.5971
   73SLPC   H2X 6419   5.746   2.068  10.225 -1.2212 -1.3498  0.0536
   73SLPC   H2Y 6420   5.684   1.910  10.275  0.9881 -1.7865  0.1932
   73SLPC   C23 6421   5.246   1.978  10.326 -0.4547  0.2807  0.5720
   73SLPC   H3R 6422   5.159   1.996  10.261  0.6660 -2.0535 -1.7389
   73SLPC   H3S 6423   5.231   1.885  10.385  0.8350 -0.3114  0.0143
   73SLPC   C24 6424   5.367   1.965  10.230 -0.1986  0.4387 -0.0693
   73SLPC   H4R 6425   5.444   1.915  10.294 -0.9613 -0.6893 -0.0110
   73SLPC   H4S 6426   5.400   2.066  10.198  0.0898  0.0192 -1.1144
   73SLPC   C25 6427   5.349   1.878  10.103 -0.8602 -0.3438 -0.5501
   73SLPC   H5R 6428   5.251   1.909  10.064 -0.5524  0.9421 -0.3344
   73SLPC   H5S 6429   5.335   1.771  10.129 -3.2848 -0.9389 -3.6762
   73SLPC   C26 6430   5.459   1.903   9.997 -0.1704  0.0497  0.9347
   73SLPC   H6R 6431   5.560   1.896  10.044 -0.0979 -1.4903  0.6098
   73SLPC   H6S 6432   5.443   1.997   9.941 -1.7651 -0.5168  0.3711
   73SLPC   C27 6433   5.467   1.781   9.900  0.1294  0.2483 -0.4989
   73SLPC   H7R 6434   5.364   1.759   9.866  0.3163  0.7270 -1.4185
   73SLPC   H7S 6435   5.514   1.693   9.948  0.2289  0.6221  0.1000
   73SLPC   C28 6436   5.557   1.813   9.781 -0.7684 -0.2264 -0.0004
   73SLPC   H8R 6437   5.661   1.827   9.816 -0.3411 -2.4265 -0.2013
   73SLPC   H8S 6438   5.524   1.907   9.732 -0.8125  0.4715  1.3362
   73SLPC   C29 6439   5.562   1.690   9.689 -0.5493 -0.0233 -0.7868
   73SLPC   H9R 6440   5.582   1.596   9.742 -3.0678  0.1506  0.6307
   73SLPC  C210 6441   5.547   1.681   9.560 -0.0768 -0.3081  0.5166
   73SLPC  H10R 6442   5.558   1.586   9.507 -2.8187 -0.1880 -0.3906
   73SLPC  C211 6443   5.516   1.796   9.474  0.1901 -0.3553  0.1774
   73SLPC  H11R 6444   5.521   1.886   9.538  0.5724 -1.1433  1.2809
   73SLPC  H11S 6445   5.407   1.791   9.450  0.0925  2.9944 -0.5253
   73SLPC  C212 6446   5.604   1.819   9.352 -0.1641 -0.1169  0.2800
   73SLPC  H12R 6447   5.706   1.853   9.376 -0.3784 -0.2314  1.4287
   73SLPC  C213 6448   5.573   1.786   9.224  0.8753  0.0787 -0.7441
   73SLPC  H13R 6449   5.641   1.801   9.139  1.0130 -0.0548 -0.6584
   73SLPC  C214 6450   5.442   1.715   9.192  0.1905  0.8695  0.0034
   73SLPC  H14R 6451   5.366   1.778   9.140 -3.1615 -3.6607 -1.2593
   73SLPC  H14S 6452   5.390   1.690   9.287  0.1631  0.2891 -0.1615
   73SLPC  C215 6453   5.479   1.588   9.110 -0.6528 -0.2399  0.5973
   73SLPC  H15R 6454   5.531   1.617   9.017 -0.0646 -1.3325  0.5708
   73SLPC  H15S 6455   5.379   1.549   9.083 -0.3483 -0.8243  0.3115
   73SLPC  C216 6456   5.549   1.479   9.190 -0.6017 -0.0067  0.0574
   73SLPC  H16R 6457   5.497   1.459   9.286 -0.9920 -1.0527 -0.3526
   73SLPC  H16S 6458   5.654   1.497   9.219 -0.4527  0.2110 -0.5949
   73SLPC  C217 6459   5.549   1.345   9.117  0.1740  0.1735  1.0001
   73SLPC  H17R 6460   5.640   1.287   9.144  1.4879  2.3069  1.3969
   73SLPC  H17S 6461   5.560   1.375   9.011  0.1935  1.1438  1.2662
   73SLPC  C218 6462   5.424   1.260   9.122  0.1801  0.1521  0.1481
   73SLPC  H18R 6463   5.439   1.159   9.078 -0.3332 -0.8740  2.1737
   73SLPC  H18S 6464   5.337   1.304   9.070 -0.8503 -1.5623  0.3257
   73SLPC  H18T 6465   5.401   1.249   9.230  1.5254  1.7783  0.6378
   73SLPC   C33 6466   5.898   1.899  10.235  0.8159  0.8966  0.5518
   73SLPC   H3X 6467   5.909   1.817  10.309  0.5186 -0.3562 -0.7592
   73SLPC   H3Y 6468   5.993   1.957  10.230  0.4466  1.4671  0.1424
   73SLPC   C34 6469   5.888   1.834  10.093  0.1843 -0.0108 -0.1685
   73SLPC   H4X 6470   5.788   1.792  10.073  0.5438 -1.0678  0.1621
   73SLPC   H4Y 6471   5.958   1.747  10.090 -2.3496 -2.1606 -0.3045
   73SLPC   C35 6472   5.933   1.932   9.978 -0.3138  0.0148  0.2289
   73SLPC   H5X 6473   6.032   1.981   9.989  0.2375 -0.4001 -2.2380
   73SLPC   H5Y 6474   5.849   2.003   9.962 -0.8184 -0.9301 -1.6597
   73SLPC   C36 6475   5.950   1.865   9.836 -0.1550  0.2318  0.0566
   73SLPC   H6X 6476   5.862   1.797   9.830  1.0978 -1.3575 -1.2941
   73SLPC   H6Y 6477   6.040   1.801   9.846 -1.0737 -0.7638  2.7216
   73SLPC   C37 6478   5.956   1.959   9.720  0.0427 -0.0615  0.6296
   73SLPC   H7X 6479   6.047   2.020   9.736  2.1386 -2.6632 -0.6390
   73SLPC   H7Y 6480   5.867   2.023   9.700  0.3197 -0.0744 -0.7382
   73SLPC   C38 6481   5.968   1.866   9.591  0.0072 -0.1752  0.4382
   73SLPC   H8X 6482   5.876   1.803   9.593  0.1955 -0.5795  4.0818
   73SLPC   H8Y 6483   6.058   1.803   9.609  0.5073  0.9710  2.0954
   73SLPC   C39 6484   5.985   1.942   9.455 -0.4045 -0.6993 -0.2735
   73SLPC   H9X 6485   6.056   2.027   9.460 -1.2678  0.0082  0.2359
   73SLPC   H9Y 6486   5.889   1.996   9.441  0.2777  1.1659  1.7119
   73SLPC  C310 6487   6.007   1.848   9.341 -0.3739 -0.2289  0.2998
   73SLPC  H10X 6488   5.908   1.797   9.343 -1.5955  2.0159  0.4678
   73SLPC  H10Y 6489   6.090   1.774   9.350 -0.8263 -1.3571 -3.3057
   73SLPC  C311 6490   6.034   1.924   9.204  0.0050 -0.0930  0.4298
   73SLPC  H11X 6491   6.115   1.997   9.225  0.4586  0.0528 -1.6257
   73SLPC  H11Y 6492   5.940   1.981   9.189  0.3233  0.1908 -0.5496
   73SLPC  C312 6493   6.093   1.830   9.099  0.3435 -0.2422 -0.0546
   73SLPC  H12X 6494   6.026   1.745   9.077  0.3552 -0.3614  0.3715
   73SLPC  H12Y 6495   6.188   1.784   9.135 -0.5428 -1.7364  0.4481
   73SLPC  C313 6496   6.130   1.902   8.969 -0.4711 -0.9620 -0.3027
   73SLPC  H13X 6497   6.206   1.837   8.920  1.8240  0.6222  0.9063
   73SLPC  H13Y 6498   6.172   2.005   8.982 -3.3225  0.5391 -2.0314
   73SLPC  C314 6499   6.001   1.927   8.889  0.4784  0.4658  0.4994
   73SLPC  H14X 6500   5.951   2.002   8.953 -0.1562 -0.3993  1.0448
   73SLPC  H14Y 6501   5.932   1.840   8.891  0.1350  0.7333  0.3702
   73SLPC  C315 6502   6.040   1.970   8.744 -0.8529 -0.0542  0.6302
   73SLPC  H15X 6503   6.123   2.042   8.726  0.2191 -1.6282 -1.1983
   73SLPC  H15Y 6504   5.955   2.020   8.694  0.7642  0.2628 -2.0316
   73SLPC  C316 6505   6.088   1.856   8.653  0.1608  0.5793 -0.3370
   73SLPC  H16X 6506   5.997   1.812   8.607 -0.1932  2.3928 -1.4675
   73SLPC  H16Y 6507   6.145   1.789   8.721  0.3703  1.4381  0.3400
   73SLPC  C317 6508   6.174   1.895   8.533 -0.4158  0.1258  0.5062
   73SLPC  H17X 6509   6.263   1.947   8.575  0.6271 -1.4823  0.4144
   73SLPC  H17Y 6510   6.125   1.968   8.465  2.8239  1.9942 -0.0460
   73SLPC  C318 6511   6.212   1.780   8.434 -0.4330 -0.2322 -0.5611
   73SLPC  H18X 6512   6.248   1.825   8.339 -1.5000 -0.5622 -1.1436
   73SLPC  H18Y 6513   6.123   1.714   8.424  0.1058 -0.8168 -1.6910
   73SLPC  H18Z 6514   6.302   1.727   8.471 -0.7457 -0.4789 -0.1513
   74SLPC     N 6515   0.152   3.385  10.858  0.2012 -0.5559 -0.1027
   74SLPC   C13 6516   0.273   3.306  10.883  0.4062 -0.4324 -0.3149
   74SLPC  H13A 6517   0.358   3.372  10.878 -0.5330  0.7190 -1.6011
   74SLPC  H13B 6518   0.274   3.273  10.986 -1.5786  2.3295  0.7090
   74SLPC  H13C 6519   0.278   3.219  10.819  0.4496  0.3235 -1.3659
   74SLPC   C14 6520   0.164   3.514  10.936 -0.0714 -0.0992  0.9199
   74SLPC  H14A 6521   0.170   3.489  11.041  0.7964 -3.2604  0.2294
   74SLPC  H14B 6522   0.251   3.571  10.907  0.0025 -0.4638  0.3971
   74SLPC  H14C 6523   0.078   3.577  10.919  0.4128  1.0120  2.4428
   74SLPC   C15 6524   0.025   3.325  10.906 -0.0551 -0.4575  0.5544
   74SLPC  H15A 6525   0.012   3.330  11.013  1.2443 -0.0275  0.7108
   74SLPC  H15B 6526  -0.053   3.391  10.871  2.3396  2.3009  0.0415
   74SLPC  H15C 6527   0.015   3.225  10.867 -0.0675  0.6299 -2.4440
   74SLPC   C12 6528   0.138   3.420  10.716 -0.4665 -0.1784 -0.4007
   74SLPC  H12A 6529   0.121   3.330  10.659 -2.3370  0.7190 -1.3638
   74SLPC  H12B 6530   0.237   3.448  10.681  0.1083 -0.8512  0.6338
   74SLPC   C11 6531   0.028   3.520  10.667  0.2635  0.2233 -0.7865
   74SLPC  H11A 6532  -0.070   3.471  10.689  0.2807  0.5748  0.1297
   74SLPC  H11B 6533   0.050   3.527  10.558  2.9051  1.1885 -0.2727
   74SLPC     P 6534   0.107   3.774  10.692 -0.0208 -0.5446  0.1214
   74SLPC   O13 6535   0.025   3.892  10.710  0.2614  0.1498  0.3511
   74SLPC   O14 6536   0.235   3.761  10.763  0.5440  0.2350 -0.1331
   74SLPC   O12 6537   0.022   3.652  10.730 -0.0486 -0.3052  0.5958
   74SLPC   O11 6538   0.135   3.760  10.535 -0.1500  0.1248  0.0853
   74SLPC    C1 6539   0.052   3.833  10.443 -0.0529  0.1395  0.5725
   74SLPC    HA 6540  -0.029   3.899  10.482  0.7897  1.3450  0.3329
   74SLPC    HB 6541   0.118   3.896  10.379  0.1159 -0.5844  0.0280
   74SLPC    C2 6542  -0.024   3.735  10.342  0.3657  0.0850 -0.1247
   74SLPC    HS 6543  -0.085   3.673  10.411 -0.7942  0.0618 -1.1162
   74SLPC   O21 6544   0.066   3.664  10.260 -0.6604  0.1019 -0.0090
   74SLPC   C21 6545   0.036   3.539  10.230 -0.6619  0.1947  0.1223
   74SLPC   O22 6546  -0.035   3.466  10.298  0.6724  0.7205 -0.4358
   74SLPC   C22 6547   0.114   3.494  10.104 -0.3877 -0.6968 -0.1984
   74SLPC   H2R 6548   0.216   3.538  10.106  0.0346 -1.5829  2.9671
   74SLPC   H2S 6549   0.112   3.383  10.110 -0.1880 -0.6762  0.2405
   74SLPC    C3 6550  -0.116   3.819  10.247 -0.3016 -0.2052 -0.9765
   74SLPC    HX 6551  -0.046   3.883  10.189  1.8366 -0.2495  1.3810
   74SLPC    HY 6552  -0.179   3.891  10.303  1.1382 -1.3361  2.3796
   74SLPC   O31 6553  -0.198   3.728  10.166  0.2530  0.0971  0.0989
   74SLPC   C31 6554  -0.296   3.672  10.229  0.2723  0.6360  0.4337
   74SLPC   O32 6555  -0.334   3.700  10.338  0.1453  0.3952 -0.2200
   74SLPC   C32 6556  -0.346   3.558  10.144  0.1039  0.3181  0.0559
   74SLPC   H2X 6557  -0.263   3.488  10.121 -1.2897 -1.2723 -0.3806
   74SLPC   H2Y 6558  -0.386   3.603  10.050 -1.4731 -0.7041  0.1956
   74SLPC   C23 6559   0.032   3.527   9.974 -0.0924 -0.6202  0.3622
   74SLPC   H3R 6560   0.014   3.636   9.962 -1.4799 -0.8890 -0.1954
   74SLPC   H3S 6561  -0.066   3.477   9.987 -1.4911  1.5470 -1.1246
   74SLPC   C24 6562   0.099   3.479   9.845  0.1116  1.2988  0.7465
   74SLPC   H4R 6563   0.113   3.370   9.864  0.4230  0.8752 -1.6261
   74SLPC   H4S 6564   0.193   3.529   9.814 -0.9884  2.3400 -1.1080
   74SLPC   C25 6565   0.011   3.493   9.720 -0.3290 -0.2334  0.3632
   74SLPC   H5R 6566   0.010   3.599   9.687  0.8542 -0.0560  0.8536
   74SLPC   H5S 6567  -0.091   3.464   9.753 -1.8115  0.6378 -3.0035
   74SLPC   C26 6568   0.049   3.410   9.596  0.8587 -0.3856  0.6742
   74SLPC   H6R 6569   0.140   3.455   9.550 -0.4863  1.2862 -0.4540
   74SLPC   H6S 6570  -0.034   3.421   9.523 -0.2528 -2.1297  1.6090
   74SLPC   C27 6571   0.049   3.262   9.623 -0.4904 -0.4123 -0.6387
   74SLPC   H7R 6572  -0.036   3.233   9.688 -0.6191  0.6614 -0.3138
   74SLPC   H7S 6573   0.136   3.226   9.681 -3.8279 -0.4055  5.1117
   74SLPC   C28 6574   0.046   3.178   9.497 -0.1819 -0.0981  0.0249
   74SLPC   H8R 6575  -0.044   3.207   9.438  0.7595  0.7077 -1.0619
   74SLPC   H8S 6576   0.022   3.073   9.524  0.3725 -0.4014 -0.6232
   74SLPC   C29 6577   0.173   3.188   9.420 -0.0445 -0.0158 -0.4881
   74SLPC   H9R 6578   0.267   3.156   9.468 -1.5492 -2.1681  1.2546
   74SLPC  C210 6579   0.180   3.235   9.300 -0.3838  0.3032  0.0145
   74SLPC  H10R 6580   0.280   3.248   9.257  0.7656  0.8393  2.6349
   74SLPC  C211 6581   0.063   3.291   9.219 -0.0288  0.8817 -0.0366
   74SLPC  H11R 6582  -0.020   3.336   9.277 -0.3751  1.1121 -0.6972
   74SLPC  H11S 6583   0.005   3.205   9.180 -0.8190  1.5582 -0.3645
   74SLPC  C212 6584   0.109   3.393   9.123 -1.0443 -0.3856  1.6404
   74SLPC  H12R 6585   0.143   3.484   9.173  0.4350 -1.1381  2.0821
   74SLPC  C213 6586   0.123   3.380   8.989 -0.4471  0.3997  0.2084
   74SLPC  H13R 6587   0.168   3.466   8.938 -1.2477  1.1112  0.6596
   74SLPC  C214 6588   0.094   3.249   8.917  0.5439  0.1846  0.5596
   74SLPC  H14R 6589  -0.011   3.215   8.925  0.6022  0.1246  1.1119
   74SLPC  H14S 6590   0.156   3.170   8.964  3.0034  1.5904 -0.0930
   74SLPC  C215 6591   0.144   3.239   8.764  0.0489  0.7827 -0.4733
   74SLPC  H15R 6592   0.148   3.132   8.734 -1.2262 -0.0613  2.1351
   74SLPC  H15S 6593   0.243   3.288   8.774 -0.0568  0.6526  1.4584
   74SLPC  C216 6594   0.051   3.296   8.661  0.3697  0.8344 -1.0996
   74SLPC  H16R 6595   0.060   3.407   8.665 -0.5422  0.9178 -1.1301
   74SLPC  H16S 6596  -0.052   3.262   8.685  0.5153  1.2512  0.1482
   74SLPC  C217 6597   0.062   3.255   8.522  0.0124 -0.5892  0.0039
   74SLPC  H17R 6598   0.074   3.145   8.517  0.3125 -0.6990  1.9964
   74SLPC  H17S 6599   0.145   3.314   8.478 -1.2320 -0.3647 -2.1867
   74SLPC  C218 6600  -0.055   3.284   8.435 -0.1108 -0.1930  0.4910
   74SLPC  H18R 6601  -0.029   3.235   8.339 -0.9426 -2.1477  1.2017
   74SLPC  H18S 6602  -0.079   3.389   8.410 -1.6791 -0.1020  2.1531
   74SLPC  H18T 6603  -0.147   3.229   8.466  0.7790 -1.6307  0.6652
   74SLPC   C33 6604  -0.472   3.494  10.210 -0.2120  0.4362  0.3429
   74SLPC   H3X 6605  -0.542   3.571  10.251 -1.1693 -0.1924 -0.0861
   74SLPC   H3Y 6606  -0.435   3.433  10.295 -1.0952 -0.8398 -0.1658
   74SLPC   C34 6607  -0.537   3.396  10.110 -0.5149  0.1040  1.0876
   74SLPC   H4X 6608  -0.589   3.460  10.036 -0.0216  1.7718  2.1240
   74SLPC   H4Y 6609  -0.611   3.332  10.163 -0.4197 -0.8605  0.0961
   74SLPC   C35 6610  -0.444   3.291  10.036  0.0636  0.1672 -0.0747
   74SLPC   H5X 6611  -0.504   3.197  10.034 -1.0654  0.8571 -2.4443
   74SLPC   H5Y 6612  -0.353   3.262  10.093 -0.6099 -1.1100  0.3879
   74SLPC   C36 6613  -0.412   3.332   9.886  0.3436  0.1313 -0.9602
   74SLPC   H6X 6614  -0.366   3.432   9.872  1.6042 -0.1594  0.7262
   74SLPC   H6Y 6615  -0.510   3.339   9.835  0.8277 -0.8353 -2.1073
   74SLPC   C37 6616  -0.342   3.225   9.800 -1.7540 -0.0229  0.1113
   74SLPC   H7X 6617  -0.365   3.124   9.840  0.5642 -0.6425  0.0247
   74SLPC   H7Y 6618  -0.233   3.245   9.810 -1.5674 -0.9857  0.0984
   74SLPC   C38 6619  -0.386   3.222   9.652  0.4293 -0.3986 -0.4653
   74SLPC   H8X 6620  -0.497   3.215   9.646  0.3358  1.6325 -2.1017
   74SLPC   H8Y 6621  -0.347   3.130   9.602  0.5000 -1.8287  2.0572
   74SLPC   C39 6622  -0.344   3.350   9.567  0.2191  0.0994 -0.2022
   74SLPC   H9X 6623  -0.241   3.386   9.584  0.2773  0.7152 -1.7719
   74SLPC   H9Y 6624  -0.413   3.434   9.587 -0.9193  0.0444 -3.3673
   74SLPC  C310 6625  -0.349   3.321   9.415  0.1563 -0.3145  0.3458
   74SLPC  H10X 6626  -0.455   3.305   9.388 -0.2166  1.1054  0.8766
   74SLPC  H10Y 6627  -0.290   3.233   9.382  1.2601  1.0660 -1.6505
   74SLPC  C311 6628  -0.301   3.441   9.324  0.5832 -0.1939 -0.4712
   74SLPC  H11X 6629  -0.192   3.455   9.343  1.4466 -2.9505 -2.7484
   74SLPC  H11Y 6630  -0.361   3.529   9.355  1.3120 -0.0855  0.7204
   74SLPC  C312 6631  -0.315   3.412   9.175  0.3827  0.2305  0.2486
   74SLPC  H12X 6632  -0.421   3.401   9.144  0.2475  1.0585  0.3790
   74SLPC  H12Y 6633  -0.263   3.319   9.146 -0.1399 -0.0579  0.2259
   74SLPC  C313 6634  -0.248   3.530   9.093  0.5157  1.0693 -0.5953
   74SLPC  H13X 6635  -0.137   3.538   9.105  0.8229 -1.1709 -1.5542
   74SLPC  H13Y 6636  -0.307   3.617   9.129  0.4151  0.3975  0.9304
   74SLPC  C314 6637  -0.267   3.510   8.938  0.1963 -1.0117 -0.6752
   74SLPC  H14X 6638  -0.375   3.520   8.918 -0.5762 -3.1375  1.8654
   74SLPC  H14Y 6639  -0.246   3.407   8.902  0.1823 -2.0048  1.9169
   74SLPC  C315 6640  -0.189   3.614   8.848  0.3046 -0.0374 -0.3027
   74SLPC  H15X 6641  -0.087   3.622   8.892 -1.0255  1.0746  2.9166
   74SLPC  H15Y 6642  -0.224   3.717   8.869  1.7239  0.1844  1.2070
   74SLPC  C316 6643  -0.209   3.593   8.695 -0.0652  0.1357 -0.3677
   74SLPC  H16X 6644  -0.311   3.634   8.676 -0.1659  0.5693  1.0260
   74SLPC  H16Y 6645  -0.212   3.485   8.670 -4.3974 -0.2897  1.0801
   74SLPC  C317 6646  -0.103   3.671   8.607 -0.2350 -0.6258 -0.6826
   74SLPC  H17X 6647  -0.132   3.667   8.500  0.8367  0.4659 -1.0470
   74SLPC  H17Y 6648  -0.008   3.616   8.623  1.0395  2.1029  2.2453
   74SLPC  C318 6649  -0.074   3.813   8.652  0.5816  0.1674  0.1547
   74SLPC  H18X 6650  -0.018   3.795   8.746 -0.9790 -0.7936  0.9514
   74SLPC  H18Y 6651  -0.165   3.867   8.688  0.3754 -1.1224  1.7059
   74SLPC  H18Z 6652  -0.025   3.860   8.564 -0.1808 -1.0185 -0.9494
   75SLPC     N 6653   5.104   3.407   6.869  0.8464  0.5564 -0.4188
   75SLPC   C13 6654   5.084   3.540   6.943  0.1140  0.4657 -0.5028
   75SLPC  H13A 6655   5.133   3.532   7.039 -0.8032 -0.5795 -0.1008
   75SLPC  H13B 6656   5.132   3.624   6.894  0.5003  1.0961  0.9042
   75SLPC  H13C 6657   4.984   3.563   6.974  0.1442  1.0521 -0.8282
   75SLPC   C14 6658   5.037   3.407   6.729  0.3611  0.0577 -1.1246
   75SLPC  H14A 6659   4.930   3.397   6.742  0.4999  0.0654  0.1474
   75SLPC  H14B 6660   5.049   3.506   6.689 -0.2859  1.0138  0.8830
   75SLPC  H14C 6661   5.081   3.331   6.667  1.3890  0.2104 -0.6004
   75SLPC   C15 6662   5.047   3.296   6.950  0.7989 -0.6498  0.1754
   75SLPC  H15A 6663   5.054   3.201   6.900 -0.7543  0.0334 -1.4135
   75SLPC  H15B 6664   5.100   3.281   7.043  0.1865  0.5612  0.7486
   75SLPC  H15C 6665   4.943   3.317   6.970  0.8639 -0.5583  0.4179
   75SLPC   C12 6666   5.252   3.381   6.848  0.0592 -0.1872 -0.2290
   75SLPC  H12A 6667   5.263   3.284   6.802  0.1717 -1.0320  1.5190
   75SLPC  H12B 6668   5.300   3.377   6.945  0.2390 -1.7051 -0.3640
   75SLPC   C11 6669   5.319   3.491   6.763 -0.2074 -0.0491  0.1873
   75SLPC  H11A 6670   5.277   3.502   6.661  0.3418  0.2257 -0.0131
   75SLPC  H11B 6671   5.422   3.453   6.753 -0.0259 -0.5416  3.0376
   75SLPC     P 6672   5.453   3.718   6.823  0.0693  0.3935 -0.1476
   75SLPC   O13 6673   5.553   3.669   6.727 -0.6974  0.3650 -0.0330
   75SLPC   O14 6674   5.406   3.858   6.812 -0.1914 -0.3435 -0.7191
   75SLPC   O12 6675   5.327   3.618   6.821  0.9291 -0.8253  0.2682
   75SLPC   O11 6676   5.498   3.693   6.969  0.1828 -0.0096 -0.4789
   75SLPC    C1 6677   5.546   3.565   7.010  0.4955 -0.1298 -0.0650
   75SLPC    HA 6678   5.534   3.489   6.930 -1.5053  0.6586 -0.5893
   75SLPC    HB 6679   5.656   3.564   7.017  0.6244 -1.1498 -1.7523
   75SLPC    C2 6680   5.463   3.522   7.139 -0.4240  0.0079 -0.5397
   75SLPC    HS 6681   5.357   3.554   7.130 -0.3179  0.1627 -1.3547
   75SLPC   O21 6682   5.534   3.584   7.247 -0.5322 -0.0390  0.0262
   75SLPC   C21 6683   5.497   3.709   7.289  0.6587 -0.1410  0.2268
   75SLPC   O22 6684   5.403   3.769   7.243  0.0303 -0.2003 -0.2208
   75SLPC   C22 6685   5.585   3.762   7.404  0.3534  0.3639  1.5437
   75SLPC   H2R 6686   5.687   3.772   7.361 -0.8822 -0.1773 -1.8261
   75SLPC   H2S 6687   5.551   3.867   7.417  2.2066  1.1086  0.7237
   75SLPC    C3 6688   5.480   3.363   7.161  0.1746 -0.3708  0.3852
   75SLPC    HX 6689   5.588   3.338   7.161  0.3663  0.3235 -1.0540
   75SLPC    HY 6690   5.435   3.321   7.068  0.0355  0.8221 -0.1067
   75SLPC   O31 6691   5.413   3.327   7.280  0.4214  0.2174 -0.2122
   75SLPC   C31 6692   5.281   3.327   7.290  0.0691  0.3705 -0.2201
   75SLPC   O32 6693   5.207   3.371   7.205  0.6331  0.3012 -0.2451
   75SLPC   C32 6694   5.234   3.258   7.414 -0.5551 -0.3999  0.0312
   75SLPC   H2X 6695   5.272   3.315   7.501 -1.2333 -0.6843  0.5206
   75SLPC   H2Y 6696   5.281   3.158   7.425  0.6174  0.4079  3.5535
   75SLPC   C23 6697   5.580   3.672   7.521  0.3869  0.6966 -0.3259
   75SLPC   H3R 6698   5.635   3.712   7.608  1.6839 -1.2802 -0.1773
   75SLPC   H3S 6699   5.635   3.581   7.491 -1.8528 -1.4336  1.6404
   75SLPC   C24 6700   5.433   3.641   7.570 -0.0555 -0.6045 -0.0443
   75SLPC   H4R 6701   5.382   3.592   7.485 -0.1208  1.7463 -1.4544
   75SLPC   H4S 6702   5.382   3.735   7.599 -0.2361 -1.0089  0.9971
   75SLPC   C25 6703   5.441   3.548   7.687 -0.0108  0.5364 -0.4521
   75SLPC   H5R 6704   5.520   3.565   7.763 -0.0690  0.0683 -0.2779
   75SLPC   H5S 6705   5.460   3.441   7.662  1.3510  0.7275 -0.2560
   75SLPC   C26 6706   5.306   3.539   7.753 -0.3875 -0.4665 -0.4932
   75SLPC   H6R 6707   5.226   3.517   7.678 -0.6935 -0.5953 -0.1312
   75SLPC   H6S 6708   5.279   3.632   7.808 -0.4993 -1.8092  1.8395
   75SLPC   C27 6709   5.302   3.446   7.877  0.3486  0.3385  0.8883
   75SLPC   H7R 6710   5.406   3.454   7.915  0.0802  0.2263  1.6669
   75SLPC   H7S 6711   5.280   3.343   7.840 -2.4491  1.4546 -0.8676
   75SLPC   C28 6712   5.200   3.499   7.981 -0.0112 -0.3543 -0.1971
   75SLPC   H8R 6713   5.198   3.609   7.996  0.3652 -0.5105  1.1333
   75SLPC   H8S 6714   5.247   3.458   8.073  1.1846 -0.2061 -0.7238
   75SLPC   C29 6715   5.056   3.449   7.974  0.3831  0.2901 -0.1585
   75SLPC   H9R 6716   5.009   3.458   7.875  0.7525  3.6346 -0.1354
   75SLPC  C210 6717   4.997   3.387   8.076 -0.0947 -0.3231  0.5351
   75SLPC  H10R 6718   4.888   3.375   8.069  0.0674 -0.9737 -1.4275
   75SLPC  C211 6719   5.043   3.347   8.211 -0.4281  0.3534  0.1088
   75SLPC  H11R 6720   5.148   3.380   8.230 -1.0343  2.2370  0.3626
   75SLPC  H11S 6721   5.043   3.236   8.217 -0.3651  0.1604 -2.4457
   75SLPC  C212 6722   4.960   3.407   8.326 -0.1173 -1.0234  0.7748
   75SLPC  H12R 6723   5.010   3.496   8.367 -1.2236  0.0260 -0.0719
   75SLPC  C213 6724   4.845   3.366   8.372 -0.2186  0.6655 -0.0646
   75SLPC  H13R 6725   4.809   3.415   8.464  0.0103  1.0462 -0.1746
   75SLPC  C214 6726   4.768   3.247   8.324  0.0300  0.0802 -0.0597
   75SLPC  H14R 6727   4.805   3.216   8.224 -0.8803 -1.3142  0.0110
   75SLPC  H14S 6728   4.662   3.270   8.303  0.1352  1.0097  0.4062
   75SLPC  C215 6729   4.779   3.126   8.419 -0.3744 -0.0525  0.0104
   75SLPC  H15R 6730   4.887   3.106   8.435  0.4783  1.6176 -2.9506
   75SLPC  H15S 6731   4.756   3.028   8.372 -0.1965 -0.3656  0.5577
   75SLPC  C216 6732   4.712   3.134   8.563  0.8959  0.3538  0.3590
   75SLPC  H16R 6733   4.781   3.191   8.628 -0.9477  0.5490  2.2555
   75SLPC  H16S 6734   4.709   3.030   8.601  0.7806 -0.6809 -2.2595
   75SLPC  C217 6735   4.572   3.199   8.554  0.5674  0.6551 -0.7758
   75SLPC  H17R 6736   4.494   3.137   8.504  1.7840 -2.2848  0.7513
   75SLPC  H17S 6737   4.579   3.289   8.490 -0.6017  0.6303 -0.9551
   75SLPC  C218 6738   4.504   3.235   8.690 -0.8276  0.2243 -0.1158
   75SLPC  H18R 6739   4.412   3.296   8.678 -0.7331  0.3905 -0.0107
   75SLPC  H18S 6740   4.578   3.284   8.758 -2.1956  1.1955  0.7195
   75SLPC  H18T 6741   4.484   3.145   8.752  1.1159  0.6448  1.2031
   75SLPC   C33 6742   5.081   3.256   7.436 -0.4486  0.1671 -0.1080
   75SLPC   H3X 6743   5.062   3.245   7.545  0.1799  0.7637  0.0672
   75SLPC   H3Y 6744   5.043   3.356   7.406 -0.2862  0.5935  1.0453
   75SLPC   C34 6745   5.004   3.138   7.368 -0.8110 -0.6312 -0.1119
   75SLPC   H4X 6746   5.009   3.146   7.257 -2.8316  0.6189 -0.1562
   75SLPC   H4Y 6747   4.896   3.148   7.393 -0.4749  2.3078  0.4910
   75SLPC   C35 6748   5.053   2.999   7.413  0.5641 -0.0359  0.6449
   75SLPC   H5X 6749   5.164   2.992   7.409  0.5134 -0.8755  0.5316
   75SLPC   H5Y 6750   5.010   2.931   7.336 -0.3649  0.9674  0.2609
   75SLPC   C36 6751   4.998   2.954   7.552 -0.1745  0.4180  0.1951
   75SLPC   H6X 6752   5.016   2.846   7.568 -2.3268 -0.1882 -1.1733
   75SLPC   H6Y 6753   4.887   2.962   7.559 -0.2127  0.2425 -0.2096
   75SLPC   C37 6754   5.065   3.019   7.666  0.4427  0.0901  0.1718
   75SLPC   H7X 6755   5.011   3.113   7.691  1.4444  0.9985 -0.9183
   75SLPC   H7Y 6756   5.171   3.043   7.644  0.4006  0.3249  0.2162
   75SLPC   C38 6757   5.068   2.939   7.790 -0.1572 -0.1762  0.8673
   75SLPC   H8X 6758   5.124   2.845   7.772 -1.2354 -0.5406 -0.8060
   75SLPC   H8Y 6759   4.962   2.917   7.815 -0.3711 -0.5458 -0.2983
   75SLPC   C39 6760   5.149   3.012   7.900 -0.4167  0.0787 -0.0403
   75SLPC   H9X 6761   5.094   3.099   7.941 -0.2515 -0.5500  1.6249
   75SLPC   H9Y 6762   5.250   3.050   7.873 -0.5203  0.4613  0.1152
   75SLPC  C310 6763   5.172   2.924   8.025 -0.4568 -0.0757 -0.7890
   75SLPC  H10X 6764   5.204   2.984   8.113 -2.3298 -1.9080  1.2777
   75SLPC  H10Y 6765   5.256   2.851   8.019  0.5497  0.6638  2.3500
   75SLPC  C311 6766   5.050   2.858   8.092 -0.3271 -0.0364  0.0525
   75SLPC  H11X 6767   5.013   2.776   8.028  2.1072 -0.3330 -1.0985
   75SLPC  H11Y 6768   4.966   2.929   8.108 -1.0802 -0.8529 -0.1919
   75SLPC  C312 6769   5.090   2.798   8.232  0.0020  0.0472  0.2925
   75SLPC  H12X 6770   5.107   2.873   8.312  1.3783 -0.8824  0.8995
   75SLPC  H12Y 6771   5.187   2.747   8.216  2.6236  3.9218  2.5063
   75SLPC  C313 6772   4.990   2.695   8.288  0.3098  0.5105  0.3797
   75SLPC  H13X 6773   5.002   2.601   8.230  0.4844 -0.9621  2.6680
   75SLPC  H13Y 6774   4.892   2.746   8.283  0.5903  1.0482  0.3094
   75SLPC  C314 6775   5.027   2.659   8.433 -1.1259 -0.6029  0.1391
   75SLPC  H14X 6776   5.023   2.753   8.493  2.3250 -0.3260  0.1402
   75SLPC  H14Y 6777   5.132   2.625   8.435 -1.4220 -1.5233  2.0542
   75SLPC  C315 6778   4.939   2.558   8.505  0.2549  0.4716 -0.5914
   75SLPC  H15X 6779   4.997   2.464   8.517  1.7803  1.1360 -2.2719
   75SLPC  H15Y 6780   4.860   2.539   8.430  0.9896 -0.3152 -1.1861
   75SLPC  C316 6781   4.871   2.605   8.626 -0.2637  0.5234 -0.7137
   75SLPC  H16X 6782   4.798   2.526   8.654 -1.2801  1.8910  0.6283
   75SLPC  H16Y 6783   4.816   2.701   8.611  0.7480  1.6497  2.0772
   75SLPC  C317 6784   4.950   2.623   8.761  0.5147  0.2246  0.6138
   75SLPC  H17X 6785   4.875   2.657   8.836  0.9302  1.2143  0.5911
   75SLPC  H17Y 6786   5.016   2.711   8.753  0.1899  0.3773 -0.5412
   75SLPC  C318 6787   5.024   2.504   8.814  0.3316  0.4151  0.0897
   75SLPC  H18X 6788   4.959   2.417   8.787 -2.2313  2.9068 -2.5471
   75SLPC  H18Y 6789   5.033   2.498   8.925 -0.5581  0.1943  0.1611
   75SLPC  H18Z 6790   5.122   2.485   8.766  0.0647 -2.3470  0.4917
   76SLPC     N 6791   0.698   3.691   6.023 -0.1788  0.0903 -0.3762
   76SLPC   C13 6792   0.714   3.578   5.920  0.4135  0.2925 -0.2546
   76SLPC  H13A 6793   0.676   3.600   5.821 -2.3562 -0.2311  0.5967
   76SLPC  H13B 6794   0.820   3.555   5.920  0.7501  1.7351  0.8337
   76SLPC  H13C 6795   0.667   3.489   5.959  0.3769  0.4529  0.0670
   76SLPC   C14 6796   0.574   3.766   5.994  0.2682  0.5459 -1.5119
   76SLPC  H14A 6797   0.488   3.701   6.004  1.0878 -0.4271 -0.5823
   76SLPC  H14B 6798   0.554   3.854   6.053 -2.8800  1.2516 -3.3896
   76SLPC  H14C 6799   0.570   3.803   5.893  0.4416  1.9869 -1.0091
   76SLPC   C15 6800   0.810   3.789   6.008 -0.1192  0.0146 -0.2980
   76SLPC  H15A 6801   0.789   3.877   6.066 -0.3716  0.0227 -0.4016
   76SLPC  H15B 6802   0.902   3.741   6.040  0.3390  1.7501  1.1259
   76SLPC  H15C 6803   0.824   3.808   5.902 -0.3587  0.9507 -0.1718
   76SLPC   C12 6804   0.687   3.634   6.164  0.7894  0.2247  0.1227
   76SLPC  H12A 6805   0.585   3.598   6.169  1.0852 -1.1670 -2.3942
   76SLPC  H12B 6806   0.690   3.708   6.243 -0.2539 -0.8752  1.2476
   76SLPC   C11 6807   0.790   3.524   6.213  0.1324  0.6087 -0.0905
   76SLPC  H11A 6808   0.785   3.437   6.144  0.9859 -0.4232  1.1063
   76SLPC  H11B 6809   0.765   3.497   6.317  0.5092  0.0494 -0.1440
   76SLPC     P 6810   0.985   3.655   6.318  0.1424  0.2869 -0.1828
   76SLPC   O13 6811   1.127   3.610   6.325 -0.3794 -0.2727  0.2992
   76SLPC   O14 6812   0.962   3.796   6.280  0.8860  0.6980  0.0230
   76SLPC   O12 6813   0.923   3.562   6.207  0.2568  0.8526 -0.2255
   76SLPC   O11 6814   0.907   3.624   6.451 -0.0486  0.4273  0.0198
   76SLPC    C1 6815   0.968   3.665   6.574  0.2765  0.4143 -0.1881
   76SLPC    HA 6816   1.056   3.607   6.608  0.5742  0.7483 -0.3734
   76SLPC    HB 6817   1.003   3.770   6.560  2.3185 -0.5731 -3.7417
   76SLPC    C2 6818   0.869   3.668   6.696 -0.5021 -0.2842  0.4664
   76SLPC    HS 6819   0.788   3.738   6.669 -0.1050  0.3938  0.9928
   76SLPC   O21 6820   0.947   3.702   6.815 -0.4093  0.0023 -0.1979
   76SLPC   C21 6821   0.899   3.802   6.890 -0.0909  0.1892 -0.3548
   76SLPC   O22 6822   0.795   3.861   6.867  0.0699  0.0107  0.7796
   76SLPC   C22 6823   0.985   3.823   7.015 -0.1762 -0.1130 -0.6376
   76SLPC   H2R 6824   1.018   3.724   7.052 -0.0253  0.0146 -0.4351
   76SLPC   H2S 6825   1.074   3.888   6.998  0.4371 -0.6138  0.5915
   76SLPC    C3 6826   0.803   3.539   6.709  0.5033  0.2253  0.2223
   76SLPC    HX 6827   0.874   3.462   6.745 -1.7086 -1.0658  2.1153
   76SLPC    HY 6828   0.757   3.506   6.613  0.8162 -2.1072  0.8125
   76SLPC   O31 6829   0.704   3.546   6.819  0.3400  0.5186 -0.5093
   76SLPC   C31 6830   0.580   3.601   6.794 -0.0552 -0.0788 -0.2069
   76SLPC   O32 6831   0.545   3.633   6.684  0.2356 -0.1316  0.5775
   76SLPC   C32 6832   0.494   3.613   6.918  0.1779 -0.2121 -0.4879
   76SLPC   H2X 6833   0.463   3.512   6.950  0.4337  0.4313  1.9718
   76SLPC   H2Y 6834   0.402   3.673   6.899 -0.6129 -0.8813  1.0934
   76SLPC   C23 6835   0.893   3.890   7.125  0.0899 -0.2732 -0.5553
   76SLPC   H3R 6836   0.797   3.834   7.127 -1.0743  1.5517 -1.7517
   76SLPC   H3S 6837   0.878   3.995   7.091  1.9316  1.1209  2.5949
   76SLPC   C24 6838   0.966   3.911   7.257 -0.0852  0.3660  0.5400
   76SLPC   H4R 6839   1.056   3.974   7.244  0.9266 -1.2014 -0.5322
   76SLPC   H4S 6840   1.009   3.813   7.287  1.8896  0.6825 -1.0229
   76SLPC   C25 6841   0.879   3.966   7.367 -0.3755  0.5254  0.0673
   76SLPC   H5R 6842   0.787   3.907   7.387  1.8667 -2.2110  3.3305
   76SLPC   H5S 6843   0.848   4.069   7.338  0.8922  0.4703 -1.6749
   76SLPC   C26 6844   0.962   3.974   7.499  0.7724  0.3058 -1.1656
   76SLPC   H6R 6845   1.045   4.047   7.487 -0.5467  2.2370  0.7483
   76SLPC   H6S 6846   1.002   3.871   7.512 -2.1853 -0.9054 -0.8500
   76SLPC   C27 6847   0.872   4.005   7.624  0.2098  1.1884  0.3230
   76SLPC   H7R 6848   0.817   3.910   7.645 -0.9771  1.7143 -0.2733
   76SLPC   H7S 6849   0.794   4.078   7.592 -2.3034  0.1641  3.4994
   76SLPC   C28 6850   0.948   4.061   7.744  0.6036  0.3760  0.2147
   76SLPC   H8R 6851   0.993   4.160   7.719 -0.1727  1.3639  2.4241
   76SLPC   H8S 6852   0.880   4.085   7.829 -0.4522  2.3645 -1.1125
   76SLPC   C29 6853   1.037   3.942   7.782 -0.5423  0.0763 -0.2869
   76SLPC   H9R 6854   1.127   3.924   7.721 -0.4546 -0.0060 -0.1316
   76SLPC  C210 6855   1.018   3.849   7.875  0.0191  0.2552 -0.7535
   76SLPC  H10R 6856   1.091   3.767   7.883  0.3176  0.5863 -0.0011
   76SLPC  C211 6857   0.908   3.860   7.971  0.5872 -0.0083 -0.0723
   76SLPC  H11R 6858   0.807   3.866   7.924  0.7785  2.5361 -0.2756
   76SLPC  H11S 6859   0.921   3.966   8.001  0.3773  0.3343 -1.1393
   76SLPC  C212 6860   0.892   3.762   8.084 -0.5363  0.0784  0.7631
   76SLPC  H12R 6861   0.824   3.679   8.059 -0.6736  0.0636  1.1683
   76SLPC  C213 6862   0.941   3.777   8.206  0.3008 -0.4991 -0.3381
   76SLPC  H13R 6863   0.922   3.710   8.291  1.7806 -2.2735 -1.3201
   76SLPC  C214 6864   1.025   3.895   8.250  0.6637 -0.4204 -0.1548
   76SLPC  H14R 6865   1.050   3.969   8.171 -2.0643  1.8436  0.9409
   76SLPC  H14S 6866   1.131   3.870   8.274  0.5724 -0.3142  0.3889
   76SLPC  C215 6867   0.947   3.960   8.362  0.0507  0.6170 -0.3224
   76SLPC  H15R 6868   0.933   3.887   8.445 -3.4350  0.1238 -1.1903
   76SLPC  H15S 6869   0.844   3.984   8.329  0.0497  0.4365 -0.4577
   76SLPC  C216 6870   1.011   4.097   8.406  0.2267 -0.5257 -0.5780
   76SLPC  H16R 6871   1.009   4.161   8.316 -3.3826 -1.0567 -1.0191
   76SLPC  H16S 6872   1.118   4.089   8.436  1.5574  1.5552 -4.2417
   76SLPC  C217 6873   0.937   4.156   8.531  0.5733  0.0417 -0.3717
   76SLPC  H17R 6874   0.831   4.165   8.500  0.2451 -1.8465  0.0541
   76SLPC  H17S 6875   0.975   4.260   8.534 -0.4351  0.4105 -0.0849
   76SLPC  C218 6876   0.963   4.070   8.654 -0.0779 -0.2977 -0.5994
   76SLPC  H18R 6877   0.937   3.963   8.638 -2.2667  0.0419  0.1948
   76SLPC  H18S 6878   0.901   4.098   8.743  1.6394  0.1106  0.5229
   76SLPC  H18T 6879   1.068   4.087   8.686 -0.0395 -1.4373 -0.0649
   76SLPC   C33 6880   0.565   3.684   7.036  0.3403  0.1579 -0.1031
   76SLPC   H3X 6881   0.574   3.789   7.002  2.3604  0.9456  2.5148
   76SLPC   H3Y 6882   0.669   3.649   7.054 -0.0946 -0.8916  0.4245
   76SLPC   C34 6883   0.489   3.669   7.166  0.4904  0.0180  0.0957
   76SLPC   H4X 6884   0.550   3.721   7.243  1.6572  0.1152 -0.8781
   76SLPC   H4Y 6885   0.496   3.561   7.191 -2.6092  0.4424  3.7841
   76SLPC   C35 6886   0.343   3.731   7.165 -0.0406 -0.2701  0.4156
   76SLPC   H5X 6887   0.290   3.671   7.089 -2.1144 -0.4672  1.9575
   76SLPC   H5Y 6888   0.347   3.837   7.130 -0.0945 -0.4179 -0.0429
   76SLPC   C36 6889   0.296   3.718   7.309  0.3040 -0.1505 -0.0341
   76SLPC   H6X 6890   0.361   3.771   7.381 -0.5941  1.2194 -0.1755
   76SLPC   H6Y 6891   0.291   3.610   7.332  1.1025 -0.0113  0.8053
   76SLPC   C37 6892   0.157   3.781   7.328 -0.0745  0.3884 -0.1162
   76SLPC   H7X 6893   0.077   3.735   7.266  0.4177  0.9245 -1.1862
   76SLPC   H7Y 6894   0.167   3.886   7.293 -3.3392  1.7572  2.5145
   76SLPC   C38 6895   0.118   3.790   7.476 -0.1895 -0.2436 -0.0933
   76SLPC   H8X 6896   0.215   3.820   7.523 -0.4667  2.8595 -1.2951
   76SLPC   H8Y 6897   0.079   3.693   7.513  1.1859 -1.2786 -1.2777
   76SLPC   C39 6898   0.028   3.903   7.523  0.0950 -0.0352 -0.1046
   76SLPC   H9X 6899  -0.072   3.877   7.481  0.4772 -0.2460 -0.9073
   76SLPC   H9Y 6900   0.064   3.998   7.478  0.8565 -0.6626 -0.8584
   76SLPC  C310 6901   0.023   3.914   7.673 -0.8235 -0.4409  0.6208
   76SLPC  H10X 6902   0.124   3.928   7.717  1.0561 -2.0698 -2.7753
   76SLPC  H10Y 6903   0.007   3.812   7.715  1.4892 -0.3146  1.9816
   76SLPC  C311 6904  -0.073   4.022   7.722  0.5036 -0.7574  0.2439
   76SLPC  H11X 6905  -0.176   3.984   7.705 -0.0356  1.9061 -3.5344
   76SLPC  H11Y 6906  -0.041   4.114   7.670  2.0771 -1.5978 -0.3690
   76SLPC  C312 6907  -0.061   4.041   7.871  0.1182  0.0079  0.5094
   76SLPC  H12X 6908  -0.074   3.947   7.929 -1.6889  1.1190  1.9984
   76SLPC  H12Y 6909  -0.146   4.101   7.909  0.3996  0.0517  1.0801
   76SLPC  C313 6910   0.069   4.104   7.925 -0.5996  0.0986 -0.0416
   76SLPC  H13X 6911   0.090   4.195   7.866  1.9348 -0.1341  0.4138
   76SLPC  H13Y 6912   0.154   4.034   7.913  0.2570  1.4028 -2.1051
   76SLPC  C314 6913   0.071   4.146   8.070  0.2598  0.0029  0.2536
   76SLPC  H14X 6914   0.079   4.056   8.135 -0.3973  0.4931  1.0281
   76SLPC  H14Y 6915  -0.027   4.195   8.088 -0.7116 -1.4317 -0.8849
   76SLPC  C315 6916   0.196   4.234   8.105  0.6086  0.2922  0.0511
   76SLPC  H15X 6917   0.189   4.319   8.033  1.5294  0.0950 -0.2914
   76SLPC  H15Y 6918   0.290   4.176   8.092  0.7600  0.4823  0.2917
   76SLPC  C316 6919   0.201   4.303   8.242 -0.3320 -0.4296 -0.3504
   76SLPC  H16X 6920   0.102   4.352   8.260  0.2228  1.1083 -1.2914
   76SLPC  H16Y 6921   0.270   4.389   8.236  0.6948 -1.0290  1.9134
   76SLPC  C317 6922   0.263   4.220   8.357  0.2400  0.1910 -0.5329
   76SLPC  H17X 6923   0.371   4.209   8.336  0.2159 -0.8596 -0.1783
   76SLPC  H17Y 6924   0.215   4.120   8.354 -0.0002  0.3255 -1.5674
   76SLPC  C318 6925   0.245   4.289   8.492  0.2848  0.5030 -0.4328
   76SLPC  H18X 6926   0.144   4.271   8.535  0.3473 -1.1511 -0.9371
   76SLPC  H18Y 6927   0.278   4.395   8.480  0.6279  0.7878  2.3388
   76SLPC  H18Z 6928   0.319   4.260   8.570 -1.4647  2.7241  2.2533
   77SLPC     N 6929   2.702   3.445   6.563  0.1151 -0.1202 -0.5407
   77SLPC   C13 6930   2.578   3.509   6.615 -0.0897  1.0962 -0.0020
   77SLPC  H13A 6931   2.570   3.608   6.573 -0.7023  0.4333 -1.4994
   77SLPC  H13B 6932   2.495   3.449   6.581  1.4399  0.3995 -2.7576
   77SLPC  H13C 6933   2.588   3.522   6.722  0.8069  0.5616 -0.0138
   77SLPC   C14 6934   2.826   3.514   6.591 -0.5451  0.0981  0.1651
   77SLPC  H14A 6935   2.812   3.619   6.572 -3.0003  0.2202  2.1178
   77SLPC  H14B 6936   2.862   3.501   6.692 -1.7463 -2.8080  0.3242
   77SLPC  H14C 6937   2.916   3.482   6.539  1.6809  2.3102  2.3728
   77SLPC   C15 6938   2.688   3.426   6.417 -0.3103 -0.6249 -0.8065
   77SLPC  H15A 6939   2.645   3.515   6.372 -3.4964 -1.0359  1.0917
   77SLPC  H15B 6940   2.783   3.407   6.369 -0.9483 -1.5608 -1.7475
   77SLPC  H15C 6941   2.616   3.351   6.387 -1.8626 -0.0177  1.1835
   77SLPC   C12 6942   2.714   3.306   6.622 -0.3948 -0.4959 -0.2302
   77SLPC  H12A 6943   2.802   3.259   6.582  0.6211  1.6724 -0.6826
   77SLPC  H12B 6944   2.627   3.257   6.579  0.3113 -0.3172 -1.9334
   77SLPC   C11 6945   2.723   3.286   6.776 -0.4512 -0.2798  0.2424
   77SLPC  H11A 6946   2.692   3.184   6.805 -1.6408  0.0931  0.3268
   77SLPC  H11B 6947   2.637   3.342   6.819 -0.3864  1.2338 -1.4719
   77SLPC     P 6948   2.977   3.235   6.805  0.2295 -0.4125  0.4111
   77SLPC   O13 6949   2.975   3.178   6.671  0.5546  0.1735  0.3740
   77SLPC   O14 6950   3.096   3.310   6.835 -0.5060  0.0798 -0.3931
   77SLPC   O12 6951   2.851   3.330   6.831 -0.4570 -0.3646 -0.1359
   77SLPC   O11 6952   2.980   3.120   6.911  0.5479 -0.5751  1.1148
   77SLPC    C1 6953   2.945   3.128   7.046  0.1880 -0.6851 -0.6447
   77SLPC    HA 6954   3.003   3.059   7.111  0.0713 -1.2806 -1.1570
   77SLPC    HB 6955   2.965   3.227   7.090 -0.5975 -1.0373  0.5463
   77SLPC    C2 6956   2.799   3.089   7.071 -0.2572 -0.0582  0.1734
   77SLPC    HS 6957   2.735   3.166   7.024 -0.8278 -0.7989 -0.2858
   77SLPC   O21 6958   2.773   3.079   7.218 -0.0401  0.0865  0.2182
   77SLPC   C21 6959   2.755   3.197   7.271 -0.8896  0.2338  0.2057
   77SLPC   O22 6960   2.752   3.307   7.211 -0.5347 -0.3485 -0.5882
   77SLPC   C22 6961   2.730   3.183   7.418  0.9892 -0.1722 -0.6602
   77SLPC   H2R 6962   2.676   3.088   7.439 -0.7706  1.3686  2.5270
   77SLPC   H2S 6963   2.828   3.171   7.469 -0.0398  1.1335  1.8016
   77SLPC    C3 6964   2.770   2.951   7.012 -0.2970 -0.0173  0.0851
   77SLPC    HX 6965   2.857   2.886   7.034  0.2223 -0.0326 -1.7912
   77SLPC    HY 6966   2.768   2.946   6.901 -0.0452 -1.6859  0.1241
   77SLPC   O31 6967   2.647   2.889   7.057  0.8217  0.0395  0.1961
   77SLPC   C31 6968   2.523   2.941   7.017  0.0419  0.5261 -0.1916
   77SLPC   O32 6969   2.516   3.045   6.953  0.0859 -0.3164 -0.4820
   77SLPC   C32 6970   2.415   2.844   7.068 -0.3161  0.7302 -0.4422
   77SLPC   H2X 6971   2.441   2.736   7.055 -2.0306  0.0787  1.0684
   77SLPC   H2Y 6972   2.330   2.865   6.998 -1.3008 -0.6419  0.2916
   77SLPC   C23 6973   2.655   3.301   7.483 -0.0153  0.1002 -0.4887
   77SLPC   H3R 6974   2.558   3.315   7.431  0.0293  0.5675 -0.4472
   77SLPC   H3S 6975   2.710   3.394   7.456  2.6279 -1.0163  0.6718
   77SLPC   C24 6976   2.659   3.301   7.634 -0.0556 -1.4302 -0.9108
   77SLPC   H4R 6977   2.747   3.363   7.661  0.0640 -3.0886  3.1232
   77SLPC   H4S 6978   2.677   3.200   7.677 -2.8773 -0.9437  1.7336
   77SLPC   C25 6979   2.544   3.366   7.709 -0.1542  0.0185  0.1655
   77SLPC   H5R 6980   2.457   3.395   7.645 -0.2811 -0.4294  0.1349
   77SLPC   H5S 6981   2.584   3.462   7.748  0.2969 -0.2455  0.3526
   77SLPC   C26 6982   2.489   3.281   7.835 -0.4077 -0.1900 -0.0971
   77SLPC   H6R 6983   2.581   3.232   7.872 -0.2704 -0.8662 -1.2790
   77SLPC   H6S 6984   2.427   3.191   7.818 -0.3598 -0.7727  2.5221
   77SLPC   C27 6985   2.438   3.368   7.954  0.4088 -0.2520 -0.0438
   77SLPC   H7R 6986   2.346   3.411   7.907 -0.3325 -2.0973 -0.3775
   77SLPC   H7S 6987   2.516   3.440   7.986  1.1885 -1.6942  1.4879
   77SLPC   C28 6988   2.405   3.292   8.079  0.5125 -0.0808 -0.0618
   77SLPC   H8R 6989   2.377   3.191   8.043  1.8545 -1.2279  1.9276
   77SLPC   H8S 6990   2.318   3.340   8.129  1.9874 -0.2022  2.8307
   77SLPC   C29 6991   2.513   3.293   8.187  0.3106  0.3849  0.5244
   77SLPC   H9R 6992   2.584   3.209   8.194  0.5844  0.6432  0.8340
   77SLPC  C210 6993   2.529   3.384   8.289  0.5803 -0.1766 -0.1369
   77SLPC  H10R 6994   2.604   3.365   8.367 -1.6903  0.6326  2.3713
   77SLPC  C211 6995   2.446   3.513   8.293 -0.2689  0.1832 -0.1477
   77SLPC  H11R 6996   2.377   3.509   8.381 -0.1257  0.9299  0.0083
   77SLPC  H11S 6997   2.390   3.531   8.199 -0.6345  0.9783  0.2039
   77SLPC  C212 6998   2.544   3.629   8.316 -0.4310 -0.8569 -0.0096
   77SLPC  H12R 6999   2.576   3.677   8.223  1.9562 -0.9513  0.6896
   77SLPC  C213 7000   2.592   3.680   8.437  0.9028 -0.1329  0.1657
   77SLPC  H13R 7001   2.648   3.775   8.426  1.4565 -0.6097 -1.4428
   77SLPC  C214 7002   2.552   3.630   8.575 -0.0348  0.5669 -0.4189
   77SLPC  H14R 7003   2.490   3.539   8.566  0.8493  0.0435 -1.5235
   77SLPC  H14S 7004   2.495   3.710   8.627 -0.6683 -0.7684  1.0126
   77SLPC  C215 7005   2.684   3.592   8.650 -0.7415  0.3324  0.8325
   77SLPC  H15R 7006   2.659   3.598   8.758 -1.1449  1.5785  0.6846
   77SLPC  H15S 7007   2.758   3.675   8.636 -1.2866  0.9621  1.6328
   77SLPC  C216 7008   2.747   3.454   8.609  0.5787 -0.8095  0.1705
   77SLPC  H16R 7009   2.796   3.462   8.510 -1.0118  0.1033 -0.5987
   77SLPC  H16S 7010   2.659   3.387   8.599 -1.7551  2.2300 -1.5123
   77SLPC  C217 7011   2.858   3.397   8.702  0.1906 -0.0331 -0.9933
   77SLPC  H17R 7012   2.835   3.421   8.808 -0.1963 -3.0044 -0.3364
   77SLPC  H17S 7013   2.957   3.444   8.683  0.5605 -0.5621 -0.3985
   77SLPC  C218 7014   2.887   3.247   8.696 -0.4056  1.0858 -0.7912
   77SLPC  H18R 7015   2.958   3.223   8.614  0.4707  0.6217  0.0771
   77SLPC  H18S 7016   2.792   3.194   8.674  0.3158 -0.4364 -0.4114
   77SLPC  H18T 7017   2.929   3.218   8.795 -0.1923  0.2627 -1.1147
   77SLPC   C33 7018   2.397   2.862   7.220  0.6230  0.7108  0.4268
   77SLPC   H3X 7019   2.306   2.803   7.243 -0.3414  1.5498 -1.0257
   77SLPC   H3Y 7020   2.370   2.968   7.239 -0.4228  0.3742  0.8724
   77SLPC   C34 7021   2.512   2.819   7.308 -0.7212 -0.6904  0.4914
   77SLPC   H4X 7022   2.609   2.871   7.295 -0.9690 -0.2223  0.5082
   77SLPC   H4Y 7023   2.531   2.710   7.301  0.5674 -0.4748  0.4297
   77SLPC   C35 7024   2.479   2.854   7.452  0.1850 -0.3051  0.0153
   77SLPC   H5X 7025   2.397   2.786   7.483  1.0446 -0.8786  1.1141
   77SLPC   H5Y 7026   2.450   2.961   7.464 -1.8136 -0.9166  1.0486
   77SLPC   C36 7027   2.591   2.817   7.550 -0.4562 -0.6880 -0.8879
   77SLPC   H6X 7028   2.674   2.887   7.525 -0.6408 -0.1723 -0.0853
   77SLPC   H6Y 7029   2.618   2.710   7.538 -1.8783 -1.3530  1.3710
   77SLPC   C37 7030   2.533   2.840   7.696  0.4492  0.0044  0.7026
   77SLPC   H7X 7031   2.432   2.794   7.694 -0.4294  1.3704 -5.0658
   77SLPC   H7Y 7032   2.525   2.946   7.728  2.1550 -0.4273  2.7867
   77SLPC   C38 7033   2.615   2.773   7.806 -0.0104 -0.1167  0.2207
   77SLPC   H8X 7034   2.646   2.671   7.773  1.2491  0.2393  0.2347
   77SLPC   H8Y 7035   2.556   2.760   7.899  0.0577 -1.4638  0.1012
   77SLPC   C39 7036   2.748   2.840   7.839 -0.0747 -0.2977  0.3217
   77SLPC   H9X 7037   2.725   2.929   7.902 -1.8401 -2.1363  2.4586
   77SLPC   H9Y 7038   2.810   2.866   7.750 -0.4128  1.6673  0.6197
   77SLPC  C310 7039   2.841   2.744   7.922 -0.3527  0.2992 -0.0243
   77SLPC  H10X 7040   2.939   2.796   7.928  0.2559 -0.4417 -2.4876
   77SLPC  H10Y 7041   2.845   2.647   7.869 -0.7583  0.7968 -0.9952
   77SLPC  C311 7042   2.794   2.729   8.069 -0.0876 -0.1990 -0.0671
   77SLPC  H11X 7043   2.870   2.667   8.121 -0.1829 -1.9967 -1.9429
   77SLPC  H11Y 7044   2.697   2.675   8.066  0.9494 -2.1136 -0.2367
   77SLPC  C312 7045   2.769   2.867   8.138 -0.7850 -0.2653  0.2191
   77SLPC  H12X 7046   2.689   2.931   8.095 -0.8592  1.5223  2.7829
   77SLPC  H12Y 7047   2.851   2.942   8.139 -1.6145  0.7418 -1.7943
   77SLPC  C313 7048   2.739   2.840   8.290  0.5523  0.3805 -0.0102
   77SLPC  H13X 7049   2.823   2.812   8.356  0.2245  0.6776  0.5366
   77SLPC  H13Y 7050   2.678   2.746   8.291  1.6176 -0.4197 -2.3095
   77SLPC  C314 7051   2.652   2.946   8.363  0.3217  0.6198 -0.7656
   77SLPC  H14X 7052   2.564   2.988   8.310 -0.4406  1.5575  1.1241
   77SLPC  H14Y 7053   2.726   3.022   8.396 -0.2259  0.7978  0.1027
   77SLPC  C315 7054   2.596   2.902   8.499 -0.2614  0.4912 -0.2361
   77SLPC  H15X 7055   2.683   2.878   8.565 -0.7961 -1.4759 -0.1905
   77SLPC  H15Y 7056   2.525   2.818   8.484 -0.7597  0.6096  1.2354
   77SLPC  C316 7057   2.521   3.006   8.586  0.5290  0.7146  0.5895
   77SLPC  H16X 7058   2.570   3.105   8.581  0.3769  0.7244 -0.9482
   77SLPC  H16Y 7059   2.521   2.966   8.690  0.8032 -0.4604  0.1587
   77SLPC  C317 7060   2.371   3.026   8.551  0.3534  0.0158  0.4901
   77SLPC  H17X 7061   2.300   2.947   8.584  0.4931 -0.7656 -0.9952
   77SLPC  H17Y 7062   2.359   3.033   8.441  1.9058 -0.9573  0.2318
   77SLPC  C318 7063   2.323   3.154   8.615 -0.2467  0.3607  0.5218
   77SLPC  H18X 7064   2.352   3.251   8.570  0.0965 -0.6779 -1.6603
   77SLPC  H18Y 7065   2.351   3.163   8.722 -1.0719  1.5955  0.6541
   77SLPC  H18Z 7066   2.212   3.151   8.616 -0.2773 -2.0071 -0.7731
   78SLPC     N 7067   5.425   2.263   6.502  0.0015 -0.3167  0.3922
   78SLPC   C13 7068   5.377   2.228   6.638  0.5927 -0.2909  0.3966
   78SLPC  H13A 7069   5.466   2.214   6.698  0.4196 -2.0890  0.2668
   78SLPC  H13B 7070   5.315   2.302   6.687 -0.6720  0.2685 -1.8954
   78SLPC  H13C 7071   5.309   2.145   6.637  0.6794 -0.3629 -1.1418
   78SLPC   C14 7072   5.508   2.155   6.448  0.5543 -0.1465  0.3610
   78SLPC  H14A 7073   5.597   2.138   6.505  0.1369  3.0161  2.2260
   78SLPC  H14B 7074   5.461   2.060   6.468  2.4864 -0.5997  3.3727
   78SLPC  H14C 7075   5.527   2.160   6.342  1.3447 -0.5737  0.4765
   78SLPC   C15 7076   5.527   2.374   6.516  0.6302 -0.1119 -0.0835
   78SLPC  H15A 7077   5.484   2.451   6.580 -2.0438 -0.5785 -1.2177
   78SLPC  H15B 7078   5.616   2.336   6.563  1.7799  2.2210 -0.2256
   78SLPC  H15C 7079   5.547   2.424   6.423  0.0849  3.1542  1.3907
   78SLPC   C12 7080   5.311   2.311   6.412  0.2556  0.5627 -0.4113
   78SLPC  H12A 7081   5.339   2.302   6.308 -2.5489  0.3869 -1.2477
   78SLPC  H12B 7082   5.287   2.415   6.432  0.4002  0.3280  1.0208
   78SLPC   C11 7083   5.188   2.223   6.416 -0.3504  0.1618  0.2465
   78SLPC  H11A 7084   5.147   2.212   6.519 -1.2967 -2.5611 -0.3217
   78SLPC  H11B 7085   5.215   2.125   6.371 -2.3174  0.8238 -2.6825
   78SLPC     P 7086   4.971   2.371   6.401  0.6163 -0.3361  0.1090
   78SLPC   O13 7087   5.030   2.505   6.404  0.0645  0.0924  0.1486
   78SLPC   O14 7088   4.833   2.360   6.344  0.7313 -0.2093  0.5706
   78SLPC   O12 7089   5.079   2.273   6.335 -0.3703 -0.0358  0.3855
   78SLPC   O11 7090   4.964   2.338   6.547 -0.1078 -0.0502 -0.1388
   78SLPC    C1 7091   4.857   2.289   6.629 -0.0452 -0.4794 -0.3400
   78SLPC    HA 7092   4.785   2.226   6.573 -1.5239  0.1489  0.8058
   78SLPC    HB 7093   4.902   2.223   6.706 -0.1880 -0.7262 -0.4700
   78SLPC    C2 7094   4.776   2.396   6.699 -0.1683 -0.9195 -0.4041
   78SLPC    HS 7095   4.729   2.468   6.630 -2.4341  0.2002  2.1235
   78SLPC   O21 7096   4.863   2.454   6.794 -0.1014  0.1025 -0.0166
   78SLPC   C21 7097   4.893   2.584   6.783 -0.7850 -0.1679  0.0259
   78SLPC   O22 7098   4.847   2.653   6.689 -0.6662  0.2882 -0.7663
   78SLPC   C22 7099   4.981   2.640   6.896 -0.1846  1.1896 -0.0587
   78SLPC   H2R 7100   5.066   2.569   6.906 -0.5344  0.9852  1.7319
   78SLPC   H2S 7101   5.018   2.742   6.876  0.3685  0.8978 -0.5502
   78SLPC    C3 7102   4.668   2.330   6.779  0.5097 -0.5898  0.2724
   78SLPC    HX 7103   4.708   2.274   6.866 -0.0443 -0.6460  0.5005
   78SLPC    HY 7104   4.613   2.264   6.708 -4.1971  3.1850 -0.1364
   78SLPC   O31 7105   4.580   2.426   6.831  0.1504  0.0997 -0.1502
   78SLPC   C31 7106   4.471   2.445   6.759 -0.2663 -0.5395  0.2786
   78SLPC   O32 7107   4.444   2.391   6.649 -0.2608  0.0361  0.0958
   78SLPC   C32 7108   4.371   2.523   6.840 -0.3556  0.2515  0.0596
   78SLPC   H2X 7109   4.311   2.577   6.763 -1.6190  0.2462  1.0027
   78SLPC   H2Y 7110   4.421   2.594   6.908 -1.8619  1.6314 -0.2032
   78SLPC   C23 7111   4.911   2.641   7.034  0.2201 -0.7454  0.4147
   78SLPC   H3R 7112   4.979   2.701   7.099 -0.8709  2.3455 -1.0994
   78SLPC   H3S 7113   4.900   2.537   7.072  1.3944 -1.2426 -0.5384
   78SLPC   C24 7114   4.776   2.706   7.030  0.2454  0.0575 -0.3435
   78SLPC   H4R 7115   4.691   2.644   6.995 -0.8785  1.7853 -0.8277
   78SLPC   H4S 7116   4.771   2.795   6.964  1.8735 -1.2661 -2.3493
   78SLPC   C25 7117   4.739   2.756   7.176  0.5299 -1.4234  0.4092
   78SLPC   H5R 7118   4.807   2.827   7.228 -0.4477  0.8118 -1.2128
   78SLPC   H5S 7119   4.719   2.666   7.238 -1.0397  0.2817  2.5355
   78SLPC   C26 7120   4.603   2.841   7.156  0.1361  0.4284 -0.3752
   78SLPC   H6R 7121   4.543   2.799   7.073  0.4356  1.6270 -1.2244
   78SLPC   H6S 7122   4.646   2.942   7.139  2.1019 -0.2803  0.1699
   78SLPC   C27 7123   4.516   2.855   7.281  0.0514 -0.0102 -0.7658
   78SLPC   H7R 7124   4.472   2.753   7.296  0.1734  0.0516  0.0393
   78SLPC   H7S 7125   4.425   2.917   7.267 -1.7562 -1.7867  1.8663
   78SLPC   C28 7126   4.594   2.897   7.411  0.3393  0.0194  0.1579
   78SLPC   H8R 7127   4.647   2.992   7.388 -0.9368  1.1861  1.7118
   78SLPC   H8S 7128   4.672   2.824   7.438  1.6670  0.8299 -1.3167
   78SLPC   C29 7129   4.508   2.913   7.537  0.5014  0.4302  0.2262
   78SLPC   H9R 7130   4.403   2.944   7.525  0.1908 -0.8450 -0.5446
   78SLPC  C210 7131   4.542   2.883   7.660 -0.6248  0.3258 -0.8874
   78SLPC  H10R 7132   4.459   2.897   7.730 -0.2482  2.3731 -0.8040
   78SLPC  C211 7133   4.674   2.814   7.701 -0.2850 -0.3227 -0.3842
   78SLPC  H11R 7134   4.740   2.880   7.761 -1.2080 -0.1699  0.4758
   78SLPC  H11S 7135   4.735   2.768   7.619  2.7257 -1.4720  2.2692
   78SLPC  C212 7136   4.634   2.696   7.787  0.8246 -0.1811 -0.1806
   78SLPC  H12R 7137   4.600   2.606   7.734  1.2084 -0.7927  0.5802
   78SLPC  C213 7138   4.647   2.682   7.923  0.4527 -1.1008 -0.5455
   78SLPC  H13R 7139   4.634   2.581   7.964  1.4880 -1.3211 -0.7231
   78SLPC  C214 7140   4.695   2.790   8.018  0.0486 -0.5604 -0.1138
   78SLPC  H14R 7141   4.727   2.881   7.964 -0.8701  1.1376  2.0621
   78SLPC  H14S 7142   4.782   2.746   8.072 -0.7172  0.4455  2.0864
   78SLPC  C215 7143   4.588   2.835   8.112 -0.7520 -0.6140 -0.0905
   78SLPC  H15R 7144   4.497   2.857   8.052 -0.6765 -0.5260 -0.1717
   78SLPC  H15S 7145   4.609   2.928   8.168  0.4448 -0.2476 -1.0982
   78SLPC  C216 7146   4.548   2.732   8.216 -0.6345 -0.1497 -0.1036
   78SLPC  H16R 7147   4.632   2.711   8.286  0.9706  1.9454 -1.2832
   78SLPC  H16S 7148   4.524   2.634   8.170  1.0289  0.3252 -2.1252
   78SLPC  C217 7149   4.424   2.776   8.295 -0.7429 -0.1233 -0.2587
   78SLPC  H17R 7150   4.333   2.780   8.233  1.1989 -1.9864 -3.4996
   78SLPC  H17S 7151   4.443   2.881   8.327  1.7389 -1.2753  2.5668
   78SLPC  C218 7152   4.393   2.694   8.416 -0.5938 -0.3904  0.1981
   78SLPC  H18R 7153   4.449   2.715   8.510 -1.6394  1.7023  0.4013
   78SLPC  H18S 7154   4.409   2.586   8.392 -2.2670 -0.2012 -2.0932
   78SLPC  H18T 7155   4.284   2.705   8.435 -0.8924  0.4374 -1.7868
   78SLPC   C33 7156   4.271   2.437   6.919  0.9812 -0.4974  0.6835
   78SLPC   H3X 7157   4.228   2.365   6.846 -3.1988  0.2748  2.0962
   78SLPC   H3Y 7158   4.172   2.481   6.944  0.1183 -1.5321 -0.7824
   78SLPC   C34 7159   4.320   2.348   7.032  0.2313 -0.5691 -0.2542
   78SLPC   H4X 7160   4.420   2.305   7.006  0.2926 -0.7884  0.3201
   78SLPC   H4Y 7161   4.248   2.264   7.044 -1.0269  0.3062 -1.5529
   78SLPC   C35 7162   4.344   2.435   7.158 -0.5982  0.3045 -0.7475
   78SLPC   H5X 7163   4.373   2.537   7.125 -2.1260  0.6969 -0.9723
   78SLPC   H5Y 7164   4.437   2.405   7.210  1.1041  2.1358 -2.5715
   78SLPC   C36 7165   4.237   2.439   7.270 -0.3143  0.3139 -0.6348
   78SLPC   H6X 7166   4.228   2.344   7.327 -1.4672  0.4357 -0.5905
   78SLPC   H6Y 7167   4.139   2.464   7.224 -1.9374  0.7007  2.7136
   78SLPC   C37 7168   4.258   2.555   7.363 -0.0125  0.0499 -0.2254
   78SLPC   H7X 7169   4.249   2.658   7.324 -0.3692  0.2047  0.2584
   78SLPC   H7Y 7170   4.361   2.564   7.403  0.2803 -0.4052 -0.8643
   78SLPC   C38 7171   4.156   2.553   7.483 -0.9130 -0.3387 -0.5366
   78SLPC   H8X 7172   4.050   2.538   7.453 -0.4598 -1.2561 -1.7809
   78SLPC   H8Y 7173   4.163   2.653   7.529 -0.9142 -0.2060 -0.8255
   78SLPC   C39 7174   4.197   2.449   7.589 -0.7045 -0.1113 -0.0025
   78SLPC   H9X 7175   4.307   2.457   7.572 -0.5581 -2.1096 -0.2819
   78SLPC   H9Y 7176   4.163   2.349   7.553 -1.8240 -0.2772  1.3910
   78SLPC  C310 7177   4.161   2.473   7.735 -0.2522 -0.0840  0.6470
   78SLPC  H10X 7178   4.198   2.384   7.791 -2.3321 -0.7367  1.0764
   78SLPC  H10Y 7179   4.053   2.455   7.755 -0.4879 -1.5579 -1.6081
   78SLPC  C311 7180   4.229   2.596   7.808 -0.3574  0.3614  0.2187
   78SLPC  H11X 7181   4.198   2.694   7.763 -2.5298 -0.1477  0.4949
   78SLPC  H11Y 7182   4.338   2.593   7.786  0.3271  0.5454  3.2213
   78SLPC  C312 7183   4.213   2.595   7.957 -0.2329 -0.2993 -0.3665
   78SLPC  H12X 7184   4.285   2.672   7.993 -0.3870 -0.6980  0.8349
   78SLPC  H12Y 7185   4.258   2.502   7.996 -0.0136 -0.0680 -0.0621
   78SLPC  C313 7186   4.077   2.612   8.008 -0.6410  0.3530  0.2515
   78SLPC  H13X 7187   4.005   2.531   7.983 -1.1420 -0.0854  2.8234
   78SLPC  H13Y 7188   4.033   2.704   7.961 -1.3297 -0.2423 -0.2986
   78SLPC  C314 7189   4.066   2.634   8.159 -0.2697  0.0081  0.4760
   78SLPC  H14X 7190   4.125   2.727   8.173 -0.1966 -0.0886  0.8152
   78SLPC  H14Y 7191   4.125   2.559   8.217 -0.0743 -0.0191  0.2471
   78SLPC  C315 7192   3.929   2.646   8.231 -0.5759  0.1409  0.0772
   78SLPC  H15X 7193   3.882   2.547   8.217 -0.4970  0.0298  0.5902
   78SLPC  H15Y 7194   3.866   2.724   8.183 -1.9726 -0.4543  0.8696
   78SLPC  C316 7195   3.943   2.694   8.377  0.2751  0.5521  0.4450
   78SLPC  H16X 7196   3.983   2.798   8.373  0.4436  0.4710 -0.0605
   78SLPC  H16Y 7197   4.023   2.633   8.424 -0.5520  0.6546  2.0420
   78SLPC  C317 7198   3.814   2.684   8.472  0.0610  0.2862  0.4250
   78SLPC  H17X 7199   3.730   2.736   8.421  1.7079  0.5800 -2.1386
   78SLPC  H17Y 7200   3.845   2.726   8.570 -1.3554 -0.4554  1.2247
   78SLPC  C318 7201   3.769   2.544   8.518 -0.4451  0.0298 -0.0996
   78SLPC  H18X 7202   3.725   2.494   8.429 -1.3459  0.2548  0.2086
   78SLPC  H18Y 7203   3.682   2.544   8.586 -1.2429 -0.7003 -1.0886
   78SLPC  H18Z 7204   3.846   2.486   8.572 -1.4355 -0.5328  0.7267
   79SLPC     N 7205   2.822   6.693   6.286  0.1986 -0.3062 -0.3866
   79SLPC   C13 7206   2.702   6.599   6.280 -0.7391  0.6200 -0.7237
   79SLPC  H13A 7207   2.719   6.506   6.227  0.2729  0.1357  0.3990
   79SLPC  H13B 7208   2.681   6.582   6.385 -0.9526  0.8050 -0.7343
   79SLPC  H13C 7209   2.616   6.641   6.230 -0.5485 -1.2878 -2.8224
   79SLPC   C14 7210   2.865   6.721   6.149  0.7122  0.1175  0.2397
   79SLPC  H14A 7211   2.887   6.624   6.107 -0.8097 -0.3317  0.4208
   79SLPC  H14B 7212   2.799   6.783   6.090  1.5602 -1.5381 -2.6792
   79SLPC  H14C 7213   2.954   6.782   6.157  2.2954 -1.7196 -1.9915
   79SLPC   C15 7214   2.925   6.612   6.357  0.4256 -0.5834 -0.2924
   79SLPC  H15A 7215   2.955   6.525   6.301 -1.3646 -2.2074  1.1384
   79SLPC  H15B 7216   3.016   6.672   6.365 -1.0052  1.5039  2.0413
   79SLPC  H15C 7217   2.897   6.583   6.457 -0.2938  2.4463  0.5068
   79SLPC   C12 7218   2.798   6.823   6.362  0.3859 -0.4840 -0.4078
   79SLPC  H12A 7219   2.778   6.792   6.463  0.7768 -0.5016 -0.3323
   79SLPC  H12B 7220   2.711   6.868   6.315  0.1538 -1.5966 -1.0644
   79SLPC   C11 7221   2.902   6.934   6.361  0.3555 -0.1831  0.0983
   79SLPC  H11A 7222   2.860   7.005   6.436 -0.3493 -0.7019  0.1958
   79SLPC  H11B 7223   2.911   6.976   6.259 -0.0434  1.6288  0.7660
   79SLPC     P 7224   3.087   6.872   6.542 -0.1518 -0.3673  0.2805
   79SLPC   O13 7225   3.132   6.736   6.565 -0.1393 -0.5511 -0.0929
   79SLPC   O14 7226   3.195   6.967   6.565  0.1283  0.0719 -0.3288
   79SLPC   O12 7227   3.036   6.890   6.393  0.0386 -0.2788  0.0444
   79SLPC   O11 7228   2.966   6.898   6.634  0.3887  0.4394 -0.6495
   79SLPC    C1 7229   2.954   6.829   6.762 -0.2568 -0.4003 -0.6536
   79SLPC    HA 7230   2.901   6.732   6.757  0.5716 -1.0931  2.4351
   79SLPC    HB 7231   3.047   6.829   6.822 -1.3817  0.6053  1.1817
   79SLPC    C2 7232   2.860   6.917   6.856  0.2448 -0.6827 -0.1022
   79SLPC    HS 7233   2.905   7.019   6.851 -0.0036 -0.5842 -4.1669
   79SLPC   O21 7234   2.835   6.871   6.987  0.0725 -0.2797  0.3371
   79SLPC   C21 7235   2.938   6.908   7.071  0.1643  0.4009  0.5335
   79SLPC   O22 7236   3.033   6.971   7.034  0.2552  0.8559  0.4062
   79SLPC   C22 7237   2.917   6.853   7.212 -0.2366 -0.1312  0.8063
   79SLPC   H2R 7238   2.829   6.787   7.199 -2.9705  3.0836  1.6272
   79SLPC   H2S 7239   3.004   6.791   7.243  0.2717  1.3891  2.5806
   79SLPC    C3 7240   2.715   6.920   6.789 -0.2192  0.5506 -0.0356
   79SLPC    HX 7241   2.672   6.818   6.780 -0.6502  0.7597 -0.3941
   79SLPC    HY 7242   2.730   6.952   6.683  0.6713 -0.8924 -0.3753
   79SLPC   O31 7243   2.632   7.017   6.858  0.1425 -0.0073  0.6151
   79SLPC   C31 7244   2.503   6.994   6.875  0.6484 -0.9496 -0.4565
   79SLPC   O32 7245   2.445   6.892   6.844  0.3067  0.2439  0.2519
   79SLPC   C32 7246   2.433   7.112   6.950 -0.3456 -0.1650  0.1821
   79SLPC   H2X 7247   2.341   7.081   7.004  0.1896  0.8901  1.7735
   79SLPC   H2Y 7248   2.375   7.173   6.878 -0.6108 -0.2940  0.2843
   79SLPC   C23 7249   2.897   6.963   7.319 -0.0104  0.6660  0.7697
   79SLPC   H3R 7250   2.809   7.028   7.299  0.2609  0.2101 -2.3220
   79SLPC   H3S 7251   2.979   7.037   7.315 -1.9955  2.9388 -0.0508
   79SLPC   C24 7252   2.898   6.898   7.455  0.1723  0.3471 -0.7287
   79SLPC   H4R 7253   2.993   6.842   7.471 -1.2213 -2.0553 -0.4096
   79SLPC   H4S 7254   2.821   6.819   7.471  1.0601 -1.1066 -3.1499
   79SLPC   C25 7255   2.883   7.004   7.567  0.3017 -0.2380 -0.4561
   79SLPC   H5R 7256   2.801   7.071   7.532  0.8469  0.5444 -0.2708
   79SLPC   H5S 7257   2.977   7.063   7.576  0.6022 -0.8365  0.3112
   79SLPC   C26 7258   2.839   6.945   7.706  0.3263 -0.6378 -0.1723
   79SLPC   H6R 7259   2.916   6.874   7.744 -0.8941 -0.8433  2.0332
   79SLPC   H6S 7260   2.751   6.878   7.694 -1.1655  0.9452  1.3553
   79SLPC   C27 7261   2.815   7.052   7.810 -0.0290 -0.0859  0.5640
   79SLPC   H7R 7262   2.723   7.107   7.782  1.3659  1.4614 -1.1752
   79SLPC   H7S 7263   2.902   7.121   7.810 -1.4294  1.8813 -2.9971
   79SLPC   C28 7264   2.783   6.984   7.949  0.1832  0.4971  0.6749
   79SLPC   H8R 7265   2.861   6.912   7.982  1.5384  1.6409  0.1164
   79SLPC   H8S 7266   2.680   6.943   7.959  0.1364  0.7336  1.2116
   79SLPC   C29 7267   2.787   7.105   8.037  0.1852 -0.0367  0.2915
   79SLPC   H9R 7268   2.887   7.141   8.065 -0.2863  1.2838  0.3477
   79SLPC  C210 7269   2.682   7.191   8.073 -0.8355  0.0112 -0.3097
   79SLPC  H10R 7270   2.710   7.275   8.138  0.9686  0.1702 -1.2526
   79SLPC  C211 7271   2.543   7.164   8.039  0.4825  0.3581 -0.2694
   79SLPC  H11R 7272   2.531   7.124   7.936  0.2301 -0.2827  0.0047
   79SLPC  H11S 7273   2.497   7.265   8.026  2.9750  1.5965 -0.1032
   79SLPC  C212 7274   2.471   7.066   8.129  0.1169  0.2821  0.7343
   79SLPC  H12R 7275   2.476   6.961   8.094  1.0735  0.6355 -0.2314
   79SLPC  C213 7276   2.410   7.100   8.245  0.1166  0.8415 -0.2471
   79SLPC  H13R 7277   2.365   7.014   8.298  1.3880  0.8884  0.9723
   79SLPC  C214 7278   2.407   7.233   8.310 -0.1337 -0.7486 -0.2368
   79SLPC  H14R 7279   2.304   7.266   8.338  0.1990 -2.1482  3.0779
   79SLPC  H14S 7280   2.433   7.307   8.231 -1.3032 -0.6691 -0.5702
   79SLPC  C215 7281   2.504   7.241   8.429 -0.0418 -0.2319 -0.8034
   79SLPC  H15R 7282   2.500   7.350   8.452  0.0907 -0.1976 -0.9429
   79SLPC  H15S 7283   2.606   7.207   8.404 -0.0055  0.2300 -1.3176
   79SLPC  C216 7284   2.453   7.158   8.554 -0.4315  0.9279  0.3215
   79SLPC  H16R 7285   2.518   7.068   8.543 -0.6084  0.8974 -0.5034
   79SLPC  H16S 7286   2.347   7.125   8.551 -0.1130 -0.0675 -0.8207
   79SLPC  C217 7287   2.480   7.229   8.683 -0.1596 -0.4954  0.0551
   79SLPC  H17R 7288   2.417   7.321   8.680 -0.9745 -0.9751  1.5247
   79SLPC  H17S 7289   2.582   7.272   8.677 -1.5334  3.1378 -0.2977
   79SLPC  C218 7290   2.452   7.151   8.811 -0.2162 -0.2180 -0.2802
   79SLPC  H18R 7291   2.474   7.212   8.901 -0.9077  0.9965 -0.9021
   79SLPC  H18S 7292   2.510   7.056   8.813 -2.5349 -1.7169  0.7070
   79SLPC  H18T 7293   2.345   7.125   8.823  0.1044 -2.1681 -1.2344
   79SLPC   C33 7294   2.525   7.210   7.032  0.1194 -0.1912 -0.3742
   79SLPC   H3X 7295   2.467   7.304   7.037  0.6581  0.2663 -2.0526
   79SLPC   H3Y 7296   2.607   7.239   6.963  0.3299 -2.1910 -1.0222
   79SLPC   C34 7297   2.569   7.147   7.165 -0.2248  0.4350 -0.1201
   79SLPC   H4X 7298   2.626   7.219   7.228 -1.6493 -0.0950  1.8691
   79SLPC   H4Y 7299   2.640   7.065   7.143  1.8310  1.9017  0.7298
   79SLPC   C35 7300   2.456   7.097   7.257  0.0625 -0.0107  0.3554
   79SLPC   H5X 7301   2.481   7.092   7.365  2.5691 -1.3918 -0.1957
   79SLPC   H5Y 7302   2.425   6.999   7.215 -0.9316 -0.0015  1.0427
   79SLPC   C36 7303   2.328   7.190   7.258  0.5044 -0.3531  0.0815
   79SLPC   H6X 7304   2.250   7.116   7.288  1.5984 -1.9209 -0.7981
   79SLPC   H6Y 7305   2.302   7.242   7.164 -1.8810 -0.5881  0.5540
   79SLPC   C37 7306   2.334   7.296   7.370  0.5287  0.3718 -0.1380
   79SLPC   H7X 7307   2.411   7.366   7.332  2.4172 -1.3442  0.3646
   79SLPC   H7Y 7308   2.365   7.245   7.464  0.5713 -0.1218 -0.4187
   79SLPC   C38 7309   2.193   7.365   7.399 -0.0931  0.3749 -0.3483
   79SLPC   H8X 7310   2.110   7.292   7.396  0.1389  0.0920  0.0728
   79SLPC   H8Y 7311   2.186   7.441   7.318  0.5863 -1.0646 -1.8227
   79SLPC   C39 7312   2.204   7.448   7.528 -0.1693 -0.0627 -0.0905
   79SLPC   H9X 7313   2.289   7.515   7.499  0.6318 -0.3766  1.4440
   79SLPC   H9Y 7314   2.237   7.380   7.610  2.3932  1.0257 -0.1234
   79SLPC  C310 7315   2.077   7.531   7.572 -0.1823 -0.0574  0.8669
   79SLPC  H10X 7316   1.996   7.459   7.599  0.0268 -1.8574 -2.7611
   79SLPC  H10Y 7317   2.033   7.589   7.489  1.9026  0.1339 -0.1768
   79SLPC  C311 7318   2.103   7.639   7.677 -0.0866  0.3930 -0.2924
   79SLPC  H11X 7319   2.009   7.698   7.684 -0.5095 -0.4032  1.7740
   79SLPC  H11Y 7320   2.186   7.708   7.654  1.0378 -1.0976 -0.8298
   79SLPC  C312 7321   2.137   7.570   7.815  0.2095  0.4016 -0.3288
   79SLPC  H12X 7322   2.234   7.519   7.798 -0.3312 -0.1315 -2.0918
   79SLPC  H12Y 7323   2.065   7.487   7.834 -0.1869  0.6661 -0.6483
   79SLPC  C313 7324   2.137   7.671   7.926  0.3804 -0.0242 -0.4222
   79SLPC  H13X 7325   2.034   7.692   7.963  0.6644  0.5601  0.0479
   79SLPC  H13Y 7326   2.168   7.771   7.889  0.5462  0.2615  0.4649
   79SLPC  C314 7327   2.231   7.638   8.048  0.6253  0.1832 -0.2703
   79SLPC  H14X 7328   2.296   7.727   8.062 -2.1230  1.9230  2.6905
   79SLPC  H14Y 7329   2.290   7.545   8.033  0.0023 -0.0749 -1.2184
   79SLPC  C315 7330   2.152   7.618   8.189  0.2303 -0.3311  0.2708
   79SLPC  H15X 7331   2.082   7.532   8.186  1.1914 -1.1596  0.7223
   79SLPC  H15Y 7332   2.092   7.710   8.204 -0.6683 -0.6792 -1.0140
   79SLPC  C316 7333   2.245   7.594   8.311  0.0192  0.7235 -0.0416
   79SLPC  H16X 7334   2.299   7.691   8.315  2.7704 -0.7369  1.3823
   79SLPC  H16Y 7335   2.333   7.531   8.286  0.5691  1.6143 -0.3864
   79SLPC  C317 7336   2.173   7.545   8.443 -0.4221 -0.2435 -0.4337
   79SLPC  H17X 7337   2.136   7.444   8.414 -1.9892  0.3744 -0.6764
   79SLPC  H17Y 7338   2.089   7.611   8.474 -0.2968 -0.1938 -0.1987
   79SLPC  C318 7339   2.271   7.534   8.553 -0.4701  0.1789 -0.3379
   79SLPC  H18X 7340   2.296   7.634   8.593  1.0831 -0.9462  1.7646
   79SLPC  H18Y 7341   2.369   7.487   8.527  0.4350 -0.0867  3.0230
   79SLPC  H18Z 7342   2.245   7.480   8.647  1.8341 -0.7422 -0.1535
   80SLPC     N 7343   4.754   3.846   6.101 -0.2542 -0.9920  0.0099
   80SLPC   C13 7344   4.653   3.857   5.990 -0.2499  0.0932  0.3663
   80SLPC  H13A 7345   4.599   3.765   5.973  1.0989 -0.7424  0.4438
   80SLPC  H13B 7346   4.586   3.937   6.016  0.2654  0.3223  0.9900
   80SLPC  H13C 7347   4.703   3.879   5.897  3.0731 -0.1429  1.9612
   80SLPC   C14 7348   4.863   3.951   6.089 -0.1264 -0.0634  0.2473
   80SLPC  H14A 7349   4.829   4.053   6.094  1.8550  0.8489 -2.3331
   80SLPC  H14B 7350   4.938   3.939   6.165 -1.0957 -1.2241  1.0476
   80SLPC  H14C 7351   4.920   3.939   5.997  0.9972 -1.1339  1.0544
   80SLPC   C15 7352   4.820   3.713   6.097 -0.2489  0.8396  0.1721
   80SLPC  H15A 7353   4.757   3.632   6.062  0.1342  1.0861 -1.1145
   80SLPC  H15B 7354   4.911   3.712   6.040  0.5704 -1.2087  1.3946
   80SLPC  H15C 7355   4.849   3.692   6.199  2.6364 -0.9776 -0.9089
   80SLPC   C12 7356   4.675   3.863   6.229 -0.2531 -0.5952 -0.2646
   80SLPC  H12A 7357   4.591   3.795   6.232  0.9397 -2.2672  3.8670
   80SLPC  H12B 7358   4.635   3.963   6.232  0.5768 -0.2676  0.8962
   80SLPC   C11 7359   4.748   3.836   6.359 -0.6142 -0.5377  0.6446
   80SLPC  H11A 7360   4.694   3.887   6.442 -2.7607 -2.7614  0.7135
   80SLPC  H11B 7361   4.848   3.884   6.351 -0.5712 -0.9233 -2.1216
   80SLPC     P 7362   4.636   3.623   6.455 -0.0242 -0.1667 -0.2561
   80SLPC   O13 7363   4.517   3.638   6.372  0.4593  0.0645  0.3587
   80SLPC   O14 7364   4.674   3.481   6.482 -0.2585 -0.3102  0.2520
   80SLPC   O12 7365   4.758   3.697   6.384  0.3491  0.3052  0.0158
   80SLPC   O11 7366   4.615   3.692   6.593 -0.4206  0.2973 -0.1557
   80SLPC    C1 7367   4.716   3.717   6.684  0.0721  0.3351 -0.3654
   80SLPC    HA 7368   4.778   3.625   6.694  0.1079  0.4829  0.9348
   80SLPC    HB 7369   4.784   3.797   6.649 -0.8994  0.8753 -1.0662
   80SLPC    C2 7370   4.676   3.767   6.830 -0.6363 -0.0653  0.1492
   80SLPC    HS 7371   4.766   3.784   6.892  0.3954 -0.3034 -1.2380
   80SLPC   O21 7372   4.593   3.670   6.895 -0.0148  0.5613  0.6594
   80SLPC   C21 7373   4.645   3.557   6.944 -0.0740  0.3329  0.4245
   80SLPC   O22 7374   4.762   3.531   6.936  0.0629  0.3137  0.0114
   80SLPC   C22 7375   4.537   3.476   7.016  0.0593 -0.2396  0.5839
   80SLPC   H2R 7376   4.446   3.536   7.040  0.2668  0.0140  0.7320
   80SLPC   H2S 7377   4.501   3.392   6.952  0.3586  0.3086 -0.3176
   80SLPC    C3 7378   4.588   3.897   6.822  0.4184 -1.1232 -0.1212
   80SLPC    HX 7379   4.502   3.894   6.750  0.5856 -1.4868 -0.3077
   80SLPC    HY 7380   4.651   3.975   6.775  0.6270 -0.8520  0.6128
   80SLPC   O31 7381   4.545   3.938   6.955 -0.1683 -0.1302  0.1097
   80SLPC   C31 7382   4.421   3.931   6.990 -0.2493 -0.6094  0.4753
   80SLPC   O32 7383   4.323   3.900   6.921  0.5529 -0.0493  0.2504
   80SLPC   C32 7384   4.406   3.972   7.139  0.2159  0.1296 -0.0424
   80SLPC   H2X 7385   4.309   4.026   7.147  0.6295  1.2518 -2.0394
   80SLPC   H2Y 7386   4.490   4.038   7.170 -1.0254  0.8337  2.0799
   80SLPC   C23 7387   4.594   3.407   7.140  0.0158 -0.2334  0.0785
   80SLPC   H3R 7388   4.697   3.373   7.114 -0.1234 -1.8598  1.5128
   80SLPC   H3S 7389   4.533   3.318   7.167 -1.3530  0.2981 -1.1175
   80SLPC   C24 7390   4.595   3.504   7.259 -0.1150  0.3245 -0.2787
   80SLPC   H4R 7391   4.492   3.534   7.288  0.2761  0.7197  0.7191
   80SLPC   H4S 7392   4.642   3.597   7.221 -1.5164  1.9465  1.7156
   80SLPC   C25 7393   4.672   3.473   7.384 -0.1435 -0.6577  0.1322
   80SLPC   H5R 7394   4.664   3.556   7.457 -1.4725  0.0994 -0.8325
   80SLPC   H5S 7395   4.782   3.471   7.364 -0.1860 -1.5997 -0.0713
   80SLPC   C26 7396   4.627   3.346   7.461  0.0200 -0.0950  0.9719
   80SLPC   H6R 7397   4.672   3.254   7.417  0.2886 -0.7174  2.4861
   80SLPC   H6S 7398   4.516   3.340   7.459  0.0832 -1.5485  0.8530
   80SLPC   C27 7399   4.672   3.356   7.605  0.6076  0.7150  0.1723
   80SLPC   H7R 7400   4.625   3.447   7.649  0.9316  0.3920  1.2159
   80SLPC   H7S 7401   4.780   3.380   7.609  0.4713  1.3787 -0.0264
   80SLPC   C28 7402   4.646   3.220   7.686 -0.8809  0.3895  0.3373
   80SLPC   H8R 7403   4.689   3.140   7.622  0.2529 -0.7551  2.4098
   80SLPC   H8S 7404   4.536   3.204   7.683 -0.9418  0.7770  0.4769
   80SLPC   C29 7405   4.718   3.203   7.821  0.3072 -0.0219 -0.1966
   80SLPC   H9R 7406   4.827   3.190   7.819  0.3967 -0.3067  2.5749
   80SLPC  C210 7407   4.645   3.224   7.937  1.1002  0.3225  0.7671
   80SLPC  H10R 7408   4.693   3.222   8.036  0.2486 -2.3610  1.1909
   80SLPC  C211 7409   4.500   3.267   7.944  0.0012 -0.3983  0.0738
   80SLPC  H11R 7410   4.477   3.305   7.842  0.0314 -0.5025  0.0282
   80SLPC  H11S 7411   4.486   3.355   8.010 -0.4070 -1.2184  1.1068
   80SLPC  C212 7412   4.405   3.152   7.981  0.3406 -0.4041  0.5034
   80SLPC  H12R 7413   4.377   3.088   7.896 -2.3098  0.1766  0.8548
   80SLPC  C213 7414   4.362   3.111   8.097 -0.3583 -0.0509  0.5898
   80SLPC  H13R 7415   4.300   3.020   8.109 -0.8858  0.4513  1.7940
   80SLPC  C214 7416   4.383   3.175   8.226  0.8746 -0.6553 -0.3478
   80SLPC  H14R 7417   4.452   3.262   8.221 -0.4338  0.4017 -0.9364
   80SLPC  H14S 7418   4.420   3.095   8.293 -0.9467 -0.5689  0.8266
   80SLPC  C215 7419   4.258   3.228   8.298 -0.6056 -0.0181 -0.7230
   80SLPC  H15R 7420   4.186   3.275   8.228 -2.5589 -1.3875  0.3045
   80SLPC  H15S 7421   4.288   3.307   8.371  1.6277 -0.5991 -0.9306
   80SLPC  C216 7422   4.195   3.125   8.392  0.2992  0.0391 -0.1540
   80SLPC  H16R 7423   4.270   3.093   8.468 -0.1064 -0.6594 -0.0333
   80SLPC  H16S 7424   4.159   3.037   8.335 -0.1965 -0.5606  1.0406
   80SLPC  C217 7425   4.060   3.174   8.448 -0.3911 -0.4119 -0.2194
   80SLPC  H17R 7426   3.987   3.096   8.479  0.7901 -3.2991 -3.8583
   80SLPC  H17S 7427   4.006   3.239   8.375 -0.7655 -0.2166  0.2260
   80SLPC  C218 7428   4.083   3.270   8.566 -0.2214  0.0618  0.1752
   80SLPC  H18R 7429   4.148   3.355   8.537  2.7760 -2.2430 -0.2561
   80SLPC  H18S 7430   4.135   3.214   8.646 -1.0139 -0.5713  0.2665
   80SLPC  H18T 7431   3.982   3.303   8.602 -0.8215  1.7388 -2.7391
   80SLPC   C33 7432   4.394   3.851   7.232  0.2753 -0.7372  0.5155
   80SLPC   H3X 7433   4.448   3.761   7.195  1.9933  0.1090  0.8685
   80SLPC   H3Y 7434   4.289   3.816   7.242  0.3382 -1.6613 -1.4134
   80SLPC   C34 7435   4.459   3.875   7.374  0.4880 -0.1398  0.0448
   80SLPC   H4X 7436   4.567   3.900   7.381  0.3272  0.5175  0.2724
   80SLPC   H4Y 7437   4.447   3.774   7.420 -1.1086 -0.0440 -0.1071
   80SLPC   C35 7438   4.384   3.990   7.437  0.2122  0.2877 -0.3796
   80SLPC   H5X 7439   4.275   3.977   7.419  0.1315 -0.2824  0.4542
   80SLPC   H5Y 7440   4.404   4.084   7.381 -0.8977  0.7228 -0.0724
   80SLPC   C36 7441   4.422   4.002   7.582  0.1006 -0.0761  0.0511
   80SLPC   H6X 7442   4.371   4.091   7.626  1.2780  1.7322 -2.0153
   80SLPC   H6Y 7443   4.526   4.040   7.592  0.7570 -2.0322  1.0106
   80SLPC   C37 7444   4.395   3.875   7.660 -0.2236 -0.5679 -0.0328
   80SLPC   H7X 7445   4.494   3.825   7.666 -0.0083 -0.1611 -0.1605
   80SLPC   H7Y 7446   4.340   3.803   7.595  2.3726 -2.2650 -0.5291
   80SLPC   C38 7447   4.327   3.897   7.787 -0.0734  0.3937 -0.6325
   80SLPC   H8X 7448   4.369   3.981   7.847 -3.0913  1.2803  0.4727
   80SLPC   H8Y 7449   4.340   3.807   7.851  0.4649 -0.5627 -2.0452
   80SLPC   C39 7450   4.187   3.938   7.773 -0.2064 -0.0964 -0.5004
   80SLPC   H9X 7451   4.147   3.845   7.727 -1.4805 -0.8652  1.9597
   80SLPC   H9Y 7452   4.189   4.029   7.711 -0.5990  0.8947  0.8916
   80SLPC  C310 7453   4.129   3.971   7.913  0.2601 -0.1980 -0.4628
   80SLPC  H10X 7454   4.034   4.026   7.897 -0.7104 -1.3893  0.9473
   80SLPC  H10Y 7455   4.195   4.048   7.956  0.1353 -0.4571  0.2038
   80SLPC  C311 7456   4.087   3.843   7.993 -0.2788 -0.3305 -0.0526
   80SLPC  H11X 7457   4.174   3.777   8.013 -0.9653 -1.9796 -2.1178
   80SLPC  H11Y 7458   4.019   3.776   7.935  1.2368  0.1369 -2.5131
   80SLPC  C312 7459   4.033   3.875   8.132  0.0340 -0.3827 -0.8392
   80SLPC  H12X 7460   3.946   3.945   8.131 -0.6834 -1.1746  0.8933
   80SLPC  H12Y 7461   4.104   3.915   8.207  1.1512 -0.4830 -1.8256
   80SLPC  C313 7462   3.974   3.749   8.212 -1.1267 -0.2978 -0.1913
   80SLPC  H13X 7463   4.066   3.702   8.252 -0.2369 -1.0517 -2.9061
   80SLPC  H13Y 7464   3.918   3.679   8.147 -1.1755  0.0595 -0.5374
   80SLPC  C314 7465   3.876   3.789   8.315  1.1949 -0.3292 -0.0802
   80SLPC  H14X 7466   3.789   3.832   8.262  1.5521  0.3153 -0.1565
   80SLPC  H14Y 7467   3.910   3.864   8.390  0.9476 -1.6381  1.3771
   80SLPC  C315 7468   3.821   3.665   8.392 -0.5902 -0.4019  0.0083
   80SLPC  H15X 7469   3.904   3.603   8.431 -1.0893 -0.7374  0.5497
   80SLPC  H15Y 7470   3.766   3.600   8.320  0.0216 -1.2816  0.3343
   80SLPC  C316 7471   3.721   3.715   8.501  0.1876  0.6545  0.5553
   80SLPC  H16X 7472   3.636   3.778   8.468 -1.2137 -0.7109  1.4299
   80SLPC  H16Y 7473   3.776   3.778   8.575  1.3843 -1.1927  1.3233
   80SLPC  C317 7474   3.644   3.592   8.556  0.3607 -0.1013  0.4648
   80SLPC  H17X 7475   3.621   3.521   8.474 -0.2509  0.1934  0.3756
   80SLPC  H17Y 7476   3.551   3.641   8.591 -1.1433 -1.5230 -1.3989
   80SLPC  C318 7477   3.717   3.517   8.672 -0.5948 -0.3378 -0.5872
   80SLPC  H18X 7478   3.746   3.596   8.744  1.1180 -1.2315 -0.2470
   80SLPC  H18Y 7479   3.809   3.468   8.634 -0.3650  1.0001 -1.8053
   80SLPC  H18Z 7480   3.651   3.440   8.719 -0.6015  0.9494  1.6458
   81SAPS     N 7481   5.873   6.388  10.912 -0.3754  0.0922 -0.2982
   81SAPS   HN1 7482   5.856   6.472  10.853  0.4448 -0.2964 -1.1091
   81SAPS   HN2 7483   5.971   6.376  10.947 -1.3715 -0.8936  2.4481
   81SAPS   HN3 7484   5.857   6.305  10.851  0.4108  0.5799 -1.2019
   81SAPS   C12 7485   5.786   6.398  11.031  0.4134  0.4785 -0.1937
   81SAPS  H12A 7486   5.804   6.314  11.097 -0.7161 -0.3605 -0.9041
   81SAPS   C13 7487   5.811   6.531  11.112  0.4561  0.0057  0.3320
   81SAPS  O13A 7488   5.874   6.625  11.057 -0.0899  0.4409  0.0585
   81SAPS  O13B 7489   5.808   6.523  11.238 -0.2161  1.2781 -0.2765
   81SAPS   C11 7490   5.640   6.383  10.980 -0.0262  0.0068 -0.4660
   81SAPS  H11A 7491   5.617   6.317  10.893 -3.3572  0.2609  0.0882
   81SAPS  H11B 7492   5.616   6.486  10.945  1.1261  0.4645  0.0655
   81SAPS     P 7493   5.518   6.206  11.138 -0.0152 -0.3396  0.4012
   81SAPS   O13 7494   5.628   6.150  11.214 -0.6796 -0.2811 -0.3811
   81SAPS   O14 7495   5.388   6.221  11.205  0.2245  0.5186 -0.7337
   81SAPS   O12 7496   5.551   6.347  11.085 -0.6614 -0.4668 -0.0968
   81SAPS   O11 7497   5.500   6.131  11.001  0.5671 -0.2123  0.3951
   81SAPS    C1 7498   5.384   6.137  10.913 -0.6333 -0.1221  0.2357
   81SAPS    HA 7499   5.310   6.057  10.931  0.6077 -0.8854  2.2680
   81SAPS    HB 7500   5.339   6.238  10.909  1.1359  0.6670 -1.6820
   81SAPS    C2 7501   5.423   6.119  10.755 -1.1579 -0.8855  0.4571
   81SAPS    HS 7502   5.489   6.030  10.746  1.2181  0.7896  0.3592
   81SAPS   O21 7503   5.495   6.240  10.708  0.1119  0.8046 -0.4036
   81SAPS   C21 7504   5.587   6.217  10.616  0.6399  0.1725  0.1684
   81SAPS   O22 7505   5.608   6.111  10.558  0.3180  0.3573  0.0273
   81SAPS   C22 7506   5.662   6.344  10.577  0.5524 -0.3770  0.3019
   81SAPS   H2R 7507   5.585   6.423  10.561 -0.5752 -1.5229 -0.1247
   81SAPS   H2S 7508   5.719   6.371  10.668 -1.0585  2.3031  0.6464
   81SAPS    C3 7509   5.301   6.099  10.668  0.9815  0.3650 -0.0212
   81SAPS    HX 7510   5.250   6.197  10.675  2.0536  0.9375 -0.0439
   81SAPS    HY 7511   5.223   6.038  10.718  1.7160  0.7036  1.5914
   81SAPS   O31 7512   5.320   6.067  10.525  0.4006 -0.1904  0.0397
   81SAPS   C31 7513   5.333   5.941  10.508 -0.5072 -0.2675  0.0476
   81SAPS   O32 7514   5.335   5.854  10.594  0.2649  0.0339  0.7477
   81SAPS   C32 7515   5.353   5.926  10.360 -0.3081  0.0300  0.6644
   81SAPS   H2X 7516   5.459   5.955  10.341 -0.2982  0.7707  1.7968
   81SAPS   H2Y 7517   5.283   5.994  10.308  1.3912  2.0873  0.9435
   81SAPS   C23 7518   5.756   6.337  10.453  0.6396 -0.3247 -0.0816
   81SAPS   H3R 7519   5.826   6.251  10.461  1.8776  0.6811  0.2303
   81SAPS   H3S 7520   5.808   6.435  10.457 -0.3340  0.2181 -0.5320
   81SAPS   C24 7521   5.672   6.337  10.319 -0.0725 -0.1677 -0.1655
   81SAPS   H4R 7522   5.599   6.420  10.331 -0.5717 -0.5928 -0.2352
   81SAPS   H4S 7523   5.625   6.237  10.336 -1.3725  0.2783 -0.9341
   81SAPS   C25 7524   5.762   6.340  10.198  0.0155 -0.2641 -1.1055
   81SAPS   H5R 7525   5.834   6.424  10.201  0.9944 -1.1037  0.1189
   81SAPS   C26 7526   5.763   6.255  10.096 -0.1923 -0.2337 -0.6539
   81SAPS   H6R 7527   5.841   6.267  10.020 -1.1068  1.6771 -1.3436
   81SAPS   C27 7528   5.671   6.136  10.086 -0.1158  0.1178 -0.1942
   81SAPS   H7R 7529   5.655   6.109   9.979  0.1439  1.6149 -0.6310
   81SAPS   H7S 7530   5.567   6.162  10.114 -0.9827  0.0025 -2.9820
   81SAPS   C28 7531   5.730   6.017  10.166 -0.2222  0.7293  0.4100
   81SAPS   H8R 7532   5.756   6.039  10.271 -2.6458 -0.5689  1.3544
   81SAPS   C29 7533   5.754   5.895  10.122 -0.2270  0.4293 -0.2500
   81SAPS   H9R 7534   5.811   5.826  10.185  0.7429  1.3336 -0.1174
   81SAPS  C210 7535   5.722   5.859   9.977 -0.2274  0.2853  0.0295
   81SAPS  H10R 7536   5.801   5.880   9.902 -0.9163 -0.1333 -0.8264
   81SAPS  H10S 7537   5.627   5.911   9.951 -1.3283  0.4077  3.6980
   81SAPS  C211 7538   5.695   5.711   9.976  0.1858 -0.0894  0.4263
   81SAPS  H11R 7539   5.750   5.650  10.049 -1.6117 -0.6998  1.3336
   81SAPS  C212 7540   5.602   5.654   9.889 -0.9687  0.5858 -0.1100
   81SAPS  H12R 7541   5.572   5.550   9.912  0.0942  0.0923 -0.9017
   81SAPS  C213 7542   5.520   5.725   9.786  0.2600  0.0866 -0.8280
   81SAPS  H13R 7543   5.541   5.834   9.788  1.4322 -0.1346  0.5158
   81SAPS  H13S 7544   5.415   5.722   9.820  0.2687  2.5236 -0.3807
   81SAPS  C214 7545   5.549   5.665   9.651  0.3631  0.2226 -0.1442
   81SAPS  H14R 7546   5.644   5.609   9.648  0.0213 -0.3040 -1.5488
   81SAPS  C215 7547   5.471   5.666   9.540  0.0747 -0.5075 -0.3235
   81SAPS  H15R 7548   5.501   5.605   9.454 -0.5719 -3.1588  1.2284
   81SAPS  C216 7549   5.335   5.719   9.538 -0.8661  0.7405  0.7488
   81SAPS  H16R 7550   5.321   5.789   9.453 -0.5936  1.0259  0.9388
   81SAPS  H16S 7551   5.302   5.767   9.632 -2.4718  0.0083  0.5894
   81SAPS  C217 7552   5.218   5.611   9.523  0.0824 -0.0304  0.6858
   81SAPS  H17R 7553   5.234   5.519   9.583  2.1242 -1.6034 -2.0046
   81SAPS  H17S 7554   5.224   5.560   9.424  1.0650 -0.0061  0.7148
   81SAPS  C218 7555   5.075   5.661   9.541  0.7797  0.4454  0.0655
   81SAPS  H18R 7556   5.070   5.772   9.539 -2.0359  0.3978 -0.5031
   81SAPS  H18S 7557   5.045   5.618   9.639  0.1532  0.2035 -0.2222
   81SAPS  C219 7558   4.976   5.618   9.429  0.2084  0.2255 -0.0991
   81SAPS  H19R 7559   5.026   5.653   9.337  2.2539 -2.5610 -0.1626
   81SAPS  H19S 7560   4.872   5.659   9.435 -0.5155 -1.6329  1.0187
   81SAPS  C220 7561   4.966   5.465   9.407  0.6573 -0.1400  0.2985
   81SAPS  H20R 7562   4.907   5.424   9.492  0.8626  3.1083  2.1882
   81SAPS  H20S 7563   5.065   5.415   9.406  1.9617  2.2660  0.6160
   81SAPS  H20T 7564   4.909   5.438   9.316  0.8843 -1.0445  0.4092
   81SAPS   C33 7565   5.328   5.780  10.319  0.4517  1.0610  0.4394
   81SAPS   H3X 7566   5.237   5.725  10.353  0.1358 -0.4414 -2.5414
   81SAPS   H3Y 7567   5.418   5.729  10.360  1.6713  1.1796 -1.9329
   81SAPS   C34 7568   5.346   5.768  10.169 -0.4187  0.0170  0.1373
   81SAPS   H4X 7569   5.362   5.661  10.145  1.8845  0.5838 -1.1007
   81SAPS   H4Y 7570   5.440   5.820  10.142  0.8251 -2.2400 -0.1074
   81SAPS   C35 7571   5.229   5.807  10.079 -0.8121 -0.9135 -0.1980
   81SAPS   H5X 7572   5.267   5.783   9.977 -0.5250 -0.9625 -0.0797
   81SAPS   H5Y 7573   5.224   5.918  10.087 -1.8428 -0.8957 -0.8657
   81SAPS   C36 7574   5.098   5.740  10.108 -0.7757  1.3255 -0.0867
   81SAPS   H6X 7575   5.058   5.747  10.212  0.5513 -1.3623  0.6857
   81SAPS   H6Y 7576   5.100   5.629  10.101 -3.1039  1.3040 -1.5053
   81SAPS   C37 7577   4.994   5.786  10.007  0.8574  0.2294  0.3273
   81SAPS   H7X 7578   4.928   5.697   9.997  0.1044  1.0492 -4.3855
   81SAPS   H7Y 7579   5.039   5.794   9.906  1.5278 -3.4517  0.2142
   81SAPS   C38 7580   4.922   5.925  10.046 -0.0626  0.2383  0.2850
   81SAPS   H8X 7581   4.990   6.009  10.020 -3.3224  2.8830 -0.4200
   81SAPS   H8Y 7582   4.885   5.931  10.150 -1.5131  1.1137 -0.2469
   81SAPS   C39 7583   4.799   5.934   9.950 -0.4294 -0.8500  0.4836
   81SAPS   H9X 7584   4.739   6.019   9.989  0.8411 -0.3351  1.3678
   81SAPS   H9Y 7585   4.728   5.854   9.981 -1.3700 -0.1903  0.0875
   81SAPS  C310 7586   4.820   5.943   9.792  0.2294  0.0522  0.1636
   81SAPS  H10X 7587   4.864   5.856   9.740  3.0576  1.0559  0.6760
   81SAPS  H10Y 7588   4.896   6.023   9.778  2.3224 -1.8554  0.1712
   81SAPS  C311 7589   4.694   6.001   9.721 -0.0716  0.2902 -0.5753
   81SAPS  H11X 7590   4.657   6.090   9.778  1.8917  1.6106 -1.2333
   81SAPS  H11Y 7591   4.622   5.917   9.721  1.3321 -1.2992  4.7200
   81SAPS  C312 7592   4.721   6.053   9.586 -0.2709 -0.3481  0.6540
   81SAPS  H12X 7593   4.799   6.132   9.586  0.6563 -1.2332 -0.0387
   81SAPS  H12Y 7594   4.635   6.104   9.536  0.4324 -2.0268 -2.6125
   81SAPS  C313 7595   4.743   5.946   9.473  0.0032 -0.1254  0.3107
   81SAPS  H13X 7596   4.673   5.861   9.490  1.8795 -2.7151 -3.4916
   81SAPS  H13Y 7597   4.849   5.919   9.491  0.3692  2.0775  1.9302
   81SAPS  C314 7598   4.732   6.002   9.327 -0.7742 -0.2074  0.9991
   81SAPS  H14X 7599   4.791   6.096   9.327  2.7195 -2.1934  0.2562
   81SAPS  H14Y 7600   4.629   6.018   9.289 -0.9504 -0.5941  1.3027
   81SAPS  C315 7601   4.810   5.917   9.223 -0.5076 -0.0046  0.5809
   81SAPS  H15X 7602   4.768   5.815   9.210  1.0662 -0.5913 -0.1560
   81SAPS  H15Y 7603   4.912   5.905   9.266  0.2581  0.8997 -0.8718
   81SAPS  C316 7604   4.819   5.998   9.089 -0.2599  0.2391 -0.5077
   81SAPS  H16X 7605   4.876   6.092   9.107  0.2871 -0.4085  1.2185
   81SAPS  H16Y 7606   4.718   6.023   9.047 -0.1661  0.4464 -0.6108
   81SAPS  C317 7607   4.908   5.933   8.984 -0.4902  0.1396 -0.0137
   81SAPS  H17X 7608   4.872   5.831   8.958 -0.4014  0.2852 -0.7368
   81SAPS  H17Y 7609   5.004   5.921   9.039 -0.3494 -1.6001 -0.5577
   81SAPS  C318 7610   4.924   6.013   8.849  0.8499  0.1289 -0.1031
   81SAPS  H18X 7611   4.837   6.003   8.782 -0.5338  0.9500  1.4946
   81SAPS  H18Y 7612   5.007   5.975   8.786 -0.1294 -1.3041 -0.5597
   81SAPS  H18Z 7613   4.942   6.118   8.880  0.1793 -0.0942  1.1147
   82SAPS     N 7614   4.192   6.557  11.214 -0.5101 -0.2258  0.0486
   82SAPS   HN1 7615   4.205   6.649  11.168  1.8463 -0.5938 -0.1408
   82SAPS   HN2 7616   4.282   6.522  11.253 -1.5546 -1.3490  1.5810
   82SAPS   HN3 7617   4.163   6.495  11.136 -0.1918 -0.2481 -0.0530
   82SAPS   C12 7618   4.083   6.564  11.313 -0.2612 -0.3322  0.0250
   82SAPS  H12A 7619   4.013   6.486  11.289 -0.5554 -0.4742  1.2814
   82SAPS   C13 7620   4.139   6.546  11.455  0.1233  0.5977  0.0903
   82SAPS  O13A 7621   4.266   6.550  11.479  0.4712  0.3725  0.1333
   82SAPS  O13B 7622   4.061   6.558  11.554 -0.4134 -0.2716  0.4757
   82SAPS   C11 7623   4.018   6.702  11.309  0.5579  0.3531 -0.8007
   82SAPS  H11A 7624   4.097   6.770  11.348  0.7435 -0.2533 -0.0992
   82SAPS  H11B 7625   3.928   6.703  11.375  3.1243  0.9169  3.0261
   82SAPS     P 7626   4.066   6.831  11.072 -0.3910  0.1153 -0.0997
   82SAPS   O13 7627   4.051   6.978  11.106  0.4490 -0.1224 -0.1745
   82SAPS   O14 7628   4.204   6.777  11.076 -0.1319  0.2265 -0.0261
   82SAPS   O12 7629   3.986   6.742  11.177  0.0859  0.0662  0.2704
   82SAPS   O11 7630   4.025   6.804  10.923 -0.1090 -0.2067  0.0480
   82SAPS    C1 7631   3.983   6.680  10.865  0.0555  0.1894  0.2057
   82SAPS    HA 7632   3.980   6.600  10.941  1.3159  0.3565  0.4501
   82SAPS    HB 7633   3.879   6.686  10.827 -0.7261 -1.9260  1.8705
   82SAPS    C2 7634   4.068   6.613  10.752 -0.4990 -0.4388  1.7999
   82SAPS    HS 7635   4.173   6.606  10.787 -0.3938 -0.6673  1.4467
   82SAPS   O21 7636   4.051   6.710  10.641 -0.2841  0.0537 -0.6858
   82SAPS   C21 7637   4.144   6.702  10.545  0.3340 -0.1559  0.6119
   82SAPS   O22 7638   4.240   6.624  10.554  0.2302  0.6065 -0.4443
   82SAPS   C22 7639   4.127   6.793  10.423  0.9869 -0.5590 -0.0737
   82SAPS   H2R 7640   4.018   6.805  10.402 -0.3222 -3.2501  3.9650
   82SAPS   H2S 7641   4.157   6.895  10.455  3.1174 -0.9763 -0.6039
   82SAPS    C3 7642   4.008   6.472  10.714  0.4188  0.1370  0.0214
   82SAPS    HX 7643   3.915   6.508  10.664 -0.4039  0.0277  1.4116
   82SAPS    HY 7644   3.972   6.404  10.795  0.2374  0.2124  0.0054
   82SAPS   O31 7645   4.074   6.399  10.613  0.3675 -0.0087  0.6115
   82SAPS   C31 7646   4.152   6.305  10.657  0.1205 -0.1653  0.2459
   82SAPS   O32 7647   4.164   6.272  10.775  0.2482 -0.7435 -0.2411
   82SAPS   C32 7648   4.216   6.234  10.535 -0.2349 -0.1566 -0.2222
   82SAPS   H2X 7649   4.258   6.318  10.476  0.7727  0.0473  0.7645
   82SAPS   H2Y 7650   4.136   6.185  10.475 -0.2309  0.7297 -0.9692
   82SAPS   C23 7651   4.207   6.761  10.289 -0.3647 -0.5881  0.0292
   82SAPS   H3R 7652   4.315   6.756  10.317 -0.0363  1.7703 -0.5598
   82SAPS   H3S 7653   4.203   6.850  10.222  2.5307 -0.4794 -0.1189
   82SAPS   C24 7654   4.154   6.636  10.216 -0.7529  0.0385 -0.6247
   82SAPS   H4R 7655   4.162   6.546  10.279 -0.5808  0.1354 -0.5069
   82SAPS   H4S 7656   4.230   6.615  10.137  1.1379  1.0146  0.8428
   82SAPS   C25 7657   4.008   6.639  10.173  0.0081  0.1430 -0.3787
   82SAPS   H5R 7658   3.934   6.623  10.253  0.3883  1.9921  0.3923
   82SAPS   C26 7659   3.964   6.670  10.048  0.2793 -0.0965 -0.5168
   82SAPS   H6R 7660   3.856   6.665  10.029 -0.3958 -1.9786  2.9894
   82SAPS   C27 7661   4.054   6.716   9.934  0.0100 -0.3414 -0.5211
   82SAPS   H7R 7662   4.106   6.636   9.876  1.0428  0.7043 -1.0732
   82SAPS   H7S 7663   4.131   6.788   9.967  0.0543 -1.0310  0.9766
   82SAPS   C28 7664   3.962   6.774   9.829  0.1216  0.0372  0.5106
   82SAPS   H8R 7665   3.938   6.881   9.828  2.1405  0.5764  2.1401
   82SAPS   C29 7666   3.917   6.704   9.720  0.7957 -0.0887  0.2404
   82SAPS   H9R 7667   3.867   6.759   9.639  1.2589 -0.0475 -0.0183
   82SAPS  C210 7668   3.925   6.558   9.676 -0.4094 -0.3804  0.3851
   82SAPS  H10R 7669   3.822   6.528   9.645 -1.2118  1.2640  1.2919
   82SAPS  H10S 7670   3.935   6.507   9.773  1.7178 -0.3260  0.2447
   82SAPS  C211 7671   4.037   6.532   9.575 -0.0243  0.0187 -0.3651
   82SAPS  H11R 7672   4.131   6.579   9.607  0.6238 -0.1064 -2.0250
   82SAPS  C212 7673   4.031   6.458   9.460  0.1019  0.2485 -0.3449
   82SAPS  H12R 7674   4.120   6.451   9.395 -0.0438  1.2449 -0.6784
   82SAPS  C213 7675   3.907   6.391   9.414  0.0332 -0.1647 -0.4305
   82SAPS  H13R 7676   3.880   6.451   9.324 -0.3321  0.2533 -0.0498
   82SAPS  H13S 7677   3.822   6.394   9.486  0.4284  0.6981  0.0130
   82SAPS  C214 7678   3.933   6.242   9.384  0.5813  0.4202  0.5859
   82SAPS  H14R 7679   3.928   6.167   9.465 -0.4398 -1.6894 -1.3117
   82SAPS  C215 7680   3.973   6.194   9.259 -0.6449  1.1045  0.3555
   82SAPS  H15R 7681   3.969   6.086   9.240 -0.5594  1.2866 -0.7844
   82SAPS  C216 7682   4.004   6.278   9.138  0.0971 -0.5621 -0.0751
   82SAPS  H16R 7683   4.103   6.243   9.101  0.4380 -0.6271  0.8716
   82SAPS  H16S 7684   4.011   6.384   9.171 -0.0647 -0.9583  1.3001
   82SAPS  C217 7685   3.904   6.258   9.023 -0.2169 -0.2390 -0.0996
   82SAPS  H17R 7686   3.804   6.294   9.056 -0.5037  1.3436 -2.4537
   82SAPS  H17S 7687   3.898   6.150   8.996  0.1266 -0.6977  1.5475
   82SAPS  C218 7688   3.939   6.345   8.900  0.2301 -0.4111  0.2462
   82SAPS  H18R 7689   3.949   6.447   8.942 -1.2830 -0.5960  1.1551
   82SAPS  H18S 7690   3.851   6.342   8.833  0.7381  0.9179 -0.5100
   82SAPS  C219 7691   4.070   6.309   8.834 -0.7727  0.6123 -0.3958
   82SAPS  H19R 7692   4.083   6.201   8.812  1.1501  0.4419  1.2603
   82SAPS  H19S 7693   4.156   6.335   8.900 -1.6229  2.5007  0.0322
   82SAPS  C220 7694   4.095   6.396   8.703 -0.3286 -0.7004  0.1872
   82SAPS  H20R 7695   4.004   6.397   8.640  0.1446  1.2424 -0.5424
   82SAPS  H20S 7696   4.186   6.358   8.652  0.1123 -0.6147  0.8946
   82SAPS  H20T 7697   4.102   6.501   8.738 -0.0052 -0.8099  0.4658
   82SAPS   C33 7698   4.337   6.145  10.558  0.3603  0.3446 -0.0322
   82SAPS   H3X 7699   4.314   6.076  10.642  0.9116  0.8059  0.5077
   82SAPS   H3Y 7700   4.430   6.204  10.574  0.7520 -0.1650 -0.3920
   82SAPS   C34 7701   4.375   6.062  10.442 -0.5459  0.3580 -0.3200
   82SAPS   H4X 7702   4.481   6.029  10.448 -0.9825 -0.9256  1.0400
   82SAPS   H4Y 7703   4.369   6.130  10.354 -0.8375 -0.5032 -0.9853
   82SAPS   C35 7704   4.294   5.934  10.422  0.3831 -0.6017 -0.3910
   82SAPS   H5X 7705   4.185   5.951  10.408  0.0883  0.8039  2.7190
   82SAPS   H5Y 7706   4.307   5.885  10.521  3.0227  2.9866  1.2706
   82SAPS   C36 7707   4.342   5.861  10.300  0.7211 -0.2182 -0.0541
   82SAPS   H6X 7708   4.292   5.762  10.292  0.7821 -0.1894 -0.8546
   82SAPS   H6Y 7709   4.453   5.849  10.296  0.6086 -1.1028 -3.7860
   82SAPS   C37 7710   4.312   5.928  10.172  0.2995  0.3972  0.5493
   82SAPS   H7X 7711   4.356   6.030  10.162  0.6878  0.3050  1.2364
   82SAPS   H7Y 7712   4.205   5.958  10.165  0.3356  0.1176 -3.7942
   82SAPS   C38 7713   4.356   5.848  10.052  0.1185 -0.1653  0.4958
   82SAPS   H8X 7714   4.302   5.751  10.048 -2.1143  1.0644 -1.0456
   82SAPS   H8Y 7715   4.465   5.829  10.064  0.7512  0.4155 -3.3125
   82SAPS   C39 7716   4.343   5.916   9.911 -0.3923  0.1934  0.6312
   82SAPS   H9X 7717   4.400   5.865   9.831 -2.3226 -3.7318  1.4619
   82SAPS   H9Y 7718   4.389   6.015   9.932 -1.1512  0.9854 -1.2264
   82SAPS  C310 7719   4.203   5.933   9.858  0.0467 -0.1390 -0.3546
   82SAPS  H10X 7720   4.165   6.011   9.927 -0.0893  2.0355 -2.7578
   82SAPS  H10Y 7721   4.139   5.843   9.872  0.2469  0.0258  2.0451
   82SAPS  C311 7722   4.192   5.992   9.723 -0.0874 -0.2865 -0.3697
   82SAPS  H11X 7723   4.258   6.081   9.728 -0.6660  0.1031  0.5773
   82SAPS  H11Y 7724   4.091   6.035   9.706 -1.4538 -2.8852  0.6624
   82SAPS  C312 7725   4.233   5.904   9.612 -0.7044 -0.0102 -0.2056
   82SAPS  H12X 7726   4.170   5.812   9.606  0.0385 -0.5479 -0.0001
   82SAPS  H12Y 7727   4.335   5.866   9.632 -0.7936 -0.1981 -0.1032
   82SAPS  C313 7728   4.230   5.976   9.479 -0.2937  0.5987  0.0361
   82SAPS  H13X 7729   4.264   6.081   9.491 -0.4915  0.8083 -1.1148
   82SAPS  H13Y 7730   4.123   5.995   9.453 -1.1545 -1.0457  2.1121
   82SAPS  C314 7731   4.287   5.899   9.353  0.4452  0.7636 -0.4748
   82SAPS  H14X 7732   4.316   5.969   9.272  0.7689  2.1002  0.7498
   82SAPS  H14Y 7733   4.203   5.836   9.318  1.2011  0.0054 -0.9910
   82SAPS  C315 7734   4.408   5.797   9.370 -0.2460  0.4357 -0.6051
   82SAPS  H15X 7735   4.378   5.720   9.444  0.4688  2.4023  1.9273
   82SAPS  H15Y 7736   4.483   5.860   9.424 -0.9792  1.1929 -0.4595
   82SAPS  C316 7737   4.452   5.746   9.234 -0.0971 -0.4999 -0.5759
   82SAPS  H16X 7738   4.504   5.823   9.173 -1.6074  0.3315 -0.8368
   82SAPS  H16Y 7739   4.363   5.721   9.173 -0.8127 -1.5948  0.8683
   82SAPS  C317 7740   4.547   5.625   9.238  0.4115  0.3240  0.2758
   82SAPS  H17X 7741   4.495   5.544   9.293 -2.0461  2.6954  1.7105
   82SAPS  H17Y 7742   4.637   5.660   9.294  2.9007 -1.9534 -2.0037
   82SAPS  C318 7743   4.609   5.556   9.114 -0.3349  0.1069 -0.2332
   82SAPS  H18X 7744   4.672   5.623   9.051  2.2542 -2.7702 -0.9431
   82SAPS  H18Y 7745   4.525   5.528   9.047 -0.9549  1.6209 -0.1524
   82SAPS  H18Z 7746   4.669   5.469   9.147 -3.0060 -1.7253  0.0950
   83SAPS     N 7747   5.949   6.729  11.320 -0.8571 -0.2561 -0.1485
   83SAPS   HN1 7748   5.962   6.815  11.263  1.0561 -0.9079 -0.7705
   83SAPS   HN2 7749   6.046   6.693  11.333 -0.1971  1.7854  1.1554
   83SAPS   HN3 7750   5.887   6.667  11.264  0.7918 -1.4681 -0.7092
   83SAPS   C12 7751   5.887   6.765  11.445 -0.2175  0.4667 -0.2807
   83SAPS  H12A 7752   5.802   6.701  11.466  0.7814 -0.3888  1.3278
   83SAPS   C13 7753   5.969   6.771  11.570 -0.0732 -0.3392 -0.3522
   83SAPS  O13A 7754   6.096   6.753  11.563  0.4419 -0.0385 -0.1318
   83SAPS  O13B 7755   5.919   6.815  11.679  0.1153 -0.0042 -0.0994
   83SAPS   C11 7756   5.809   6.899  11.433  0.0212 -0.0354 -0.3033
   83SAPS  H11A 7757   5.891   6.975  11.425  0.9930 -0.5266  3.3718
   83SAPS  H11B 7758   5.754   6.910  11.529 -0.6352  2.1400 -0.8569
   83SAPS     P 7759   5.621   6.996  11.282 -0.1789 -0.3018  0.0668
   83SAPS   O13 7760   5.515   6.976  11.381 -0.8519  0.1455 -0.2479
   83SAPS   O14 7761   5.685   7.129  11.268 -0.2267 -0.5126 -0.3632
   83SAPS   O12 7762   5.731   6.887  11.311  0.3110 -0.2185  0.1021
   83SAPS   O11 7763   5.564   6.964  11.136  0.4409  0.4675 -0.0923
   83SAPS    C1 7764   5.587   6.841  11.073  0.4443 -0.7668  0.2184
   83SAPS    HA 7765   5.694   6.821  11.052  0.3095 -0.0439 -1.3208
   83SAPS    HB 7766   5.551   6.761  11.141 -3.3143  1.8095  1.5904
   83SAPS    C2 7767   5.510   6.844  10.934 -0.7770 -0.1230 -1.1412
   83SAPS    HS 7768   5.504   6.741  10.895 -0.0150  0.1275 -1.9480
   83SAPS   O21 7769   5.582   6.929  10.839  0.4220 -0.0297 -0.8059
   83SAPS   C21 7770   5.681   6.871  10.771  0.5997  0.0167  0.1820
   83SAPS   O22 7771   5.699   6.752  10.761 -0.5326 -0.3291  0.2241
   83SAPS   C22 7772   5.763   6.974  10.690  0.7777  0.1265 -0.0000
   83SAPS   H2R 7773   5.735   7.076  10.724  0.0407  0.2439 -0.9350
   83SAPS   H2S 7774   5.872   6.958  10.709  0.8404 -1.8826 -1.7153
   83SAPS    C3 7775   5.364   6.891  10.952 -0.2795  0.1773 -0.1090
   83SAPS    HX 7776   5.350   6.974  11.024 -2.8102  0.2008 -0.5476
   83SAPS    HY 7777   5.297   6.812  10.992 -0.5511 -1.0322 -2.7213
   83SAPS   O31 7778   5.298   6.926  10.826 -0.1211 -0.0685  0.0947
   83SAPS   C31 7779   5.308   7.051  10.785 -0.1206  0.0894 -0.0880
   83SAPS   O32 7780   5.357   7.145  10.838 -0.3754 -0.0336 -0.4504
   83SAPS   C32 7781   5.241   7.061  10.655  0.3678  0.4309  0.0710
   83SAPS   H2X 7782   5.315   7.084  10.576  0.1185 -4.7857 -2.0704
   83SAPS   H2Y 7783   5.169   7.147  10.662 -2.6513 -1.8594 -0.6385
   83SAPS   C23 7784   5.731   6.960  10.539 -0.4362  0.7750  1.1424
   83SAPS   H3R 7785   5.729   6.851  10.517 -0.4379  1.2059 -1.1610
   83SAPS   H3S 7786   5.820   7.003  10.488  0.3946 -1.8799  0.1918
   83SAPS   C24 7787   5.602   7.020  10.481  0.1172 -0.3023 -0.1362
   83SAPS   H4R 7788   5.519   6.967  10.533 -0.4346  0.4772 -0.1967
   83SAPS   H4S 7789   5.597   6.986  10.376  0.5019 -1.1987  0.1226
   83SAPS   C25 7790   5.583   7.169  10.489 -0.2821  0.4854 -0.2597
   83SAPS   H5R 7791   5.551   7.211  10.586 -1.8462  0.1519 -0.6014
   83SAPS   C26 7792   5.586   7.243  10.384 -0.3603  0.3293  0.1822
   83SAPS   H6R 7793   5.567   7.351  10.398  0.9178  0.8619 -1.7760
   83SAPS   C27 7794   5.615   7.200  10.242  1.4029  0.2595  0.4960
   83SAPS   H7R 7795   5.552   7.111  10.223  2.5936 -0.1781 -1.7432
   83SAPS   H7S 7796   5.724   7.186  10.224  1.2634 -1.4394  0.7990
   83SAPS   C28 7797   5.563   7.306  10.145  0.5299 -0.3541 -0.2527
   83SAPS   H8R 7798   5.546   7.399  10.200  2.8353 -0.3052  0.4926
   83SAPS   C29 7799   5.541   7.292  10.009 -0.5459  0.1521 -0.6216
   83SAPS   H9R 7800   5.492   7.368   9.947 -0.8730 -2.2674 -3.5860
   83SAPS  C210 7801   5.573   7.153   9.945 -0.0059 -0.8799  1.3145
   83SAPS  H10R 7802   5.476   7.103   9.923  0.8528 -1.3209 -1.9292
   83SAPS  H10S 7803   5.629   7.079  10.006  0.0204 -2.6625 -0.7578
   83SAPS  C211 7804   5.652   7.164   9.816  0.3150 -0.1149  1.0457
   83SAPS  H11R 7805   5.747   7.219   9.830  0.8538 -0.7154 -0.1319
   83SAPS  C212 7806   5.629   7.116   9.696 -0.4486 -0.3870  0.1588
   83SAPS  H12R 7807   5.699   7.140   9.616  0.5739 -0.6743  0.9483
   83SAPS  C213 7808   5.517   7.028   9.635 -0.8887 -0.6312 -0.2176
   83SAPS  H13R 7809   5.469   7.095   9.561 -0.9002 -0.6571 -0.2333
   83SAPS  H13S 7810   5.440   7.012   9.713 -1.0297 -1.5285 -0.5332
   83SAPS  C214 7811   5.537   6.889   9.580  0.3115  0.3067 -0.4567
   83SAPS  H14R 7812   5.532   6.809   9.655  0.7440  0.1459 -0.5954
   83SAPS  C215 7813   5.578   6.859   9.455 -0.4646 -1.0394 -0.0691
   83SAPS  H15R 7814   5.596   6.754   9.426  1.9451 -0.1102 -2.4015
   83SAPS  C216 7815   5.617   6.959   9.344 -0.1292  0.3055 -0.0024
   83SAPS  H16R 7816   5.711   7.012   9.367  1.0735 -1.8426  0.3027
   83SAPS  H16S 7817   5.530   7.028   9.349 -0.2493  0.0712  2.6410
   83SAPS  C217 7818   5.633   6.900   9.202 -0.4653 -0.9282  0.4145
   83SAPS  H17R 7819   5.708   6.819   9.211  2.1751  1.3633  0.4747
   83SAPS  H17S 7820   5.668   6.979   9.132 -0.8636 -1.9330 -0.9452
   83SAPS  C218 7821   5.506   6.832   9.152  0.3799  0.2296 -0.0586
   83SAPS  H18R 7822   5.423   6.905   9.162  0.9765  0.9063  0.0298
   83SAPS  H18S 7823   5.482   6.750   9.223  0.8817  1.1122  1.1715
   83SAPS  C219 7824   5.517   6.776   9.011 -0.8497  0.5696  0.5063
   83SAPS  H19R 7825   5.581   6.835   8.942 -1.9708  1.3768  0.1256
   83SAPS  H19S 7826   5.417   6.780   8.964 -1.1689  3.1892  1.2373
   83SAPS  C220 7827   5.584   6.636   9.006 -0.4267  0.3340 -0.5344
   83SAPS  H20R 7828   5.693   6.640   9.026 -0.4854  1.2142 -0.3635
   83SAPS  H20S 7829   5.578   6.574   8.913  0.2963 -1.1071  0.3348
   83SAPS  H20T 7830   5.523   6.573   9.074 -1.7949  1.9709 -0.2000
   83SAPS   C33 7831   5.159   6.941  10.604  0.1832  0.4175 -0.0237
   83SAPS   H3X 7832   5.076   6.986  10.546 -0.8852  1.0578  1.9131
   83SAPS   H3Y 7833   5.118   6.887  10.693  0.2610  0.0624 -0.2007
   83SAPS   C34 7834   5.231   6.838  10.518 -0.0662  0.3471  0.6038
   83SAPS   H4X 7835   5.149   6.763  10.508  0.3325  0.1530 -1.7072
   83SAPS   H4Y 7836   5.315   6.789  10.571  0.9498  1.1449 -0.2546
   83SAPS   C35 7837   5.263   6.888  10.381 -0.0932  0.3695 -0.6091
   83SAPS   H5X 7838   5.354   6.951  10.393  0.4948 -0.1823 -1.9861
   83SAPS   H5Y 7839   5.179   6.946  10.336 -0.4571 -0.5967 -1.2023
   83SAPS   C36 7840   5.309   6.786  10.280  0.1286  0.1998  0.1460
   83SAPS   H6X 7841   5.243   6.697  10.270  1.3286 -0.5794 -1.4110
   83SAPS   H6Y 7842   5.407   6.746  10.312 -0.6855 -0.3710  2.0466
   83SAPS   C37 7843   5.304   6.850  10.136  0.1077  0.2646  0.0891
   83SAPS   H7X 7844   5.379   6.930  10.127  0.4093  0.3049  2.2853
   83SAPS   H7Y 7845   5.201   6.890  10.127 -0.5878 -1.2452  0.9114
   83SAPS   C38 7846   5.335   6.726  10.046  0.0479  0.0018 -0.2744
   83SAPS   H8X 7847   5.250   6.655  10.060 -0.1530  0.2794 -0.0918
   83SAPS   H8Y 7848   5.426   6.677  10.086 -0.6944 -2.4402 -1.3761
   83SAPS   C39 7849   5.337   6.763   9.897  0.1386  0.9632 -0.1409
   83SAPS   H9X 7850   5.426   6.828   9.889  1.5334 -0.5852  1.6324
   83SAPS   H9Y 7851   5.254   6.833   9.872 -1.3130  0.4275  2.6840
   83SAPS  C310 7852   5.332   6.635   9.809  0.3513 -0.3670 -0.3103
   83SAPS  H10X 7853   5.340   6.669   9.703 -1.5411  0.5730 -0.1928
   83SAPS  H10Y 7854   5.245   6.571   9.836 -0.4826  0.4111 -1.0544
   83SAPS  C311 7855   5.466   6.556   9.831  0.0004 -0.5952 -0.0661
   83SAPS  H11X 7856   5.466   6.515   9.934 -1.4434 -0.3525  0.0498
   83SAPS  H11Y 7857   5.544   6.635   9.829  1.0397 -1.4942  1.8559
   83SAPS  C312 7858   5.484   6.453   9.715 -0.2015 -0.3071  0.3190
   83SAPS  H12X 7859   5.479   6.507   9.618  1.8873 -1.9651 -0.8008
   83SAPS  H12Y 7860   5.400   6.381   9.720 -1.2051  0.9083  1.3517
   83SAPS  C313 7861   5.616   6.379   9.736 -0.1029  0.0822  0.3611
   83SAPS  H13X 7862   5.638   6.382   9.845 -0.5739 -0.4161  0.4734
   83SAPS  H13Y 7863   5.683   6.447   9.680  0.3926 -0.9960 -0.3867
   83SAPS  C314 7864   5.615   6.237   9.686  0.1578 -0.3497 -0.2337
   83SAPS  H14X 7865   5.585   6.235   9.579  1.4325  1.9825 -0.6919
   83SAPS  H14Y 7866   5.546   6.166   9.738  0.4197 -0.2812  0.2085
   83SAPS  C315 7867   5.755   6.176   9.693  1.1642  0.1341 -0.7352
   83SAPS  H15X 7868   5.787   6.178   9.799  0.8643 -0.7869 -0.6132
   83SAPS  H15Y 7869   5.817   6.249   9.638 -0.4078  0.0878 -2.6907
   83SAPS  C316 7870   5.762   6.028   9.644  0.2985 -0.0330 -0.0552
   83SAPS  H16X 7871   5.700   5.964   9.710  0.7748 -0.6162 -0.1550
   83SAPS  H16Y 7872   5.868   5.997   9.659  0.2656  0.7487  2.0913
   83SAPS  C317 7873   5.737   6.011   9.491 -0.0222 -0.0040  0.1940
   83SAPS  H17X 7874   5.630   6.029   9.468  0.0862 -1.4941 -1.7182
   83SAPS  H17Y 7875   5.745   5.902   9.470 -1.9017  0.0845 -1.2230
   83SAPS  C318 7876   5.828   6.091   9.399  0.3910  0.0471 -0.3003
   83SAPS  H18X 7877   5.933   6.063   9.424  0.2226  0.7993  1.3712
   83SAPS  H18Y 7878   5.817   6.201   9.409  0.2662 -0.1277  2.0291
   83SAPS  H18Z 7879   5.799   6.067   9.295 -3.5832 -0.0296  0.6644
   84SAPS     N 7880   0.565   6.063  11.537 -0.3601  0.1770 -0.3498
   84SAPS   HN1 7881   0.561   6.137  11.610  0.3439  0.7520 -0.8822
   84SAPS   HN2 7882   0.477   6.065  11.482 -0.5011 -1.6877 -0.2560
   84SAPS   HN3 7883   0.567   5.972  11.587 -0.6406  1.3944  2.0170
   84SAPS   C12 7884   0.684   6.064  11.450  0.2372  0.4015 -0.4405
   84SAPS  H12A 7885   0.670   6.156  11.395 -0.9977  0.8503  0.5829
   84SAPS   C13 7886   0.820   6.084  11.524  0.2763  0.1087 -0.1085
   84SAPS  O13A 7887   0.829   6.059  11.644 -0.0022  0.0794  0.1871
   84SAPS  O13B 7888   0.917   6.109  11.450  0.2023 -0.2679  0.6067
   84SAPS   C11 7889   0.703   5.931  11.372 -0.2665  0.8248  0.6147
   84SAPS  H11A 7890   0.723   5.851  11.447 -0.4814 -3.1798 -3.2013
   84SAPS  H11B 7891   0.794   5.938  11.310 -0.6644 -1.4030 -0.3300
   84SAPS     P 7892   0.564   5.950  11.151 -0.3180  0.6322 -0.1177
   84SAPS   O13 7893   0.420   5.960  11.128 -0.1332  0.1123 -0.5658
   84SAPS   O14 7894   0.642   6.069  11.130  0.2566 -0.3152  0.3993
   84SAPS   O12 7895   0.590   5.897  11.296 -0.0888 -0.0440  0.7008
   84SAPS   O11 7896   0.612   5.826  11.057  0.0973  0.2924  0.4871
   84SAPS    C1 7897   0.738   5.832  10.992 -0.0242 -0.3441  0.8651
   84SAPS    HA 7898   0.820   5.856  11.063  0.1278 -1.2890  1.0240
   84SAPS    HB 7899   0.762   5.732  10.950  0.3369  0.5197 -1.0914
   84SAPS    C2 7900   0.735   5.930  10.873  0.1523  0.4119  0.2892
   84SAPS    HS 7901   0.732   6.032  10.917  0.6572  1.2430 -1.5187
   84SAPS   O21 7902   0.612   5.903  10.806  0.6169  0.3059 -0.3842
   84SAPS   C21 7903   0.556   6.001  10.741 -0.8072 -0.2115  0.1863
   84SAPS   O22 7904   0.566   6.124  10.751 -0.8154 -0.1386 -0.6010
   84SAPS   C22 7905   0.440   5.954  10.658 -0.3377  0.4376 -0.7396
   84SAPS   H2R 7906   0.435   5.845  10.638 -1.6012  0.4477 -0.5481
   84SAPS   H2S 7907   0.349   5.980  10.716  1.0836 -0.2917  2.0216
   84SAPS    C3 7908   0.853   5.892  10.780  0.1376 -0.4291 -0.2482
   84SAPS    HX 7909   0.836   5.796  10.726  2.7164 -2.2352  1.8946
   84SAPS    HY 7910   0.945   5.871  10.839  0.6412  1.5869 -0.2536
   84SAPS   O31 7911   0.866   5.999  10.682  0.5094 -0.3781  0.5121
   84SAPS   C31 7912   0.942   6.097  10.708  0.4176  0.4261  0.3701
   84SAPS   O32 7913   0.997   6.112  10.818 -0.3621 -0.3353  0.4119
   84SAPS   C32 7914   0.978   6.177  10.584 -0.1163 -0.7126 -0.2657
   84SAPS   H2X 7915   0.994   6.101  10.505 -1.4111 -1.1256 -0.1500
   84SAPS   H2Y 7916   1.065   6.242  10.610 -1.3132  0.1320  1.9160
   84SAPS   C23 7917   0.464   6.015  10.520 -0.0638 -0.1168  1.1082
   84SAPS   H3R 7918   0.571   5.991  10.504  0.2400  1.8027 -0.1287
   84SAPS   H3S 7919   0.465   6.126  10.528  2.3462 -0.0251  0.4855
   84SAPS   C24 7920   0.402   5.949  10.400 -0.4238 -0.2966 -0.0887
   84SAPS   H4R 7921   0.424   5.840  10.410  3.5449  0.4404  1.2247
   84SAPS   H4S 7922   0.459   5.977  10.309 -1.7186 -0.4528 -0.9766
   84SAPS   C25 7923   0.256   5.974  10.391 -0.3559  0.3205  0.7191
   84SAPS   H5R 7924   0.202   5.956  10.485 -0.9401 -0.2028  0.2902
   84SAPS   C26 7925   0.187   6.014  10.282  0.2449  1.0779  0.1693
   84SAPS   H6R 7926   0.080   6.032  10.300 -0.0847  1.5370 -2.0175
   84SAPS   C27 7927   0.240   6.043  10.137  0.3015  0.7489 -0.4634
   84SAPS   H7R 7928   0.346   6.008  10.130  0.0537 -0.8592  2.3511
   84SAPS   H7S 7929   0.251   6.153  10.129  1.2106  0.7879  0.8920
   84SAPS   C28 7930   0.156   5.995  10.020  0.6570  0.0226  0.2297
   84SAPS   H8R 7931   0.059   5.952  10.049  0.6596 -0.7661 -0.8692
   84SAPS   C29 7932   0.180   6.023   9.890  0.0876  0.8247  0.0847
   84SAPS   H9R 7933   0.121   5.979   9.808  0.2120  0.0518  0.4038
   84SAPS  C210 7934   0.305   6.093   9.840 -0.0672  0.6736  0.2620
   84SAPS  H10R 7935   0.371   6.009   9.810  0.2959  1.6681 -1.9391
   84SAPS  H10S 7936   0.360   6.147   9.920  0.7986 -2.3718  1.9126
   84SAPS  C211 7937   0.276   6.179   9.721  0.4539  0.2205 -0.1142
   84SAPS  H11R 7938   0.219   6.269   9.750 -0.4178 -1.3390  3.6335
   84SAPS  C212 7939   0.314   6.159   9.591 -0.3721  0.3354 -0.3621
   84SAPS  H12R 7940   0.281   6.226   9.511 -1.4272 -0.0945 -0.2939
   84SAPS  C213 7941   0.391   6.041   9.527  0.2059 -0.0939 -0.7597
   84SAPS  H13R 7942   0.483   6.023   9.585  1.1841  0.9521 -1.9410
   84SAPS  H13S 7943   0.439   6.057   9.428  1.6605  0.3061 -0.0126
   84SAPS  C214 7944   0.314   5.911   9.520  0.0676 -0.1097  0.9236
   84SAPS  H14R 7945   0.254   5.899   9.612 -0.7178  3.2843  0.9835
   84SAPS  C215 7946   0.284   5.832   9.412 -0.2971  0.6771 -0.3789
   84SAPS  H15R 7947   0.223   5.741   9.421 -2.6454  2.0924 -1.1344
   84SAPS  C216 7948   0.341   5.857   9.273 -0.1493 -1.4296  0.2095
   84SAPS  H16R 7949   0.444   5.897   9.279 -0.8980  0.9412 -1.4318
   84SAPS  H16S 7950   0.281   5.932   9.216 -0.8814 -2.7235 -0.7855
   84SAPS  C217 7951   0.343   5.731   9.185 -0.3620 -0.3530  0.0431
   84SAPS  H17R 7952   0.239   5.693   9.175 -0.4256 -0.3448  0.6371
   84SAPS  H17S 7953   0.400   5.644   9.225  1.7957  0.2067 -1.6114
   84SAPS  C218 7954   0.403   5.750   9.050 -0.4054  0.4516  0.3079
   84SAPS  H18R 7955   0.402   5.650   9.001 -0.0624  0.2013  0.8026
   84SAPS  H18S 7956   0.511   5.770   9.066 -0.6352  1.0167  1.2125
   84SAPS  C219 7957   0.335   5.845   8.955 -0.4665  0.4219  0.0209
   84SAPS  H19R 7958   0.387   5.939   8.982  0.8513 -1.0522  3.0775
   84SAPS  H19S 7959   0.225   5.855   8.966 -0.5024 -0.4059  0.4774
   84SAPS  C220 7960   0.356   5.815   8.804 -0.0194  0.1029 -0.3273
   84SAPS  H20R 7961   0.332   5.908   8.748  1.2389  0.2224 -0.6871
   84SAPS  H20S 7962   0.309   5.721   8.768 -2.1128  0.6951  0.7035
   84SAPS  H20T 7963   0.466   5.808   8.790 -0.1883 -1.6780 -0.9794
   84SAPS   C33 7964   0.877   6.286  10.544 -0.6304  0.1793 -0.5357
   84SAPS   H3X 7965   0.923   6.353  10.468 -3.8174  2.7524 -0.3766
   84SAPS   H3Y 7966   0.866   6.356  10.629 -3.8140  3.3448 -3.2037
   84SAPS   C34 7967   0.750   6.229  10.483 -0.1259 -0.3078 -0.4633
   84SAPS   H4X 7968   0.688   6.314  10.446 -0.1519 -0.5732 -1.0564
   84SAPS   H4Y 7969   0.698   6.174  10.564  3.0183 -0.6840  1.4642
   84SAPS   C35 7970   0.771   6.144  10.358 -0.1459 -0.0568 -0.5456
   84SAPS   H5X 7971   0.672   6.125  10.310  0.4502 -0.1038 -1.7974
   84SAPS   H5Y 7972   0.816   6.050  10.396 -2.0498  0.3399  3.1357
   84SAPS   C36 7973   0.858   6.199  10.247 -0.3819  0.0295  0.5304
   84SAPS   H6X 7974   0.966   6.201  10.271 -0.7827 -0.4391  2.5230
   84SAPS   H6Y 7975   0.829   6.304  10.224  3.5926  1.2081  0.1913
   84SAPS   C37 7976   0.834   6.123  10.114 -0.6477  0.6197  0.1367
   84SAPS   H7X 7977   0.728   6.101  10.089 -0.1375  1.1053 -2.8109
   84SAPS   H7Y 7978   0.878   6.024  10.140 -1.4544  0.1489 -0.2570
   84SAPS   C38 7979   0.904   6.172   9.980  0.1643  0.2719  0.0377
   84SAPS   H8X 7980   0.888   6.090   9.907 -0.1336  1.3953 -1.1914
   84SAPS   H8Y 7981   1.015   6.177   9.986  0.3670 -0.6752 -1.9632
   84SAPS   C39 7982   0.846   6.300   9.923 -0.4438  0.2035 -0.7874
   84SAPS   H9X 7983   0.899   6.381   9.976 -0.9608 -0.8989  1.5587
   84SAPS   H9Y 7984   0.737   6.305   9.941 -0.5349 -0.1921 -1.2041
   84SAPS  C310 7985   0.858   6.314   9.768 -0.1153 -0.4754 -0.7628
   84SAPS  H10X 7986   0.959   6.343   9.732 -0.5923  0.5855 -1.2839
   84SAPS  H10Y 7987   0.801   6.406   9.746 -1.3355 -1.2186 -0.8085
   84SAPS  C311 7988   0.794   6.204   9.691  0.4080  0.6566  0.0742
   84SAPS  H11X 7989   0.719   6.155   9.756 -0.8057 -0.1982 -1.8703
   84SAPS  H11Y 7990   0.866   6.122   9.672  1.4653  1.7563 -0.8255
   84SAPS  C312 7991   0.729   6.251   9.562 -0.1902 -0.0134 -0.3838
   84SAPS  H12X 7992   0.661   6.336   9.582  1.4694  0.7170  2.9452
   84SAPS  H12Y 7993   0.672   6.164   9.521  0.9033 -1.3173  0.7586
   84SAPS  C313 7994   0.827   6.293   9.451  0.2775  0.2951  1.4633
   84SAPS  H13X 7995   0.869   6.200   9.407  1.1553  1.5549 -0.4373
   84SAPS  H13Y 7996   0.902   6.362   9.493  0.2744  2.1453 -1.3679
   84SAPS  C314 7997   0.767   6.359   9.321 -0.4222 -0.0887 -0.6943
   84SAPS  H14X 7998   0.852   6.380   9.254 -0.7702 -2.1141 -1.8352
   84SAPS  H14Y 7999   0.709   6.450   9.349 -2.7539 -1.2727 -1.3832
   84SAPS  C315 8000   0.661   6.279   9.233  0.8522  0.3485 -0.5306
   84SAPS  H15X 8001   0.624   6.344   9.151 -2.4030 -0.0286  0.5081
   84SAPS  H15Y 8002   0.588   6.243   9.309  2.6593  0.2950  1.2705
   84SAPS  C316 8003   0.725   6.158   9.156 -0.3012  0.1265  0.4291
   84SAPS  H16X 8004   0.759   6.067   9.210  0.5665 -0.2032 -0.6337
   84SAPS  H16Y 8005   0.815   6.197   9.104 -0.0698  0.3740  1.0121
   84SAPS  C317 8006   0.636   6.122   9.042  0.4409  0.2974 -0.9443
   84SAPS  H17X 8007   0.615   6.206   8.973 -0.1510 -0.3543 -1.5805
   84SAPS  H17Y 8008   0.540   6.079   9.078 -0.0315  0.9430 -1.4235
   84SAPS  C318 8009   0.703   6.021   8.955 -0.5333  0.1073 -0.0184
   84SAPS  H18X 8010   0.737   5.926   9.001  1.4206  0.4010 -0.7557
   84SAPS  H18Y 8011   0.794   6.070   8.914 -0.8363  1.3062  0.6958
   84SAPS  H18Z 8012   0.629   5.996   8.875  0.9998  0.6815 -1.6873
   85SAPS     N 8013   3.903   1.164  11.055 -0.3160 -0.4657  0.5433
   85SAPS   HN1 8014   3.935   1.132  10.961 -3.3565 -2.0318 -0.1191
   85SAPS   HN2 8015   3.864   1.261  11.050  1.7023  0.3338 -1.6604
   85SAPS   HN3 8016   3.983   1.182  11.118  0.2351 -0.3379 -0.1833
   85SAPS   C12 8017   3.812   1.077  11.134 -0.5605  0.4163 -0.5825
   85SAPS  H12A 8018   3.853   0.977  11.136 -1.0741  0.2149  0.5014
   85SAPS   C13 8019   3.801   1.109  11.287 -0.2368  1.0179 -0.2559
   85SAPS  O13A 8020   3.838   1.217  11.329 -0.1578 -0.0462  0.2408
   85SAPS  O13B 8021   3.767   1.014  11.364 -0.0593 -0.1688 -0.4054
   85SAPS   C11 8022   3.675   1.081  11.073  0.2518  1.2993 -0.3349
   85SAPS  H11A 8023   3.634   1.182  11.058  0.6893  1.3041 -1.6255
   85SAPS  H11B 8024   3.612   1.033  11.151 -0.7958  1.3322 -1.1593
   85SAPS     P 8025   3.595   0.899  10.908 -0.3471 -0.7187  0.2591
   85SAPS   O13 8026   3.660   0.787  10.981  0.3560 -0.4579 -0.1440
   85SAPS   O14 8027   3.454   0.924  10.945  0.3350 -0.6552 -0.1485
   85SAPS   O12 8028   3.679   1.024  10.947  0.1503  0.5591 -0.2906
   85SAPS   O11 8029   3.604   0.877  10.747 -0.2403 -0.0192 -0.4257
   85SAPS    C1 8030   3.706   0.947  10.669 -0.2239 -0.3829  0.4712
   85SAPS    HA 8031   3.805   0.940  10.719 -1.1809  0.4492  2.6061
   85SAPS    HB 8032   3.726   0.898  10.571  0.1928 -2.2169  1.4413
   85SAPS    C2 8033   3.666   1.093  10.634  0.3158 -0.2178 -0.3532
   85SAPS    HS 8034   3.626   1.138  10.728 -0.1231 -2.1121  0.4209
   85SAPS   O21 8035   3.566   1.088  10.530  0.1446 -0.1427  0.3853
   85SAPS   C21 8036   3.493   1.209  10.518  0.9807  0.0688  0.0544
   85SAPS   O22 8037   3.508   1.299  10.600 -0.3740  0.2772 -0.2848
   85SAPS   C22 8038   3.421   1.212  10.388  0.3223  0.1222 -0.4598
   85SAPS   H2R 8039   3.479   1.230  10.295 -0.3627  4.0906 -0.2861
   85SAPS   H2S 8040   3.379   1.109  10.377  0.7692 -0.3609  1.7267
   85SAPS    C3 8041   3.793   1.171  10.588 -0.1871 -0.1084  0.5614
   85SAPS    HX 8042   3.864   1.193  10.670  0.5756 -1.5575  0.3336
   85SAPS    HY 8043   3.752   1.268  10.554  0.4363 -0.9864 -3.0907
   85SAPS   O31 8044   3.861   1.103  10.485  0.1468  0.3519 -0.0150
   85SAPS   C31 8045   3.946   1.184  10.409  0.7561  0.8135 -0.3801
   85SAPS   O32 8046   3.980   1.295  10.432  0.1537 -0.8379 -0.3205
   85SAPS   C32 8047   3.972   1.121  10.268  0.0276  0.2359 -0.1161
   85SAPS   H2X 8048   3.885   1.063  10.233 -0.2556  1.4173 -1.4955
   85SAPS   H2Y 8049   4.054   1.051  10.294  0.1328  0.5518  0.4305
   85SAPS   C23 8050   3.304   1.315  10.395  0.7607  0.0520  0.5122
   85SAPS   H3R 8051   3.338   1.420  10.383 -0.5414  0.6551  1.8414
   85SAPS   H3S 8052   3.252   1.306  10.493 -0.0891 -1.8939 -0.0744
   85SAPS   C24 8053   3.206   1.282  10.279 -0.4382  0.1536 -0.1569
   85SAPS   H4R 8054   3.150   1.190  10.307 -2.4160  1.1662 -0.5968
   85SAPS   H4S 8055   3.273   1.259  10.194 -0.8106  1.7155 -0.9085
   85SAPS   C25 8056   3.117   1.396  10.242  0.0401  0.8409 -0.3658
   85SAPS   H5R 8057   3.070   1.441  10.330  1.3813  1.9565 -0.1798
   85SAPS   C26 8058   3.075   1.429  10.121  0.2713  0.4704 -0.2519
   85SAPS   H6R 8059   3.000   1.510  10.114 -0.0852  0.1802  0.1349
   85SAPS   C27 8060   3.120   1.369   9.993  0.0690 -0.0887  0.5454
   85SAPS   H7R 8061   3.098   1.260   9.994  0.3660 -0.1689 -0.5323
   85SAPS   H7S 8062   3.228   1.384   9.972 -0.0214 -0.2217 -0.0334
   85SAPS   C28 8063   3.038   1.416   9.875  0.0431  0.1352 -0.7369
   85SAPS   H8R 8064   2.932   1.389   9.882  0.2866 -1.5275 -2.6483
   85SAPS   C29 8065   3.087   1.458   9.758 -1.1046  0.7533 -0.0308
   85SAPS   H9R 8066   3.012   1.492   9.685 -4.3182 -1.1371  2.1243
   85SAPS  C210 8067   3.236   1.472   9.726 -0.5388  0.1176 -0.1014
   85SAPS  H10R 8068   3.289   1.508   9.816 -0.7756  1.2393 -0.3993
   85SAPS  H10S 8069   3.264   1.557   9.660  1.9217  0.8659  1.7798
   85SAPS  C211 8070   3.303   1.342   9.678 -0.2029  0.2912  0.0123
   85SAPS  H11R 8071   3.355   1.289   9.759  0.1655 -0.1031 -0.4780
   85SAPS  C212 8072   3.303   1.292   9.554 -0.2790 -0.8564 -0.2705
   85SAPS  H12R 8073   3.345   1.190   9.546 -1.7687 -1.5343  0.1535
   85SAPS  C213 8074   3.244   1.369   9.437 -0.1499 -0.1918 -0.2506
   85SAPS  H13R 8075   3.160   1.436   9.467  0.7417  0.1705  1.5861
   85SAPS  H13S 8076   3.200   1.287   9.376 -0.5272  0.4996 -0.9403
   85SAPS  C214 8077   3.345   1.443   9.357 -0.1451  0.8618 -0.6429
   85SAPS  H14R 8078   3.383   1.533   9.406 -0.4201  0.1602  0.9153
   85SAPS  C215 8079   3.398   1.424   9.232  0.0925  0.2800 -0.2216
   85SAPS  H15R 8080   3.471   1.499   9.200  0.3090  0.3348  0.3817
   85SAPS  C216 8081   3.379   1.305   9.144  0.5791  0.4908 -0.5006
   85SAPS  H16R 8082   3.387   1.333   9.037  2.9693 -4.5024 -1.9638
   85SAPS  H16S 8083   3.273   1.274   9.152  0.2042  1.5068 -1.2591
   85SAPS  C217 8084   3.483   1.185   9.186 -0.0497 -0.0696  0.2088
   85SAPS  H17R 8085   3.464   1.098   9.120 -2.4550  0.2694  0.3888
   85SAPS  H17S 8086   3.474   1.166   9.295  1.8949 -0.8880  0.2721
   85SAPS  C218 8087   3.630   1.234   9.157  0.9889  0.2270  0.4266
   85SAPS  H18R 8088   3.692   1.142   9.154  0.9666  0.1955 -3.4418
   85SAPS  H18S 8089   3.667   1.304   9.235  0.8553  0.7517  0.0193
   85SAPS  C219 8090   3.640   1.296   9.013  0.0695  0.1666 -0.2893
   85SAPS  H19R 8091   3.750   1.311   9.008 -0.3052  3.2860 -1.2107
   85SAPS  H19S 8092   3.592   1.395   9.005 -2.9378 -1.0238  1.3015
   85SAPS  C220 8093   3.597   1.209   8.900 -0.8075 -0.5018 -0.1268
   85SAPS  H20R 8094   3.639   1.107   8.913 -3.2291 -1.6010 -0.4025
   85SAPS  H20S 8095   3.642   1.248   8.806 -1.8397 -0.5848 -0.6696
   85SAPS  H20T 8096   3.488   1.208   8.876 -1.2267  0.2501  1.6238
   85SAPS   C33 8097   4.024   1.223  10.163 -0.5933 -0.2068 -0.0387
   85SAPS   H3X 8098   4.065   1.318  10.204 -1.0209 -0.4122  0.9021
   85SAPS   H3Y 8099   3.935   1.243  10.099 -0.5433 -1.7181 -0.6224
   85SAPS   C34 8100   4.134   1.166  10.073 -0.4987 -0.0788 -0.4527
   85SAPS   H4X 8101   4.090   1.075  10.025  1.0066 -1.1919  0.1870
   85SAPS   H4Y 8102   4.210   1.115  10.136 -2.0420  1.4586  2.8746
   85SAPS   C35 8103   4.176   1.254   9.959  0.5065  0.2425  0.2120
   85SAPS   H5X 8104   4.226   1.343  10.002  1.2561  0.2133 -0.5880
   85SAPS   H5Y 8105   4.094   1.293   9.895  0.9684  1.2100  0.1941
   85SAPS   C36 8106   4.273   1.191   9.867  0.2833 -0.2799  0.4932
   85SAPS   H6X 8107   4.234   1.087   9.864  1.2417 -0.6579  0.5845
   85SAPS   H6Y 8108   4.371   1.185   9.919  0.8636  2.0089 -0.2315
   85SAPS   C37 8109   4.301   1.242   9.725  0.3207  0.6275  0.7837
   85SAPS   H7X 8110   4.347   1.343   9.726  0.6286  0.4864  1.0547
   85SAPS   H7Y 8111   4.204   1.251   9.671 -0.8144  0.3608  2.6690
   85SAPS   C38 8112   4.385   1.143   9.653  0.9725 -0.2563 -0.0627
   85SAPS   H8X 8113   4.340   1.048   9.617 -0.2376  0.4812 -0.5335
   85SAPS   H8Y 8114   4.460   1.113   9.729  0.6959  0.0827  0.3535
   85SAPS   C39 8115   4.472   1.184   9.536 -0.1751  0.1142 -0.4174
   85SAPS   H9X 8116   4.537   1.097   9.514 -0.8035 -0.5827  0.4114
   85SAPS   H9Y 8117   4.537   1.273   9.548 -2.1259  1.4336  0.9344
   85SAPS  C310 8118   4.383   1.204   9.423 -0.0523  0.1011  0.0958
   85SAPS  H10X 8119   4.334   1.303   9.435 -1.6662 -0.7116  0.4333
   85SAPS  H10Y 8120   4.291   1.143   9.427  0.4714 -0.7200 -0.0866
   85SAPS  C311 8121   4.457   1.191   9.286  0.3181  0.3677  0.2845
   85SAPS  H11X 8122   4.497   1.089   9.270 -0.1880  0.1368  0.4927
   85SAPS  H11Y 8123   4.544   1.260   9.279  1.3263 -0.9954 -1.6284
   85SAPS  C312 8124   4.358   1.230   9.179  0.2685  0.4198 -0.2762
   85SAPS  H12X 8125   4.352   1.341   9.175 -0.7886  0.3368 -2.8086
   85SAPS  H12Y 8126   4.254   1.195   9.197  0.7693 -0.1381  1.8598
   85SAPS  C313 8127   4.415   1.180   9.044  0.2220  0.1616  0.4435
   85SAPS  H13X 8128   4.521   1.209   9.033 -0.1352  1.1269 -0.6108
   85SAPS  H13Y 8129   4.357   1.229   8.963 -2.2129  0.9472  2.5269
   85SAPS  C314 8130   4.387   1.026   9.024 -0.4088  0.1362  0.0608
   85SAPS  H14X 8131   4.279   0.997   9.029  0.3166 -3.2040 -0.9880
   85SAPS  H14Y 8132   4.436   0.965   9.103  2.1331 -0.1720 -1.6496
   85SAPS  C315 8133   4.428   0.955   8.892 -1.0233  1.0089  0.1150
   85SAPS  H15X 8134   4.370   1.000   8.808 -0.1428  1.5036 -0.2319
   85SAPS  H15Y 8135   4.400   0.848   8.892  0.8044  0.5164  0.1493
   85SAPS  C316 8136   4.580   0.982   8.862  0.3908  0.2968 -0.0683
   85SAPS  H16X 8137   4.638   0.951   8.951 -1.4408  0.3142  1.1751
   85SAPS  H16Y 8138   4.588   1.093   8.855  1.1444  0.1634 -1.6085
   85SAPS  C317 8139   4.628   0.910   8.739  0.5212 -0.5529 -0.8835
   85SAPS  H17X 8140   4.566   0.930   8.649  0.6976  0.7669 -0.7312
   85SAPS  H17Y 8141   4.612   0.801   8.752 -2.0753 -0.1795 -0.3756
   85SAPS  C318 8142   4.773   0.946   8.700  0.2721 -0.0689  0.6950
   85SAPS  H18X 8143   4.776   1.055   8.682 -2.5030  0.1015  0.9724
   85SAPS  H18Y 8144   4.791   0.909   8.596  0.2895  0.2960  0.5678
   85SAPS  H18Z 8145   4.848   0.910   8.774  0.0357 -0.7073  0.6291
   86SAPS     N 8146   5.500   3.247  11.008 -0.7637 -0.7373  0.3341
   86SAPS   HN1 8147   5.515   3.145  11.020  3.5415 -0.0266  3.3782
   86SAPS   HN2 8148   5.460   3.280  11.098 -0.0698  0.0515  0.3631
   86SAPS   HN3 8149   5.437   3.272  10.929 -1.7438 -0.8565  1.0506
   86SAPS   C12 8150   5.636   3.321  11.001 -0.3278  0.2695  0.3238
   86SAPS  H12A 8151   5.616   3.407  10.940 -1.9705  0.3154  0.8568
   86SAPS   C13 8152   5.680   3.370  11.138  0.4300 -0.2793  0.5689
   86SAPS  O13A 8153   5.614   3.347  11.241  0.2745 -0.4988 -0.4904
   86SAPS  O13B 8154   5.777   3.447  11.144  0.0469  0.0894 -0.2925
   86SAPS   C11 8155   5.734   3.218  10.938  0.2340 -0.0427  0.5771
   86SAPS  H11A 8156   5.826   3.277  10.921 -0.9090  1.8049  0.4956
   86SAPS  H11B 8157   5.691   3.201  10.837 -1.5342 -1.4617  1.5103
   86SAPS     P 8158   5.889   3.013  10.994  0.3400 -0.1818  0.2695
   86SAPS   O13 8159   6.008   3.099  11.019  0.4434  0.0693  0.1090
   86SAPS   O14 8160   5.882   2.889  11.070  0.1422  0.1794  0.1048
   86SAPS   O12 8161   5.758   3.094  11.014 -0.0238 -0.1248 -0.0689
   86SAPS   O11 8162   5.890   2.974  10.838  0.2352 -0.7914 -0.3652
   86SAPS    C1 8163   5.770   2.948  10.770  0.5621 -0.4169 -0.7190
   86SAPS    HA 8164   5.685   2.918  10.835  1.9521 -1.1656  0.8182
   86SAPS    HB 8165   5.750   3.030  10.698  3.5736 -0.5338 -1.8524
   86SAPS    C2 8166   5.800   2.826  10.683  0.0924  0.2274  0.1380
   86SAPS    HS 8167   5.838   2.745  10.750  2.3678 -0.2047 -1.5594
   86SAPS   O21 8168   5.900   2.864  10.582  0.3596  0.1700  0.2747
   86SAPS   C21 8169   6.025   2.815  10.596 -0.1585  0.1271  0.3265
   86SAPS   O22 8170   6.065   2.761  10.694 -0.4901  0.3808 -0.4233
   86SAPS   C22 8171   6.109   2.845  10.473  0.0327  0.9977 -0.2868
   86SAPS   H2R 8172   6.046   2.902  10.401 -0.4448  1.0289  0.1490
   86SAPS   H2S 8173   6.193   2.903  10.515  0.2999  0.1215  0.4347
   86SAPS    C3 8174   5.680   2.761  10.615  0.6784  0.5303 -0.2808
   86SAPS    HX 8175   5.654   2.838  10.539  1.1758  1.5545  0.5692
   86SAPS    HY 8176   5.601   2.757  10.693  1.5337 -1.5935  0.5665
   86SAPS   O31 8177   5.696   2.628  10.575  0.4378  0.3959  0.1444
   86SAPS   C31 8178   5.716   2.601  10.452 -0.0382 -0.1337  0.6259
   86SAPS   O32 8179   5.686   2.679  10.363  0.4761 -0.2037  0.1741
   86SAPS   C32 8180   5.754   2.461  10.423  0.3524 -0.5689 -0.0379
   86SAPS   H2X 8181   5.667   2.403  10.463 -0.3422 -0.8242 -1.8395
   86SAPS   H2Y 8182   5.843   2.444  10.488 -1.0866  0.9587  2.4928
   86SAPS   C23 8183   6.145   2.704  10.410  0.0381 -0.5144 -0.0884
   86SAPS   H3R 8184   6.058   2.644  10.378  0.9700 -2.8482  1.4223
   86SAPS   H3S 8185   6.194   2.635  10.482 -0.4408 -0.9819 -0.2076
   86SAPS   C24 8186   6.244   2.720  10.289  0.1989 -0.0738  0.1209
   86SAPS   H4R 8187   6.315   2.805  10.305  0.7794 -0.2762 -1.2459
   86SAPS   H4S 8188   6.188   2.758  10.201  0.7224 -0.8087 -0.5450
   86SAPS   C25 8189   6.317   2.589  10.263  0.1024 -0.5411 -0.1437
   86SAPS   H5R 8190   6.401   2.572  10.331  0.5943 -0.1617 -0.6513
   86SAPS   C26 8191   6.302   2.503  10.156  0.0975 -0.2165 -0.3298
   86SAPS   H6R 8192   6.360   2.410  10.155  2.0755  0.9699 -2.1322
   86SAPS   C27 8193   6.191   2.514  10.056  0.7049  0.2025  0.2227
   86SAPS   H7R 8194   6.112   2.584  10.089 -0.6289 -0.5019 -1.3286
   86SAPS   H7S 8195   6.138   2.417  10.045 -1.8543  1.4646  0.6924
   86SAPS   C28 8196   6.231   2.550   9.916  0.6847 -0.5447  0.0869
   86SAPS   H8R 8197   6.294   2.640   9.922  0.1118 -0.2176  1.7869
   86SAPS   C29 8198   6.206   2.495   9.796 -0.0317 -0.5109 -0.0986
   86SAPS   H9R 8199   6.249   2.550   9.712  0.5449 -0.8437 -0.0346
   86SAPS  C210 8200   6.137   2.359   9.770 -0.6720  0.1138  0.6464
   86SAPS  H10R 8201   6.048   2.376   9.706 -1.1921  1.0799  1.6148
   86SAPS  H10S 8202   6.124   2.305   9.866 -0.3686 -2.5034 -0.6948
   86SAPS  C211 8203   6.241   2.274   9.685  0.3397  1.1371 -0.4253
   86SAPS  H11R 8204   6.311   2.213   9.744 -0.0672 -0.8997 -1.9175
   86SAPS  C212 8205   6.261   2.277   9.555  0.2265  0.5296 -1.1660
   86SAPS  H12R 8206   6.333   2.203   9.516  0.8118  0.4230  0.0902
   86SAPS  C213 8207   6.184   2.352   9.453 -0.6114 -0.2797  0.0821
   86SAPS  H13R 8208   6.089   2.389   9.497 -0.6668 -1.1153  0.6990
   86SAPS  H13S 8209   6.154   2.281   9.373 -2.1137  0.4572 -0.0341
   86SAPS  C214 8210   6.265   2.465   9.404 -0.0778 -0.8465 -0.3168
   86SAPS  H14R 8211   6.265   2.549   9.475 -0.8402 -1.9667  1.0568
   86SAPS  C215 8212   6.319   2.489   9.283  0.1107 -0.7315 -0.2077
   86SAPS  H15R 8213   6.355   2.591   9.265 -2.5521 -0.0556 -2.4595
   86SAPS  C216 8214   6.315   2.394   9.166  0.1488 -0.1922  0.1885
   86SAPS  H16R 8215   6.284   2.442   9.071  1.4500  0.8125  0.2422
   86SAPS  H16S 8216   6.232   2.324   9.190 -2.0211  1.9963 -0.6537
   86SAPS  C217 8217   6.451   2.324   9.133  0.1839 -0.3015  0.2406
   86SAPS  H17R 8218   6.423   2.264   9.043  0.1960 -1.8543  1.2313
   86SAPS  H17S 8219   6.466   2.251   9.215 -3.1823 -2.6993 -1.0168
   86SAPS  C218 8220   6.570   2.421   9.097  0.2531 -0.0497  0.6748
   86SAPS  H18R 8221   6.669   2.371   9.091 -1.2244 -3.0971 -1.3677
   86SAPS  H18S 8222   6.567   2.506   9.168  3.3348  0.5951  0.1812
   86SAPS  C219 8223   6.550   2.489   8.959 -0.1549 -0.1884  0.8951
   86SAPS  H19R 8224   6.445   2.513   8.934  0.6139  2.1172 -0.3889
   86SAPS  H19S 8225   6.593   2.422   8.881  1.6962  2.1347 -0.2230
   86SAPS  C220 8226   6.635   2.617   8.926 -1.0266 -0.8414  0.3032
   86SAPS  H20R 8227   6.741   2.587   8.920 -0.6516  0.2311  1.2619
   86SAPS  H20S 8228   6.624   2.700   8.999 -0.5445 -1.3161  0.9273
   86SAPS  H20T 8229   6.598   2.655   8.828 -0.4287 -2.4532 -0.5857
   86SAPS   C33 8230   5.792   2.420  10.271  0.3332  0.2809 -0.3273
   86SAPS   H3X 8231   5.872   2.343  10.280 -0.2756 -0.7242 -2.6692
   86SAPS   H3Y 8232   5.838   2.505  10.216  1.4794 -0.0133  0.1372
   86SAPS   C34 8233   5.679   2.359  10.190 -0.0706 -0.2589 -0.1106
   86SAPS   H4X 8234   5.615   2.447  10.169 -1.1988 -0.2772  2.7277
   86SAPS   H4Y 8235   5.627   2.274  10.239  1.8242 -1.6044 -0.3165
   86SAPS   C35 8236   5.724   2.317  10.048 -1.0438 -0.1618  0.3054
   86SAPS   H5X 8237   5.757   2.211  10.052  1.5035  0.5743  0.6836
   86SAPS   H5Y 8238   5.805   2.380  10.004 -0.5226 -1.4113 -0.5657
   86SAPS   C36 8239   5.613   2.329   9.947 -0.6643  0.3709  0.5754
   86SAPS   H6X 8240   5.584   2.435   9.931  0.9318  0.8865  1.0295
   86SAPS   H6Y 8241   5.528   2.270   9.990 -1.3588  0.0573 -1.1493
   86SAPS   C37 8242   5.650   2.270   9.812  0.2575  0.0600 -0.7786
   86SAPS   H7X 8243   5.692   2.171   9.839 -1.4476 -0.3539  0.5214
   86SAPS   H7Y 8244   5.738   2.329   9.779 -0.2330  0.4137 -1.4961
   86SAPS   C38 8245   5.537   2.256   9.714 -0.1227 -0.2111  0.0777
   86SAPS   H8X 8246   5.498   2.358   9.696  1.2425  0.0875 -1.3671
   86SAPS   H8Y 8247   5.456   2.194   9.758 -2.4080  2.0785 -0.6769
   86SAPS   C39 8248   5.573   2.195   9.576 -0.8873 -0.4828 -0.0172
   86SAPS   H9X 8249   5.479   2.177   9.518 -0.3079 -2.2595 -0.4456
   86SAPS   H9Y 8250   5.626   2.100   9.598  1.1016  0.4561 -0.5252
   86SAPS  C310 8251   5.672   2.285   9.498  0.5414  0.3740 -0.1563
   86SAPS  H10X 8252   5.773   2.291   9.544  1.7516 -3.8918 -1.8053
   86SAPS  H10Y 8253   5.631   2.388   9.487 -1.9525 -0.7022 -1.6292
   86SAPS  C311 8254   5.694   2.234   9.359  0.3700 -0.5402  0.2247
   86SAPS  H11X 8255   5.599   2.206   9.309  2.6911 -0.8778 -4.5954
   86SAPS  H11Y 8256   5.754   2.140   9.360  0.9138 -0.2789 -1.9775
   86SAPS  C312 8257   5.768   2.345   9.275 -0.2378  0.5954  1.4548
   86SAPS  H12X 8258   5.867   2.365   9.322 -0.1427  2.4896  0.5218
   86SAPS  H12Y 8259   5.699   2.432   9.270 -0.5593  0.2764 -0.0076
   86SAPS  C313 8260   5.808   2.296   9.140  0.3459  0.6282  0.1048
   86SAPS  H13X 8261   5.718   2.272   9.080  1.1765  1.2886 -1.4458
   86SAPS  H13Y 8262   5.870   2.205   9.158  4.4532  3.0024 -0.7320
   86SAPS  C314 8263   5.896   2.390   9.060  0.6053  0.1411  0.2494
   86SAPS  H14X 8264   5.973   2.430   9.129  0.0937  0.0906  0.8593
   86SAPS  H14Y 8265   5.831   2.476   9.035  2.9150  2.6859  2.3062
   86SAPS  C315 8266   5.955   2.318   8.942  0.2147  0.2789  0.6046
   86SAPS  H15X 8267   5.883   2.270   8.871  1.8770  1.5812 -2.1218
   86SAPS  H15Y 8268   6.017   2.234   8.980  0.4055  0.2566  0.2464
   86SAPS  C316 8269   6.053   2.406   8.862 -0.1805 -0.0396 -0.4540
   86SAPS  H16X 8270   6.085   2.499   8.914 -2.2871 -0.1262  1.1152
   86SAPS  H16Y 8271   5.988   2.441   8.779 -1.7635 -0.1862  0.6881
   86SAPS  C317 8272   6.178   2.331   8.801  0.2636 -0.3155  0.7111
   86SAPS  H17X 8273   6.148   2.251   8.730  1.1219  0.2493 -0.3246
   86SAPS  H17Y 8274   6.220   2.277   8.888 -0.8028 -0.7965  0.9367
   86SAPS  C318 8275   6.273   2.421   8.735 -0.2483  0.5730  0.2197
   86SAPS  H18X 8276   6.377   2.388   8.758 -1.0198 -1.4628  0.9596
   86SAPS  H18Y 8277   6.256   2.521   8.782 -0.8464 -0.5967  2.6181
   86SAPS  H18Z 8278   6.257   2.428   8.626 -1.2665  1.0397  0.3886
   87SAPS     N 8279   5.794   2.636  11.080 -0.5676 -0.3806  0.4050
   87SAPS   HN1 8280   5.891   2.615  11.110  0.0749  1.3084 -0.3490
   87SAPS   HN2 8281   5.753   2.590  10.997 -0.2409 -0.0873  0.0771
   87SAPS   HN3 8282   5.800   2.737  11.057  0.2332 -1.0804 -3.0668
   87SAPS   C12 8283   5.688   2.640  11.192 -0.1572 -0.1979 -0.2687
   87SAPS  H12A 8284   5.623   2.554  11.186 -0.3961 -0.1088  0.8344
   87SAPS   C13 8285   5.747   2.642  11.333  0.2648 -0.3341  0.5258
   87SAPS  O13A 8286   5.874   2.628  11.346  0.6575 -0.4034  0.1665
   87SAPS  O13B 8287   5.673   2.642  11.434 -0.4546 -0.0475 -0.0737
   87SAPS   C11 8288   5.592   2.761  11.164  0.7074 -0.1439 -0.5313
   87SAPS  H11A 8289   5.645   2.859  11.167 -0.7219  0.6406  2.2910
   87SAPS  H11B 8290   5.519   2.769  11.247  0.9909  1.8189 -0.4248
   87SAPS     P 8291   5.409   2.859  11.015  0.2462 -0.6201 -0.1403
   87SAPS   O13 8292   5.294   2.836  11.106  0.3010 -0.7477 -0.4421
   87SAPS   O14 8293   5.473   2.991  11.013  0.1765  0.4172 -0.1225
   87SAPS   O12 8294   5.516   2.749  11.040 -0.4946  0.0343  0.1038
   87SAPS   O11 8295   5.349   2.826  10.876  0.1247 -0.3796  0.4647
   87SAPS    C1 8296   5.355   2.690  10.825 -0.0872  0.4963 -0.1287
   87SAPS    HA 8297   5.455   2.643  10.831 -1.0818 -1.9804 -1.4174
   87SAPS    HB 8298   5.311   2.616  10.895  2.7606 -2.3063 -1.0832
   87SAPS    C2 8299   5.294   2.662  10.687 -0.3047 -0.6966 -0.9160
   87SAPS    HS 8300   5.332   2.741  10.620  0.1337  0.6751  0.8735
   87SAPS   O21 8301   5.150   2.685  10.709  0.1676 -0.3689  0.3061
   87SAPS   C21 8302   5.081   2.752  10.620  0.1601 -0.2239  0.3981
   87SAPS   O22 8303   5.127   2.827  10.532  0.4475  0.8784 -0.1430
   87SAPS   C22 8304   4.937   2.730  10.652  0.2158  0.1997 -0.5420
   87SAPS   H2R 8305   4.917   2.621  10.653 -1.4346  0.4060  3.0617
   87SAPS   H2S 8306   4.925   2.768  10.756  2.7530 -1.2085  0.3399
   87SAPS    C3 8307   5.327   2.520  10.624  0.3676 -0.0375 -0.2180
   87SAPS    HX 8308   5.275   2.437  10.676  1.2343 -0.2502  0.3312
   87SAPS    HY 8309   5.436   2.505  10.637  0.0928 -2.1090  0.0380
   87SAPS   O31 8310   5.308   2.526  10.481 -0.3082  0.1199  0.2876
   87SAPS   C31 8311   5.193   2.476  10.436  0.0296  0.0458  0.2612
   87SAPS   O32 8312   5.107   2.426  10.505  0.3664  0.3021  0.1646
   87SAPS   C32 8313   5.183   2.520  10.286 -0.0051  0.4239 -0.7717
   87SAPS   H2X 8314   5.278   2.495  10.233 -1.0670 -2.5862 -1.4810
   87SAPS   H2Y 8315   5.152   2.626  10.279 -1.0747  0.1432 -0.4525
   87SAPS   C23 8316   4.839   2.805  10.554 -0.6240 -0.2188  0.1340
   87SAPS   H3R 8317   4.866   2.913  10.549 -0.1892 -0.2776  1.1246
   87SAPS   H3S 8318   4.738   2.795  10.600 -0.1046 -0.9632  1.1360
   87SAPS   C24 8319   4.825   2.742  10.413 -0.2038  0.9045  0.8634
   87SAPS   H4R 8320   4.815   2.632  10.412  0.2034  0.8323 -1.1216
   87SAPS   H4S 8321   4.927   2.766  10.376  1.0219 -0.9910  2.8455
   87SAPS   C25 8322   4.706   2.807  10.345 -0.5650  0.2302  0.2052
   87SAPS   H5R 8323   4.642   2.862  10.416 -0.7719 -0.0828  0.2619
   87SAPS   C26 8324   4.683   2.818  10.211 -0.7659  0.4363  0.5212
   87SAPS   H6R 8325   4.590   2.865  10.175 -0.5840  0.0578 -0.4695
   87SAPS   C27 8326   4.763   2.771  10.098  0.6431  0.3067 -0.5243
   87SAPS   H7R 8327   4.726   2.680  10.047 -1.1470  0.4184  0.4786
   87SAPS   H7S 8328   4.872   2.756  10.115  1.0570 -0.3203 -3.2537
   87SAPS   C28 8329   4.769   2.875   9.990  0.4329  0.5207  0.5126
   87SAPS   H8R 8330   4.759   2.980  10.020  2.8687  1.3869 -1.3560
   87SAPS   C29 8331   4.797   2.861   9.862 -0.9845  0.0009 -1.1464
   87SAPS   H9R 8332   4.790   2.951   9.799  0.0939  0.6163 -0.4105
   87SAPS  C210 8333   4.836   2.739   9.785 -0.0982 -0.3880 -0.6851
   87SAPS  H10R 8334   4.778   2.745   9.691  0.7043  0.2436 -1.1599
   87SAPS  H10S 8335   4.793   2.650   9.836 -1.8309  0.4243 -0.6667
   87SAPS  C211 8336   4.986   2.736   9.767 -0.5780 -0.8574  0.7319
   87SAPS  H11R 8337   5.043   2.800   9.836 -0.2555  1.3479 -1.4611
   87SAPS  C212 8338   5.045   2.642   9.695  0.2763  0.1434 -0.1924
   87SAPS  H12R 8339   5.154   2.647   9.690  0.5709  0.0408  3.3624
   87SAPS  C213 8340   4.972   2.537   9.617  0.2021 -0.0732 -0.4683
   87SAPS  H13R 8341   4.873   2.571   9.582 -0.5588 -0.9169  0.8121
   87SAPS  H13S 8342   4.949   2.459   9.692 -0.2808  2.2888  1.9716
   87SAPS  C214 8343   5.077   2.492   9.520  0.5470 -0.0190 -0.0787
   87SAPS  H14R 8344   5.149   2.422   9.565  1.6923  2.3189  1.9634
   87SAPS  C215 8345   5.090   2.535   9.394  0.1293 -0.6631  0.1065
   87SAPS  H15R 8346   5.143   2.463   9.329 -0.5161 -0.4269 -0.6978
   87SAPS  C216 8347   5.000   2.635   9.329 -0.3942  0.0842  0.5172
   87SAPS  H16R 8348   5.067   2.710   9.281  0.1244 -1.6497 -1.6338
   87SAPS  H16S 8349   4.921   2.687   9.387 -3.3676 -0.9715 -2.2635
   87SAPS  C217 8350   4.926   2.563   9.219 -0.4149  0.3204  0.6652
   87SAPS  H17R 8351   4.994   2.504   9.154 -1.3816 -1.3647  1.1183
   87SAPS  H17S 8352   4.873   2.643   9.163 -2.2747 -2.2373 -1.4771
   87SAPS  C218 8353   4.816   2.468   9.273  0.1363 -0.8749 -0.1251
   87SAPS  H18R 8354   4.736   2.524   9.326  0.1637 -0.7187 -0.2460
   87SAPS  H18S 8355   4.851   2.391   9.344  0.4438 -0.2059  0.4577
   87SAPS  C219 8356   4.749   2.388   9.156  0.1221 -0.2035  0.0580
   87SAPS  H19R 8357   4.671   2.324   9.202  1.6484 -2.4139 -0.2297
   87SAPS  H19S 8358   4.836   2.329   9.119  1.6661  1.4226  0.9303
   87SAPS  C220 8359   4.690   2.468   9.046 -0.2422  0.4663 -0.2152
   87SAPS  H20R 8360   4.772   2.516   8.988 -0.6481 -1.0200 -2.1107
   87SAPS  H20S 8361   4.627   2.545   9.095 -0.3828 -0.0587  0.4314
   87SAPS  H20T 8362   4.635   2.404   8.973  2.7626 -3.0440  0.2668
   87SAPS   C33 8363   5.073   2.432  10.218 -0.0960  0.4567  0.6349
   87SAPS   H3X 8364   4.977   2.435  10.273 -0.3968  1.3331  0.0714
   87SAPS   H3Y 8365   5.113   2.328  10.213 -0.0683  0.5032 -0.3182
   87SAPS   C34 8366   5.043   2.455  10.065 -0.2343 -0.5484  0.1024
   87SAPS   H4X 8367   5.012   2.561  10.054  3.2923  0.8943  2.2763
   87SAPS   H4Y 8368   4.962   2.386  10.032 -1.2574  0.4990  0.3750
   87SAPS   C35 8369   5.169   2.430   9.976  0.0217  0.2823 -0.4679
   87SAPS   H5X 8370   5.266   2.477   9.999  1.3268 -2.5617  0.2644
   87SAPS   H5Y 8371   5.135   2.459   9.874 -3.2013  0.2537  0.4743
   87SAPS   C36 8372   5.217   2.285   9.965 -0.1294 -0.0265  0.3263
   87SAPS   H6X 8373   5.253   2.242  10.061  0.6069 -0.0991  0.0239
   87SAPS   H6Y 8374   5.303   2.283   9.895  1.4221 -1.3389  2.1640
   87SAPS   C37 8375   5.109   2.182   9.918  0.4288  0.4493  0.2325
   87SAPS   H7X 8376   5.011   2.194   9.969 -0.1435  1.4648 -1.0538
   87SAPS   H7Y 8377   5.155   2.087   9.955 -0.0307  0.8777  2.0077
   87SAPS   C38 8378   5.098   2.181   9.763 -0.1999 -0.0643 -0.2351
   87SAPS   H8X 8379   5.203   2.193   9.727  0.0054  2.9343  1.1034
   87SAPS   H8Y 8380   5.035   2.265   9.728 -1.4922 -1.3222 -1.0443
   87SAPS   C39 8381   5.048   2.050   9.697  0.4781 -0.2603  0.8953
   87SAPS   H9X 8382   4.944   2.042   9.737  0.0387 -0.3766 -0.2242
   87SAPS   H9Y 8383   5.104   1.960   9.731  3.5778  1.6380  1.1432
   87SAPS  C310 8384   5.040   2.063   9.536 -0.5075 -0.4648  0.3054
   87SAPS  H10X 8385   4.963   2.128   9.489 -0.9360 -0.2765  1.2472
   87SAPS  H10Y 8386   5.029   1.961   9.494 -2.8097 -0.5504  1.0010
   87SAPS  C311 8387   5.175   2.117   9.470 -0.3952 -0.3405  0.4527
   87SAPS  H11X 8388   5.259   2.073   9.529 -3.0067 -1.6301  3.4904
   87SAPS  H11Y 8389   5.179   2.224   9.497  0.3951 -0.3364  0.3396
   87SAPS  C312 8390   5.183   2.085   9.330 -0.0238  0.2704  0.4824
   87SAPS  H12X 8391   5.096   2.122   9.272  0.3927  0.9487  0.2883
   87SAPS  H12Y 8392   5.176   1.976   9.307 -0.6518  0.5407 -0.6864
   87SAPS  C313 8393   5.320   2.121   9.268  0.0074  0.0372 -0.3277
   87SAPS  H13X 8394   5.406   2.065   9.312  0.4622  1.1854  0.2896
   87SAPS  H13Y 8395   5.340   2.227   9.294 -2.1653 -0.0362  2.0277
   87SAPS  C314 8396   5.324   2.102   9.119  0.1198 -0.3442  0.0773
   87SAPS  H14X 8397   5.225   2.139   9.082  0.2330  0.9765  1.0426
   87SAPS  H14Y 8398   5.326   1.994   9.094 -1.8290 -0.3747 -0.1456
   87SAPS  C315 8399   5.435   2.171   9.048 -0.6533  0.1076  0.9222
   87SAPS  H15X 8400   5.451   2.120   8.951 -0.5841  1.7678  0.0279
   87SAPS  H15Y 8401   5.532   2.160   9.102 -1.2051  0.8624  2.1054
   87SAPS  C316 8402   5.403   2.317   9.010 -0.3864  0.1481 -0.0715
   87SAPS  H16X 8403   5.406   2.384   9.099  0.0367 -1.1247  0.9113
   87SAPS  H16Y 8404   5.306   2.325   8.957 -0.1083  0.5043 -0.5362
   87SAPS  C317 8405   5.506   2.371   8.897  0.7489  0.7814 -0.8719
   87SAPS  H17X 8406   5.517   2.307   8.807  2.2247 -0.2888  0.0397
   87SAPS  H17Y 8407   5.608   2.374   8.940  0.6520  0.9623 -0.6495
   87SAPS  C318 8408   5.480   2.518   8.853  0.1737 -0.0400  0.1092
   87SAPS  H18X 8409   5.379   2.545   8.815 -0.2154  0.2503  1.2956
   87SAPS  H18Y 8410   5.553   2.546   8.775  0.9452  0.9000  1.1412
   87SAPS  H18Z 8411   5.506   2.588   8.935  3.9292 -0.2344 -0.7155
   88SAPS     N 8412   3.415   6.152  11.342 -0.6112  0.5153  0.0721
   88SAPS   HN1 8413   3.384   6.248  11.368 -0.8557  0.3538  0.3953
   88SAPS   HN2 8414   3.444   6.171  11.244  2.2128 -2.8795  0.0471
   88SAPS   HN3 8415   3.333   6.087  11.338  0.1606 -0.4026 -2.4063
   88SAPS   C12 8416   3.528   6.102  11.423  0.4197 -0.2256 -0.5966
   88SAPS  H12A 8417   3.572   6.181  11.481  2.2690 -0.1172 -2.0600
   88SAPS   C13 8418   3.493   6.001  11.533 -0.6396  0.6528 -0.1530
   88SAPS  O13A 8419   3.375   5.990  11.571  0.6799  0.0645 -0.1156
   88SAPS  O13B 8420   3.587   5.946  11.598 -0.3016 -0.6227 -0.1784
   88SAPS   C11 8421   3.644   6.043  11.331  0.5778 -0.4000 -0.1763
   88SAPS  H11A 8422   3.592   5.958  11.280  0.2662 -0.5240  0.3409
   88SAPS  H11B 8423   3.727   5.998  11.390  1.1469 -1.5477 -1.7733
   88SAPS     P 8424   3.831   6.118  11.159  0.2232 -0.0603 -0.1401
   88SAPS   O13 8425   3.871   6.247  11.092 -0.3220  0.1113  0.0080
   88SAPS   O14 8426   3.923   6.054  11.251  0.2070  0.0736  0.0210
   88SAPS   O12 8427   3.693   6.138  11.234 -0.5647 -0.7818 -0.5445
   88SAPS   O11 8428   3.779   6.020  11.049 -0.6394 -0.0863  0.4874
   88SAPS    C1 8429   3.858   5.984  10.936 -0.3829  0.2542  0.7642
   88SAPS    HA 8430   3.964   6.005  10.960 -0.2735 -0.2136  0.6971
   88SAPS    HB 8431   3.857   5.874  10.917  1.3496 -0.0579  2.1697
   88SAPS    C2 8432   3.832   6.079  10.813 -0.1041 -0.0288 -0.0092
   88SAPS    HS 8433   3.860   6.186  10.826  0.2178 -0.0067 -0.8313
   88SAPS   O21 8434   3.697   6.052  10.766  0.2813  0.0923 -0.5850
   88SAPS   C21 8435   3.641   6.161  10.712 -0.2117 -0.1579 -0.0140
   88SAPS   O22 8436   3.690   6.271  10.697 -0.2259 -0.5513 -0.5543
   88SAPS   C22 8437   3.495   6.128  10.686 -0.9339 -0.3006 -0.8987
   88SAPS   H2R 8438   3.463   6.072  10.776  1.1032 -1.5820 -0.9093
   88SAPS   H2S 8439   3.424   6.209  10.662 -2.3841 -0.9959  0.8366
   88SAPS    C3 8440   3.932   6.060  10.699 -0.5126  0.1318  0.1142
   88SAPS    HX 8441   3.900   5.965  10.651 -0.6066  0.8327 -1.2241
   88SAPS    HY 8442   4.038   6.056  10.733 -0.7047 -1.2580  0.6516
   88SAPS   O31 8443   3.934   6.168  10.596 -0.1486  0.7108 -0.0625
   88SAPS   C31 8444   3.872   6.133  10.487  0.9263 -0.0114 -0.2530
   88SAPS   O32 8445   3.818   6.025  10.462 -0.0448 -0.5007 -0.3162
   88SAPS   C32 8446   3.867   6.257  10.398  0.6222  0.2085 -0.2715
   88SAPS   H2X 8447   3.972   6.291  10.388  0.6394 -0.4684 -2.9851
   88SAPS   H2Y 8448   3.806   6.334  10.451  0.5686  0.5755 -0.8606
   88SAPS   C23 8449   3.485   6.033  10.571  0.5497  0.0230 -0.5918
   88SAPS   H3R 8450   3.379   5.999  10.576 -0.3810  2.5420 -1.4838
   88SAPS   H3S 8451   3.550   5.945  10.587  0.5459 -0.4325 -2.7911
   88SAPS   C24 8452   3.502   6.091  10.434 -0.4806  0.2333  1.0446
   88SAPS   H4R 8453   3.595   6.152  10.426  1.0674 -1.8184  2.4859
   88SAPS   H4S 8454   3.418   6.160  10.412  0.3302  0.5680 -1.2952
   88SAPS   C25 8455   3.520   5.979  10.334  0.8097  0.0825  0.1472
   88SAPS   H5R 8456   3.603   5.913  10.361 -0.0977 -0.5975  1.3723
   88SAPS   C26 8457   3.435   5.947  10.230 -0.1485  0.2793 -0.1619
   88SAPS   H6R 8458   3.464   5.865  10.163  0.3392  1.2276 -1.1329
   88SAPS   C27 8459   3.312   6.021  10.190  0.5762 -0.2911  0.1228
   88SAPS   H7R 8460   3.356   6.114  10.149  2.3802 -1.1220  0.0623
   88SAPS   H7S 8461   3.255   6.055  10.279  1.5561  0.6494  0.4143
   88SAPS   C28 8462   3.227   5.939  10.087  0.1327  0.6697 -0.7181
   88SAPS   H8R 8463   3.147   5.886  10.140 -0.1875 -0.1852 -1.9882
   88SAPS   C29 8464   3.248   5.945   9.953 -0.8020  0.6265 -0.5251
   88SAPS   H9R 8465   3.164   5.902   9.896 -0.7361 -0.6311  0.2886
   88SAPS  C210 8466   3.363   6.017   9.885 -0.3170  0.0824  0.1151
   88SAPS  H10R 8467   3.461   6.008   9.935  0.0292  0.1973 -0.5258
   88SAPS  H10S 8468   3.333   6.123   9.870 -0.1783  0.1482  0.3035
   88SAPS  C211 8469   3.381   5.955   9.749 -0.2760  0.7401  0.0896
   88SAPS  H11R 8470   3.411   5.850   9.746  2.4062  1.4574 -1.5005
   88SAPS  C212 8471   3.374   6.007   9.626  0.1718 -1.1087 -0.0240
   88SAPS  H12R 8472   3.399   5.957   9.532 -1.6807 -3.2358  0.5306
   88SAPS  C213 8473   3.348   6.154   9.594 -0.4267  1.3863  0.1486
   88SAPS  H13R 8474   3.447   6.205   9.590 -0.0904  0.9567  2.0361
   88SAPS  H13S 8475   3.293   6.206   9.674  2.0457  2.5894  1.1683
   88SAPS  C214 8476   3.277   6.179   9.463 -0.8505 -0.6833 -0.4002
   88SAPS  H14R 8477   3.171   6.199   9.483 -0.2571  0.4224  2.0858
   88SAPS  C215 8478   3.331   6.197   9.341  0.5771  0.1787 -0.0269
   88SAPS  H15R 8479   3.269   6.197   9.250 -1.1251  2.8724  1.0134
   88SAPS  C216 8480   3.473   6.178   9.316 -0.2099 -0.7957 -0.1561
   88SAPS  H16R 8481   3.481   6.089   9.249  1.7737 -0.9105  0.1643
   88SAPS  H16S 8482   3.522   6.140   9.408 -2.1955 -1.1900  0.7960
   88SAPS  C217 8483   3.540   6.307   9.270  0.9155  0.1870 -0.0546
   88SAPS  H17R 8484   3.651   6.307   9.268  0.9322 -1.4420 -1.5722
   88SAPS  H17S 8485   3.511   6.389   9.340  0.0308 -0.4184  0.3122
   88SAPS  C218 8486   3.498   6.337   9.132 -0.7625  0.0947  0.2068
   88SAPS  H18R 8487   3.388   6.351   9.126 -1.1834 -1.9179  2.0011
   88SAPS  H18S 8488   3.529   6.255   9.064  0.7361  0.0618  0.8975
   88SAPS  C219 8489   3.556   6.472   9.069  0.4937  0.0125 -0.3753
   88SAPS  H19R 8490   3.663   6.451   9.047 -0.5611 -3.6269 -2.8700
   88SAPS  H19S 8491   3.551   6.554   9.144  0.3765 -0.6455  0.3411
   88SAPS  C220 8492   3.481   6.519   8.940  0.2216 -0.0560  0.3787
   88SAPS  H20R 8493   3.457   6.436   8.871 -0.3541 -0.7750  1.4237
   88SAPS  H20S 8494   3.539   6.596   8.885 -0.0348 -1.8160 -2.5758
   88SAPS  H20T 8495   3.381   6.557   8.972  0.5307  2.2483 -1.1238
   88SAPS   C33 8496   3.821   6.230  10.258  0.2572  0.1031 -0.2173
   88SAPS   H3X 8497   3.814   6.330  10.211  0.7004 -0.7751 -2.2544
   88SAPS   H3Y 8498   3.723   6.181  10.244 -0.7242  2.1695 -0.9427
   88SAPS   C34 8499   3.934   6.166  10.169  0.3591 -0.2992 -0.1113
   88SAPS   H4X 8500   3.967   6.072  10.217 -1.0825  0.1094  1.8375
   88SAPS   H4Y 8501   4.016   6.241  10.170 -0.9611  1.3937 -3.0047
   88SAPS   C35 8502   3.892   6.145  10.026  0.1759  0.3720  0.2049
   88SAPS   H5X 8503   3.815   6.065  10.022 -0.6262  1.1543 -0.8115
   88SAPS   H5Y 8504   3.978   6.106   9.967 -0.0386  0.8814 -0.4614
   88SAPS   C36 8505   3.850   6.271   9.949 -0.5198  0.6274  0.2659
   88SAPS   H6X 8506   3.928   6.350   9.960  1.9735 -1.6104 -0.2431
   88SAPS   H6Y 8507   3.752   6.294   9.997 -0.4933 -1.1258  1.2428
   88SAPS   C37 8508   3.807   6.242   9.804  0.2853 -0.0706 -0.7882
   88SAPS   H7X 8509   3.899   6.226   9.743  1.1068 -1.0043  0.6443
   88SAPS   H7Y 8510   3.755   6.334   9.770  1.1004  0.3557 -0.9088
   88SAPS   C38 8511   3.697   6.135   9.787  0.1266 -0.9820  0.1623
   88SAPS   H8X 8512   3.621   6.170   9.714 -2.5741  0.8868  3.5947
   88SAPS   H8Y 8513   3.644   6.130   9.884 -1.6233  1.3848 -0.5692
   88SAPS   C39 8514   3.743   5.995   9.767  0.1354  1.4268  0.1237
   88SAPS   H9X 8515   3.674   5.918   9.807  4.2820 -1.4325  2.4938
   88SAPS   H9Y 8516   3.838   5.967   9.817 -1.2797 -2.7004  0.8620
   88SAPS  C310 8517   3.770   5.963   9.616 -0.0213 -0.1311 -0.2155
   88SAPS  H10X 8518   3.876   5.980   9.591  0.2780 -3.2041 -1.4857
   88SAPS  H10Y 8519   3.699   6.029   9.562  0.5087  1.7346  1.2718
   88SAPS  C311 8520   3.757   5.812   9.586  0.1134 -0.4542  0.4365
   88SAPS  H11X 8521   3.652   5.780   9.604 -0.0337  0.8483  2.1577
   88SAPS  H11Y 8522   3.800   5.760   9.674  1.7183  2.5514  1.5942
   88SAPS  C312 8523   3.817   5.770   9.450  1.5085 -0.1679  0.0284
   88SAPS  H12X 8524   3.821   5.659   9.445  2.0533 -0.1950  0.8202
   88SAPS  H12Y 8525   3.921   5.808   9.461  1.4126 -0.1492  0.9656
   88SAPS  C313 8526   3.719   5.816   9.331 -0.4730 -0.0174  0.2604
   88SAPS  H13X 8527   3.727   5.923   9.303 -0.9330  0.0407  0.3326
   88SAPS  H13Y 8528   3.616   5.791   9.365 -0.5219 -0.9946 -0.5782
   88SAPS  C314 8529   3.764   5.748   9.203 -0.0952 -0.3620 -0.3761
   88SAPS  H14X 8530   3.759   5.638   9.216  1.6435 -0.2281  2.2673
   88SAPS  H14Y 8531   3.871   5.766   9.182 -0.3751 -0.0400 -1.5807
   88SAPS  C315 8532   3.685   5.802   9.089 -0.0016  0.4762  0.0072
   88SAPS  H15X 8533   3.702   5.912   9.079  1.5488  0.3268  0.6842
   88SAPS  H15Y 8534   3.577   5.777   9.100  0.4231 -1.9384 -0.6575
   88SAPS  C316 8535   3.727   5.737   8.955 -0.1434  0.4465 -0.0085
   88SAPS  H16X 8536   3.704   5.629   8.959  1.1939  0.1390 -0.4471
   88SAPS  H16Y 8537   3.836   5.748   8.936 -0.1684 -0.6675 -0.8530
   88SAPS  C317 8538   3.657   5.797   8.828  0.1177 -0.5759 -0.0370
   88SAPS  H17X 8539   3.700   5.896   8.802 -1.9579  0.5184  0.4309
   88SAPS  H17Y 8540   3.548   5.814   8.844  0.2164  0.4198 -0.3163
   88SAPS  C318 8541   3.687   5.713   8.705  1.0296 -0.0483  0.7512
   88SAPS  H18X 8542   3.616   5.628   8.689 -1.5343  2.0137  0.4743
   88SAPS  H18Y 8543   3.792   5.677   8.709  0.6395 -1.7026 -1.6908
   88SAPS  H18Z 8544   3.681   5.776   8.614 -4.2664  0.9322  1.4498
   89SAPS     N 8545   1.061   2.894  10.815  0.2220  0.0516 -1.0112
   89SAPS   HN1 8546   1.045   2.946  10.903  1.9521  0.9094 -1.1601
   89SAPS   HN2 8547   1.133   2.944  10.760  0.1734  1.4672  0.1689
   89SAPS   HN3 8548   0.968   2.887  10.768 -1.1621  2.5142  1.1205
   89SAPS   C12 8549   1.116   2.764  10.846  0.0202 -0.2684 -0.2054
   89SAPS  H12A 8550   1.193   2.777  10.921  0.7609  1.2535 -1.1619
   89SAPS   C13 8551   1.026   2.647  10.885  0.3954  0.1732 -1.4892
   89SAPS  O13A 8552   0.904   2.659  10.884  0.2762  0.4124 -0.3523
   89SAPS  O13B 8553   1.078   2.536  10.889  0.0255  0.4175 -0.6922
   89SAPS   C11 8554   1.201   2.736  10.713 -0.2180  0.0646  0.1994
   89SAPS  H11A 8555   1.147   2.727  10.616  1.2384 -0.0564 -0.6259
   89SAPS  H11B 8556   1.252   2.638  10.727 -1.0485 -0.4820 -0.4524
   89SAPS     P 8557   1.441   2.836  10.729 -0.2168 -0.1824  0.2201
   89SAPS   O13 8558   1.495   2.975  10.711  0.3546  0.0199  0.5289
   89SAPS   O14 8559   1.456   2.765  10.854 -0.7446  0.0317 -0.2858
   89SAPS   O12 8560   1.291   2.847  10.688  0.7301 -0.0339 -0.2068
   89SAPS   O11 8561   1.502   2.744  10.613 -0.9016 -0.0586 -0.0083
   89SAPS    C1 8562   1.538   2.802  10.485 -0.2816 -0.1671  0.0189
   89SAPS    HA 8563   1.534   2.913  10.492  1.2638 -0.0873 -0.0160
   89SAPS    HB 8564   1.646   2.785  10.466 -0.3676  1.1293 -1.9995
   89SAPS    C2 8565   1.466   2.733  10.363 -0.3017  0.6819 -0.1805
   89SAPS    HS 8566   1.522   2.767  10.274  1.9342 -0.0990  0.8387
   89SAPS   O21 8567   1.324   2.753  10.365 -0.0293 -0.7254  0.2185
   89SAPS   C21 8568   1.280   2.880  10.362  0.2716  0.0420 -0.6673
   89SAPS   O22 8569   1.354   2.975  10.354 -0.0986  0.0691 -0.1601
   89SAPS   C22 8570   1.129   2.890  10.396 -0.1557  0.1858 -0.7994
   89SAPS   H2R 8571   1.094   2.786  10.415  0.2542  0.3126  0.7839
   89SAPS   H2S 8572   1.126   2.946  10.492  1.6460 -2.0123  0.6240
   89SAPS    C3 8573   1.484   2.579  10.371  0.4623  0.1189  0.2442
   89SAPS    HX 8574   1.425   2.550  10.460  0.1256 -0.5376 -0.1887
   89SAPS    HY 8575   1.590   2.564  10.399  0.3923 -0.3770  0.2499
   89SAPS   O31 8576   1.446   2.522  10.245 -0.3453  0.3978  0.1503
   89SAPS   C31 8577   1.363   2.408  10.245 -0.5288 -0.0521  0.3891
   89SAPS   O32 8578   1.319   2.357  10.346  0.1121  0.4113 -0.5617
   89SAPS   C32 8579   1.349   2.353  10.101  0.2012  0.1756  0.7131
   89SAPS   H2X 8580   1.354   2.442  10.036  1.6270 -1.0019 -0.8721
   89SAPS   H2Y 8581   1.256   2.293  10.096  1.1613 -1.5086  1.9972
   89SAPS   C23 8582   1.037   2.966  10.296 -0.3306 -0.0059  0.1062
   89SAPS   H3R 8583   0.930   2.950  10.322 -0.4886 -1.7055 -1.3860
   89SAPS   H3S 8584   1.051   2.935  10.191 -1.5824 -1.1830  0.2514
   89SAPS   C24 8585   1.062   3.117  10.299  0.8709 -0.5013  0.2784
   89SAPS   H4R 8586   1.167   3.138  10.270  0.3150  0.4486 -1.1731
   89SAPS   H4S 8587   1.060   3.170  10.397  2.6718 -0.9005  0.5747
   89SAPS   C25 8588   0.965   3.181  10.205 -0.2743 -0.4540  0.8374
   89SAPS   H5R 8589   0.868   3.191  10.255 -0.1903  1.8868  0.6671
   89SAPS   C26 8590   0.986   3.199  10.074 -0.6599 -0.3507  1.0099
   89SAPS   H6R 8591   0.905   3.255  10.025  0.6789 -0.0365 -0.9560
   89SAPS   C27 8592   1.117   3.169   9.998  0.1386  0.2442  0.5673
   89SAPS   H7R 8593   1.203   3.142  10.063  1.1938  0.1154 -0.8358
   89SAPS   H7S 8594   1.151   3.265   9.954 -1.7657  1.3424  1.3762
   89SAPS   C28 8595   1.110   3.070   9.883  0.4904  0.0005 -0.1621
   89SAPS   H8R 8596   1.095   2.964   9.911 -1.9060 -0.6750 -3.3258
   89SAPS   C29 8597   1.092   3.099   9.754  0.2965  0.2831  0.0314
   89SAPS   H9R 8598   1.099   3.015   9.683  1.9174 -1.0714  1.6662
   89SAPS  C210 8599   1.074   3.239   9.701  0.2643  0.5356 -0.8896
   89SAPS  H10R 8600   1.108   3.232   9.596  0.8776  0.0163 -0.6653
   89SAPS  H10S 8601   1.145   3.316   9.738 -0.4520  0.5700  0.5117
   89SAPS  C211 8602   0.929   3.284   9.701  0.3139 -0.2229 -0.2803
   89SAPS  H11R 8603   0.865   3.244   9.782 -0.6098  2.5426  0.4884
   89SAPS  C212 8604   0.881   3.386   9.627  0.9088  0.3529 -0.1460
   89SAPS  H12R 8605   0.775   3.397   9.653  0.2974 -1.3410 -1.7078
   89SAPS  C213 8606   0.950   3.464   9.524 -0.2779 -0.5288  0.3093
   89SAPS  H13R 8607   1.014   3.398   9.461 -1.2093 -1.7214  0.5771
   89SAPS  H13S 8608   1.023   3.526   9.580 -1.2097  2.3771 -1.4869
   89SAPS  C214 8609   0.870   3.543   9.418 -0.3352  0.2439 -0.1450
   89SAPS  H14R 8610   0.778   3.592   9.454 -2.4703 -1.3380 -3.0008
   89SAPS  C215 8611   0.891   3.556   9.288  0.2501 -0.5484 -0.3333
   89SAPS  H15R 8612   0.816   3.620   9.240 -1.2820 -1.3460  0.8873
   89SAPS  C216 8613   0.997   3.494   9.197 -0.8002 -0.1262 -0.4055
   89SAPS  H16R 8614   1.061   3.431   9.263 -0.2797  0.2004 -0.5930
   89SAPS  H16S 8615   1.063   3.570   9.151 -0.5087 -1.5171 -2.3879
   89SAPS  C217 8616   0.933   3.414   9.079  0.4510 -0.3280 -0.5041
   89SAPS  H17R 8617   0.864   3.474   9.017  1.0341  0.9337  0.0329
   89SAPS  H17S 8618   0.879   3.328   9.125  1.0835 -0.8376 -0.6909
   89SAPS  C218 8619   1.039   3.353   8.983  0.1781  0.3395  0.0525
   89SAPS  H18R 8620   1.115   3.302   9.046  0.7980  1.4962  0.2757
   89SAPS  H18S 8621   1.086   3.437   8.928 -1.1308  1.2217  0.2285
   89SAPS  C219 8622   0.973   3.266   8.881 -0.2582  0.6148  0.4139
   89SAPS  H19R 8623   0.907   3.320   8.809 -0.1558 -1.8575 -1.6847
   89SAPS  H19S 8624   0.920   3.183   8.932 -0.5531  0.9118  0.5910
   89SAPS  C220 8625   1.075   3.191   8.799 -0.5408  0.2355 -0.0791
   89SAPS  H20R 8626   1.029   3.101   8.752  1.4672 -1.0970  0.3597
   89SAPS  H20S 8627   1.160   3.150   8.857  0.3677 -0.0033 -1.5383
   89SAPS  H20T 8628   1.111   3.266   8.726 -0.2073 -0.4799 -0.6583
   89SAPS   C33 8629   1.472   2.269  10.074 -0.2361 -0.0374  0.2142
   89SAPS   H3X 8630   1.469   2.181  10.140  1.0453 -0.0981  0.2014
   89SAPS   H3Y 8631   1.563   2.329  10.096 -0.6593  1.0487 -0.8791
   89SAPS   C34 8632   1.489   2.218   9.931 -0.8748 -0.0836  0.2920
   89SAPS   H4X 8633   1.402   2.151   9.910  0.7793 -2.9013  1.8496
   89SAPS   H4Y 8634   1.584   2.161   9.923  0.4495  1.8952  1.2455
   89SAPS   C35 8635   1.519   2.316   9.818  0.4202 -0.2728  0.9809
   89SAPS   H5X 8636   1.612   2.372   9.842  1.1844 -0.9740 -0.2101
   89SAPS   H5Y 8637   1.433   2.384   9.803  0.7968  0.1152  0.5367
   89SAPS   C36 8638   1.534   2.246   9.685 -0.5441  0.4384 -0.0308
   89SAPS   H6X 8639   1.441   2.187   9.673  0.7283 -1.5833 -0.3622
   89SAPS   H6Y 8640   1.614   2.169   9.682  0.7643  1.5534  2.8841
   89SAPS   C37 8641   1.558   2.343   9.566  0.2246  0.4343  0.0967
   89SAPS   H7X 8642   1.660   2.389   9.562  0.8974 -0.9429  0.6754
   89SAPS   H7Y 8643   1.496   2.434   9.577 -0.2317  0.3928 -1.7455
   89SAPS   C38 8644   1.545   2.285   9.428  0.0959  0.2193  0.1298
   89SAPS   H8X 8645   1.442   2.243   9.423  0.1200  0.0029  1.2277
   89SAPS   H8Y 8646   1.617   2.202   9.409 -0.2061 -0.1218  0.4447
   89SAPS   C39 8647   1.562   2.390   9.315  0.1755 -0.2547 -0.2150
   89SAPS   H9X 8648   1.668   2.424   9.322  1.1157 -2.5798 -1.5711
   89SAPS   H9Y 8649   1.479   2.462   9.331 -0.5395 -1.8432  4.7435
   89SAPS  C310 8650   1.554   2.318   9.178 -1.1121 -0.0386 -0.1038
   89SAPS  H10X 8651   1.448   2.292   9.155 -1.1036 -1.1538  0.9772
   89SAPS  H10Y 8652   1.607   2.221   9.189  3.1795  1.9172 -1.5176
   89SAPS  C311 8653   1.607   2.389   9.056  0.4844 -0.0893 -0.3804
   89SAPS  H11X 8654   1.716   2.404   9.072  0.8171 -1.7418 -0.9517
   89SAPS  H11Y 8655   1.569   2.492   9.043 -0.0326 -0.3162 -0.6824
   89SAPS  C312 8656   1.563   2.306   8.933  0.7203  0.0393  0.9304
   89SAPS  H12X 8657   1.452   2.319   8.938  0.7388  0.3286  0.6106
   89SAPS  H12Y 8658   1.577   2.197   8.948  0.3425 -0.0085  0.9480
   89SAPS  C313 8659   1.612   2.357   8.790 -0.0510  0.9070 -0.5199
   89SAPS  H13X 8660   1.638   2.465   8.795 -1.7465  1.3559 -0.9226
   89SAPS  H13Y 8661   1.542   2.322   8.711  1.4489 -3.2869 -0.2845
   89SAPS  C314 8662   1.744   2.277   8.768  0.2627 -0.2984  0.2727
   89SAPS  H14X 8663   1.729   2.167   8.761 -1.3588 -0.0203 -1.4562
   89SAPS  H14Y 8664   1.797   2.303   8.862  0.4363  0.7683 -0.1093
   89SAPS  C315 8665   1.824   2.320   8.640 -0.0082 -0.4738 -0.4621
   89SAPS  H15X 8666   1.761   2.313   8.549 -0.0075 -1.0132 -0.4210
   89SAPS  H15Y 8667   1.904   2.243   8.638  2.4920  1.9819 -0.7712
   89SAPS  C316 8668   1.902   2.442   8.653 -0.6911 -0.0178 -0.4459
   89SAPS  H16X 8669   1.958   2.450   8.749  2.7563  0.8089 -2.3553
   89SAPS  H16Y 8670   1.826   2.524   8.652 -1.8747 -1.0756 -0.2057
   89SAPS  C317 8671   2.006   2.468   8.541  0.0596  0.8561 -0.1565
   89SAPS  H17X 8672   2.076   2.551   8.566  0.9483 -0.2362  1.1939
   89SAPS  H17Y 8673   1.952   2.480   8.445  1.2025  0.1701 -0.9100
   89SAPS  C318 8674   2.097   2.354   8.503 -0.0441 -0.0087  0.2981
   89SAPS  H18X 8675   2.164   2.382   8.419 -0.0093 -0.5704  0.1325
   89SAPS  H18Y 8676   2.043   2.261   8.475  2.0047 -0.7318 -1.4765
   89SAPS  H18Z 8677   2.159   2.325   8.591 -2.1329  0.4033  1.9805
   90SAPS     N 8678   1.901   1.343  10.850 -0.5218 -0.1342  0.3685
   90SAPS   HN1 8679   1.808   1.311  10.884  0.0230 -2.6948 -0.3760
   90SAPS   HN2 8680   1.897   1.332  10.747  0.6531  0.3703  0.2578
   90SAPS   HN3 8681   1.974   1.278  10.884  0.5069  0.0511 -1.3566
   90SAPS   C12 8682   1.928   1.478  10.885  0.3659 -0.3536 -0.0656
   90SAPS  H12A 8683   1.854   1.544  10.841  1.6228  2.3653  1.6221
   90SAPS   C13 8684   1.950   1.507  11.030 -0.4191 -0.4497  0.0634
   90SAPS  O13A 8685   1.931   1.416  11.118  0.5147 -0.1132  0.4913
   90SAPS  O13B 8686   1.976   1.622  11.067 -0.1462 -0.1437  0.1511
   90SAPS   C11 8687   2.058   1.526  10.809  0.1763 -0.6144 -0.2448
   90SAPS  H11A 8688   2.049   1.636  10.822 -1.6162 -0.6376 -0.9906
   90SAPS  H11B 8689   2.043   1.502  10.701 -1.0197 -1.1866  0.0359
   90SAPS     P 8690   2.310   1.493  10.797 -0.2853 -0.1831  0.1668
   90SAPS   O13 8691   2.383   1.583  10.883 -0.1991 -0.2750 -0.4979
   90SAPS   O14 8692   2.376   1.365  10.770 -0.0805 -0.2178  0.0470
   90SAPS   O12 8693   2.175   1.464  10.860  0.2393 -0.4167 -0.1951
   90SAPS   O11 8694   2.276   1.567  10.659  0.0912  0.3799 -0.0258
   90SAPS    C1 8695   2.258   1.711  10.639 -0.2400 -0.3742 -0.4382
   90SAPS    HA 8696   2.151   1.740  10.632 -0.0096  0.3842 -1.0056
   90SAPS    HB 8697   2.312   1.767  10.718 -2.3609  0.0027  0.8299
   90SAPS    C2 8698   2.326   1.760  10.500 -0.4091 -0.5497 -0.8563
   90SAPS    HS 8699   2.317   1.868  10.475 -0.0834 -0.6307 -1.3578
   90SAPS   O21 8700   2.285   1.681  10.390 -0.6028 -0.2197  0.5509
   90SAPS   C21 8701   2.158   1.656  10.366  0.5923 -0.6505  0.2335
   90SAPS   O22 8702   2.060   1.703  10.422  0.1472 -0.2621 -0.2871
   90SAPS   C22 8703   2.142   1.560  10.244 -0.3185 -0.7518  0.1196
   90SAPS   H2R 8704   2.234   1.564  10.182 -0.3786 -1.7651 -0.0528
   90SAPS   H2S 8705   2.125   1.465  10.299 -0.1909 -1.0193 -0.2972
   90SAPS    C3 8706   2.485   1.738  10.510 -0.4248  0.4198 -0.1534
   90SAPS    HX 8707   2.513   1.633  10.533  0.1294  0.8391  1.1979
   90SAPS    HY 8708   2.514   1.810  10.589 -0.9419  1.0587 -0.5333
   90SAPS   O31 8709   2.541   1.770  10.383 -0.0263  0.0200  0.0426
   90SAPS   C31 8710   2.661   1.821  10.389  0.2187  0.4575 -0.9168
   90SAPS   O32 8711   2.725   1.849  10.486 -0.6247 -0.2209  0.2379
   90SAPS   C32 8712   2.695   1.833  10.242 -0.2849  0.0659  0.2312
   90SAPS   H2X 8713   2.677   1.941  10.221 -0.3964  0.2773  1.3464
   90SAPS   H2Y 8714   2.627   1.779  10.173 -1.3016  2.9599 -1.1686
   90SAPS   C23 8715   2.029   1.591  10.149 -0.0457 -0.2427  0.2171
   90SAPS   H3R 8716   1.939   1.620  10.208  0.0883 -1.9728  1.3471
   90SAPS   H3S 8717   1.979   1.504  10.102 -0.9886  2.3319 -4.0366
   90SAPS   C24 8718   2.059   1.691  10.043  0.8659 -0.2098  0.1902
   90SAPS   H4R 8719   2.159   1.672  10.000  0.6581 -0.6213 -0.1197
   90SAPS   H4S 8720   2.055   1.796  10.081 -0.2435  0.2501 -1.1138
   90SAPS   C25 8721   1.959   1.690   9.933  0.0596 -0.2013 -0.2385
   90SAPS   H5R 8722   1.860   1.667   9.974  0.0183  2.5425  1.4293
   90SAPS   C26 8723   1.983   1.708   9.800  0.1891  0.4446 -0.2675
   90SAPS   H6R 8724   1.904   1.697   9.725 -1.9666 -0.7778  2.0242
   90SAPS   C27 8725   2.119   1.743   9.749 -0.4995 -0.3027 -0.5677
   90SAPS   H7R 8726   2.196   1.663   9.738  1.7190  1.5869  0.2173
   90SAPS   H7S 8727   2.166   1.815   9.820 -0.4428 -0.3272 -0.5813
   90SAPS   C28 8728   2.109   1.822   9.626 -0.4171 -0.8577 -0.7785
   90SAPS   H8R 8729   2.150   1.924   9.640  0.0612 -1.3251  1.6347
   90SAPS   C29 8730   2.073   1.781   9.499  0.6113 -0.6783 -0.6295
   90SAPS   H9R 8731   2.063   1.858   9.422  0.4235  0.3729  0.4099
   90SAPS  C210 8732   2.032   1.649   9.457 -0.6247 -0.0330 -0.2938
   90SAPS  H10R 8733   1.982   1.643   9.358  1.1422  2.5672 -1.4661
   90SAPS  H10S 8734   1.955   1.619   9.530  0.4463  0.9693  1.3031
   90SAPS  C211 8735   2.150   1.550   9.467  0.0462 -0.4498  0.3154
   90SAPS  H11R 8736   2.235   1.586   9.528  0.3113 -1.5692  0.6259
   90SAPS  C212 8737   2.167   1.443   9.392 -0.5425 -0.2516 -0.4118
   90SAPS  H12R 8738   2.246   1.371   9.414 -2.2552 -1.6116  1.7379
   90SAPS  C213 8739   2.081   1.395   9.279  0.3917 -0.4644 -0.1998
   90SAPS  H13R 8740   2.083   1.478   9.205  0.9997 -1.8863 -1.8284
   90SAPS  H13S 8741   1.979   1.377   9.319  0.0245 -0.8413 -1.2750
   90SAPS  C214 8742   2.139   1.271   9.221  0.6488 -0.6602 -0.2743
   90SAPS  H14R 8743   2.120   1.179   9.279 -1.2516 -0.6028 -0.7316
   90SAPS  C215 8744   2.201   1.260   9.097 -0.6850 -0.2315 -0.8596
   90SAPS  H15R 8745   2.246   1.165   9.062  1.2458  0.0509  0.6337
   90SAPS  C216 8746   2.221   1.359   8.988 -0.7137 -0.2041 -0.5874
   90SAPS  H16R 8747   2.305   1.425   9.017 -1.7442  0.3908  1.2753
   90SAPS  H16S 8748   2.144   1.439   8.994  0.9916  1.5923 -1.5510
   90SAPS  C217 8749   2.228   1.316   8.842 -0.7263  0.5017 -0.1292
   90SAPS  H17R 8750   2.144   1.246   8.822 -1.1503  1.3052 -1.2764
   90SAPS  H17S 8751   2.322   1.260   8.824 -0.3140  0.3950  2.0808
   90SAPS  C218 8752   2.241   1.428   8.732 -0.3672 -0.5870  0.1403
   90SAPS  H18R 8753   2.276   1.381   8.638  2.1097  0.5696  0.4085
   90SAPS  H18S 8754   2.313   1.499   8.777 -0.6307 -0.9746  1.2190
   90SAPS  C219 8755   2.114   1.503   8.687 -0.0509 -0.3181  0.0528
   90SAPS  H19R 8756   2.068   1.553   8.775  0.1774  1.2624 -0.6952
   90SAPS  H19S 8757   2.042   1.424   8.658  1.2840 -1.4354 -0.2990
   90SAPS  C220 8758   2.144   1.613   8.580  0.4404  0.1833 -0.5654
   90SAPS  H20R 8759   2.208   1.695   8.618  0.3657  0.0296 -0.1092
   90SAPS  H20S 8760   2.050   1.660   8.544 -0.7672 -0.6292  1.3801
   90SAPS  H20T 8761   2.196   1.559   8.497  1.0949 -0.3770  0.1941
   90SAPS   C33 8762   2.837   1.785  10.201  0.7585 -0.8766  0.2168
   90SAPS   H3X 8763   2.837   1.678  10.231 -1.8125 -1.2889 -0.9127
   90SAPS   H3Y 8764   2.912   1.852  10.247  0.2246  0.8132 -1.2629
   90SAPS   C34 8765   2.860   1.800  10.050  0.8656 -0.3026 -0.1601
   90SAPS   H4X 8766   2.801   1.890  10.023  2.2467  0.3166 -1.2144
   90SAPS   H4Y 8767   2.816   1.708  10.006 -2.9874  1.4982 -0.5239
   90SAPS   C35 8768   2.997   1.831  10.005  0.3820 -0.1099  0.5334
   90SAPS   H5X 8769   3.073   1.755  10.032  2.7092  1.2496 -1.7522
   90SAPS   H5Y 8770   3.021   1.930  10.048  0.0088 -0.3948  1.4113
   90SAPS   C36 8771   2.995   1.843   9.850 -0.1460 -0.1283  0.2265
   90SAPS   H6X 8772   2.915   1.915   9.822 -1.8594 -1.5516  1.1898
   90SAPS   H6Y 8773   2.965   1.744   9.810 -2.6230  0.5254  0.2629
   90SAPS   C37 8774   3.134   1.872   9.788  0.1448 -0.2497  0.4207
   90SAPS   H7X 8775   3.201   1.783   9.785  2.0721  1.1525 -2.0557
   90SAPS   H7Y 8776   3.174   1.949   9.858  2.4778 -1.6611  0.7606
   90SAPS   C38 8777   3.126   1.929   9.651  1.0761 -0.2887 -0.3998
   90SAPS   H8X 8778   3.222   1.979   9.625  2.0585  0.2049  3.4346
   90SAPS   H8Y 8779   3.056   2.015   9.660  1.1878 -0.1170 -1.1124
   90SAPS   C39 8780   3.096   1.816   9.543  0.5431  0.4528  0.3927
   90SAPS   H9X 8781   3.035   1.738   9.593  0.5292 -0.4067 -0.9116
   90SAPS   H9Y 8782   3.188   1.760   9.516  0.5595 -0.5705  2.3653
   90SAPS  C310 8783   3.017   1.861   9.425 -0.3812  0.2257  0.1702
   90SAPS  H10X 8784   3.089   1.911   9.357  0.7902 -0.5851  0.7884
   90SAPS  H10Y 8785   2.939   1.925   9.473  0.4385  0.2864  1.4689
   90SAPS  C311 8786   2.954   1.743   9.348  0.7206 -0.4962  0.1969
   90SAPS  H11X 8787   2.863   1.790   9.306  1.3574  1.4442  0.9001
   90SAPS  H11Y 8788   2.915   1.661   9.413  1.3934  0.4175  1.8051
   90SAPS  C312 8789   3.056   1.667   9.257  0.2171 -0.5116 -0.0897
   90SAPS  H12X 8790   3.009   1.575   9.216  0.6994 -1.2031  0.8686
   90SAPS  H12Y 8791   3.142   1.634   9.319 -2.0962 -3.8380  1.7082
   90SAPS  C313 8792   3.099   1.740   9.130  0.3946  0.0161  0.4170
   90SAPS  H13X 8793   3.180   1.812   9.156 -0.2270  1.1526 -0.7024
   90SAPS  H13Y 8794   3.008   1.799   9.103  0.3323 -1.6732 -3.6911
   90SAPS  C314 8795   3.134   1.654   9.008 -0.1426  0.0237  0.2689
   90SAPS  H14X 8796   3.054   1.578   8.995  0.1693 -0.5665  1.6066
   90SAPS  H14Y 8797   3.222   1.589   9.026 -1.9829 -2.6700 -0.0076
   90SAPS  C315 8798   3.153   1.739   8.879 -0.3738 -0.0070 -0.6398
   90SAPS  H15X 8799   3.065   1.807   8.878 -0.8428 -0.5436  0.9726
   90SAPS  H15Y 8800   3.150   1.670   8.793  0.3800 -3.4316  1.8808
   90SAPS  C316 8801   3.274   1.824   8.874 -0.4433 -0.5010  0.1058
   90SAPS  H16X 8802   3.269   1.901   8.953  0.3502 -0.1869 -0.1454
   90SAPS  H16Y 8803   3.272   1.885   8.781 -0.3206  1.2371  1.1952
   90SAPS  C317 8804   3.399   1.732   8.875  0.2363  0.1003 -0.1310
   90SAPS  H17X 8805   3.404   1.678   8.972  1.9482  1.7090  0.7666
   90SAPS  H17Y 8806   3.484   1.804   8.878 -0.5519  1.0313  0.9595
   90SAPS  C318 8807   3.404   1.640   8.747  0.3760 -0.0334  0.9476
   90SAPS  H18X 8808   3.324   1.564   8.758  1.4414 -1.3032  0.1832
   90SAPS  H18Y 8809   3.495   1.582   8.719 -0.4213 -0.0981 -1.6862
   90SAPS  H18Z 8810   3.384   1.707   8.661 -0.3890 -3.1171 -1.4307
   91SAPS     N 8811   1.561   0.598   5.865  0.0899 -0.2798 -0.6301
   91SAPS   HN1 8812   1.521   0.549   5.782 -1.9655 -2.0905  1.2932
   91SAPS   HN2 8813   1.484   0.615   5.933  0.1972 -1.4473 -0.1885
   91SAPS   HN3 8814   1.579   0.697   5.841 -0.5742  0.2791  1.0773
   91SAPS   C12 8815   1.685   0.532   5.921  0.1279 -0.1374 -0.5559
   91SAPS  H12A 8816   1.651   0.430   5.923 -0.7743  0.1665  1.2157
   91SAPS   C13 8817   1.809   0.527   5.836 -0.3219 -0.2571  0.3910
   91SAPS  O13A 8818   1.808   0.568   5.718  0.5565  0.5176  0.0771
   91SAPS  O13B 8819   1.912   0.471   5.885 -0.5178  0.4776 -0.4497
   91SAPS   C11 8820   1.721   0.588   6.060 -0.6112  0.4436 -0.4792
   91SAPS  H11A 8821   1.773   0.683   6.034  0.8149 -0.0909  0.3026
   91SAPS  H11B 8822   1.789   0.518   6.113 -1.5129 -2.7722 -3.2748
   91SAPS     P 8823   1.527   0.516   6.240  0.2163  0.0665  0.2840
   91SAPS   O13 8824   1.413   0.584   6.311 -0.4261 -0.2385 -0.5286
   91SAPS   O14 8825   1.500   0.389   6.158  0.1144 -0.0869 -0.2872
   91SAPS   O12 8826   1.607   0.619   6.148  0.0445 -0.6894  0.1244
   91SAPS   O11 8827   1.640   0.481   6.356  0.1693 -0.1197  0.0151
   91SAPS    C1 8828   1.706   0.594   6.417  0.0438 -0.1761 -0.7654
   91SAPS    HA 8829   1.816   0.580   6.411  0.0267 -0.3680 -0.6472
   91SAPS    HB 8830   1.694   0.691   6.364  2.7673  1.0244  0.6274
   91SAPS    C2 8831   1.667   0.603   6.565  0.4651  0.6953  0.4351
   91SAPS    HS 8832   1.695   0.704   6.601 -1.8284  1.8437 -0.7668
   91SAPS   O21 8833   1.727   0.501   6.655  0.0194 -0.2519 -0.3923
   91SAPS   C21 8834   1.853   0.519   6.681 -0.0597 -0.6438 -0.4921
   91SAPS   O22 8835   1.924   0.606   6.627  0.3779  0.5023  0.6112
   91SAPS   C22 8836   1.900   0.417   6.780  0.3237 -0.1895  0.4613
   91SAPS   H2R 8837   1.824   0.424   6.862  2.8200  2.5165  2.7557
   91SAPS   H2S 8838   1.910   0.313   6.742 -0.1227 -0.1816  0.3125
   91SAPS    C3 8839   1.510   0.602   6.579 -0.5200 -0.1344 -0.2068
   91SAPS    HX 8840   1.468   0.516   6.524 -0.7993 -0.0885 -0.0692
   91SAPS    HY 8841   1.470   0.692   6.527 -0.3021  0.4336  0.5870
   91SAPS   O31 8842   1.471   0.592   6.723 -0.0387  0.9834  0.8671
   91SAPS   C31 8843   1.459   0.712   6.789 -0.2763  0.7205  0.3264
   91SAPS   O32 8844   1.455   0.819   6.731  0.3017 -0.3236 -0.3122
   91SAPS   C32 8845   1.443   0.692   6.936 -0.2450  0.5940 -0.3715
   91SAPS   H2X 8846   1.496   0.773   6.992  1.5649 -0.4740 -0.4486
   91SAPS   H2Y 8847   1.493   0.599   6.970 -0.8927 -1.1234 -3.7577
   91SAPS   C23 8848   2.041   0.448   6.843  0.0023 -0.1755  0.0443
   91SAPS   H3R 8849   2.096   0.515   6.774 -1.0401  0.4377 -0.2162
   91SAPS   H3S 8850   2.098   0.354   6.853  0.9306  0.1048 -2.1082
   91SAPS   C24 8851   2.043   0.533   6.966 -0.7100 -0.2436 -0.5674
   91SAPS   H4R 8852   2.000   0.632   6.940  1.6529  0.7479 -0.8820
   91SAPS   H4S 8853   2.148   0.551   6.996 -0.9335  1.2710 -0.6356
   91SAPS   C25 8854   1.973   0.462   7.084  0.7986 -0.3161  0.0486
   91SAPS   H5R 8855   2.032   0.371   7.101  0.2854 -0.6414  0.1023
   91SAPS   C26 8856   1.859   0.490   7.148 -0.3172  0.7059 -0.3018
   91SAPS   H6R 8857   1.835   0.418   7.228 -0.0945 -0.9870 -1.7048
   91SAPS   C27 8858   1.762   0.597   7.130 -0.2127 -0.6066  0.2681
   91SAPS   H7R 8859   1.663   0.577   7.176  0.1943 -2.7228  0.3386
   91SAPS   H7S 8860   1.749   0.611   7.020 -0.0764 -1.8298  0.0814
   91SAPS   C28 8861   1.815   0.721   7.199  0.1594 -0.2067 -0.2689
   91SAPS   H8R 8862   1.883   0.785   7.141 -1.9936  1.2874 -1.3000
   91SAPS   C29 8863   1.763   0.775   7.312 -0.4448  0.5056  0.2164
   91SAPS   H9R 8864   1.806   0.867   7.353 -0.1191 -0.4154  2.0433
   91SAPS  C210 8865   1.658   0.711   7.402 -0.2287  0.5224  0.1736
   91SAPS  H10R 8866   1.579   0.665   7.339  0.6393  0.1834 -0.7061
   91SAPS  H10S 8867   1.624   0.790   7.473  0.2655  0.6738  0.2465
   91SAPS  C211 8868   1.720   0.606   7.490  0.6130  0.7641 -0.0203
   91SAPS  H11R 8869   1.792   0.542   7.437  0.2581  0.1138  0.2634
   91SAPS  C212 8870   1.689   0.577   7.620 -0.4664  0.2155  1.2352
   91SAPS  H12R 8871   1.758   0.509   7.672  1.3908  1.8889  1.0858
   91SAPS  C213 8872   1.597   0.647   7.716 -0.8942  0.5184  0.4330
   91SAPS  H13R 8873   1.546   0.567   7.773 -0.1322  0.2137  0.6956
   91SAPS  H13S 8874   1.514   0.708   7.672 -3.8609 -2.5962  1.2912
   91SAPS  C214 8875   1.673   0.742   7.808 -0.5106 -0.1433 -0.0746
   91SAPS  H14R 8876   1.693   0.843   7.768  1.6980  0.1596  1.5390
   91SAPS  C215 8877   1.709   0.720   7.936 -0.0771 -1.0944 -0.2791
   91SAPS  H15R 8878   1.758   0.800   7.993 -1.2996  0.8039 -1.7489
   91SAPS  C216 8879   1.665   0.591   8.017 -0.1406 -0.5037  0.7373
   91SAPS  H16R 8880   1.743   0.511   8.018 -0.4173 -0.7938  0.1294
   91SAPS  H16S 8881   1.578   0.537   7.973  2.1991 -2.5067 -1.7688
   91SAPS  C217 8882   1.611   0.635   8.159  1.0079 -0.2396 -0.1566
   91SAPS  H17R 8883   1.511   0.681   8.144  1.7557  1.4904 -0.0648
   91SAPS  H17S 8884   1.684   0.710   8.198 -0.6051  1.0448  0.5131
   91SAPS  C218 8885   1.612   0.519   8.253 -0.1205  0.3049 -0.3720
   91SAPS  H18R 8886   1.712   0.471   8.256 -0.7409 -1.0987 -1.1152
   91SAPS  H18S 8887   1.536   0.449   8.211  0.9014 -0.4512 -1.0270
   91SAPS  C219 8888   1.564   0.545   8.403  0.2748 -0.3004  0.5021
   91SAPS  H19R 8889   1.546   0.448   8.453  0.4836  0.2337  1.6523
   91SAPS  H19S 8890   1.462   0.589   8.396  0.4840 -0.0262 -1.6139
   91SAPS  C220 8891   1.652   0.640   8.477  0.0786  0.2500  0.6212
   91SAPS  H20R 8892   1.633   0.662   8.584  0.6368  0.5032  0.6763
   91SAPS  H20S 8893   1.650   0.741   8.430 -1.9068  0.0522  0.2042
   91SAPS  H20T 8894   1.760   0.614   8.473 -0.1788 -0.7147 -0.7336
   91SAPS   C33 8895   1.288   0.697   6.973  0.0359 -0.1334  0.0509
   91SAPS   H3X 8896   1.232   0.620   6.916  1.7281 -2.2733  1.1678
   91SAPS   H3Y 8897   1.257   0.795   6.929 -3.0423 -1.0555 -0.1165
   91SAPS   C34 8898   1.268   0.692   7.122 -0.2401  0.6661  0.2277
   91SAPS   H4X 8899   1.307   0.597   7.164  0.3120  1.2358  1.0449
   91SAPS   H4Y 8900   1.160   0.681   7.142 -0.3861 -0.5741 -1.1198
   91SAPS   C35 8901   1.319   0.805   7.206 -0.2631  0.7518 -0.8445
   91SAPS   H5X 8902   1.280   0.897   7.158 -1.3744  0.2231 -0.9791
   91SAPS   H5Y 8903   1.430   0.810   7.207 -0.2162 -0.1129 -0.9787
   91SAPS   C36 8904   1.257   0.809   7.345 -0.1076  0.6972 -0.0993
   91SAPS   H6X 8905   1.264   0.715   7.404 -0.5099  1.2622  0.8772
   91SAPS   H6Y 8906   1.147   0.822   7.334 -0.2051  0.5259  0.6316
   91SAPS   C37 8907   1.309   0.923   7.436  0.6249  0.0355  0.0615
   91SAPS   H7X 8908   1.292   1.016   7.378  0.5032  0.4218  0.7085
   91SAPS   H7Y 8909   1.420   0.916   7.432  0.5278 -1.1860 -2.0499
   91SAPS   C38 8910   1.237   0.935   7.568 -0.1644 -0.1182  0.2804
   91SAPS   H8X 8911   1.239   0.834   7.614  0.6491 -0.3544 -0.2379
   91SAPS   H8Y 8912   1.131   0.958   7.547 -0.2825 -1.9178 -1.4067
   91SAPS   C39 8913   1.299   1.048   7.661 -0.4482  0.5264 -0.3839
   91SAPS   H9X 8914   1.266   1.144   7.617 -1.1261  1.4599  1.9977
   91SAPS   H9Y 8915   1.409   1.043   7.649  0.0445  3.0953  2.0856
   91SAPS  C310 8916   1.269   1.040   7.812  0.4662  0.5933 -0.4403
   91SAPS  H10X 8917   1.162   1.011   7.826  0.9639 -0.4141  1.5972
   91SAPS  H10Y 8918   1.292   1.141   7.852 -1.3366  0.6733  0.4928
   91SAPS  C311 8919   1.344   0.925   7.889 -0.0445 -0.5643 -0.5360
   91SAPS  H11X 8920   1.453   0.945   7.880 -0.4598  1.0665 -2.6207
   91SAPS  H11Y 8921   1.312   0.840   7.825 -4.5331 -0.5244  1.2522
   91SAPS  C312 8922   1.318   0.906   8.047  0.8092  0.1766  0.3182
   91SAPS  H12X 8923   1.350   0.804   8.076 -0.4703  0.0729  1.4653
   91SAPS  H12Y 8924   1.209   0.908   8.069  0.1189  1.8597 -2.6277
   91SAPS  C313 8925   1.384   1.012   8.134 -0.1732 -0.1665  0.1503
   91SAPS  H13X 8926   1.388   1.111   8.083  2.4603  0.1078  0.7587
   91SAPS  H13Y 8927   1.487   0.976   8.151 -0.4029 -0.2334  1.4687
   91SAPS  C314 8928   1.313   1.025   8.273 -1.0891 -0.7785  0.6916
   91SAPS  H14X 8929   1.205   1.025   8.245 -1.1689  1.8246  0.7093
   91SAPS  H14Y 8930   1.326   1.125   8.320  1.4119 -0.7772  0.1308
   91SAPS  C315 8931   1.352   0.916   8.373  0.0340 -0.1967 -0.1239
   91SAPS  H15X 8932   1.447   0.944   8.424  0.5475  0.5831 -1.4465
   91SAPS  H15Y 8933   1.376   0.828   8.309  2.8582  0.1613  0.3174
   91SAPS  C316 8934   1.234   0.889   8.469  0.4399  0.2615  0.2612
   91SAPS  H16X 8935   1.262   0.786   8.501  1.5111  0.4509 -0.0176
   91SAPS  H16Y 8936   1.140   0.881   8.410  0.2348 -2.5681  0.8060
   91SAPS  C317 8937   1.206   0.981   8.582  0.3952 -0.4714 -0.0837
   91SAPS  H17X 8938   1.169   1.079   8.546  2.1581  0.8094  1.3825
   91SAPS  H17Y 8939   1.307   0.989   8.627  0.2999 -0.9739  0.2342
   91SAPS  C318 8940   1.109   0.927   8.691 -0.5985  0.1255 -0.1549
   91SAPS  H18X 8941   1.109   1.005   8.769  1.5293  0.0691 -0.0405
   91SAPS  H18Y 8942   1.158   0.833   8.726  0.0415  0.4442 -0.1725
   91SAPS  H18Z 8943   1.009   0.906   8.648 -1.0351  1.1243  0.3608
   92SAPS     N 8944   0.821   5.465   6.198  0.2877 -0.4129 -0.9473
   92SAPS   HN1 8945   0.858   5.372   6.223  3.4341  0.8358 -0.4629
   92SAPS   HN2 8946   0.872   5.505   6.116  2.0093 -0.9437 -0.1819
   92SAPS   HN3 8947   0.835   5.526   6.282  0.4023 -0.8834 -0.6237
   92SAPS   C12 8948   0.675   5.471   6.190  0.0184  0.2306  0.2901
   92SAPS  H12A 8949   0.650   5.487   6.086 -2.5621 -0.4233  0.7361
   92SAPS   C13 8950   0.603   5.338   6.244  0.2448  0.3814  0.5156
   92SAPS  O13A 8951   0.673   5.236   6.267 -0.7892 -0.0830 -0.1041
   92SAPS  O13B 8952   0.477   5.332   6.226  0.6686 -0.0803 -0.5844
   92SAPS   C11 8953   0.626   5.583   6.285 -0.0803  0.1105 -0.0434
   92SAPS  H11A 8954   0.517   5.567   6.284  0.1350 -1.5453 -1.0142
   92SAPS  H11B 8955   0.638   5.690   6.256 -2.6278  0.7853  1.1445
   92SAPS     P 8956   0.595   5.646   6.543  0.2286  0.3231  0.1543
   92SAPS   O13 8957   0.600   5.790   6.514  0.0170 -0.1919  0.5091
   92SAPS   O14 8958   0.461   5.584   6.569  0.1732 -0.0666  0.0236
   92SAPS   O12 8959   0.663   5.559   6.424 -0.3643  0.2467  0.2965
   92SAPS   O11 8960   0.694   5.612   6.661  0.4116  0.8975 -0.2192
   92SAPS    C1 8961   0.743   5.480   6.674 -0.1725  0.0798 -0.2833
   92SAPS    HA 8962   0.668   5.402   6.648 -0.4395  0.6647 -1.3226
   92SAPS    HB 8963   0.832   5.459   6.612  0.8064 -0.9524  1.3828
   92SAPS    C2 8964   0.791   5.452   6.819  0.9548 -0.2570 -1.8463
   92SAPS    HS 8965   0.814   5.343   6.827 -2.4600 -0.9877  0.4198
   92SAPS   O21 8966   0.691   5.488   6.929 -0.3263 -0.2248  0.2178
   92SAPS   C21 8967   0.595   5.406   6.940 -0.4596  0.5338 -0.5627
   92SAPS   O22 8968   0.586   5.306   6.879  0.3487  0.2369  0.3893
   92SAPS   C22 8969   0.500   5.455   7.053  0.2378 -0.6958 -0.5773
   92SAPS   H2R 8970   0.453   5.553   7.027  1.1869  0.5667  2.0495
   92SAPS   H2S 8971   0.414   5.385   7.052 -0.5899  0.2808  0.0211
   92SAPS    C3 8972   0.926   5.517   6.852 -0.7934 -0.1483  1.7397
   92SAPS    HX 8973   0.916   5.626   6.830  3.0378  0.0706  0.4338
   92SAPS    HY 8974   1.004   5.481   6.783  0.1338 -1.2861  3.3138
   92SAPS   O31 8975   0.956   5.487   6.989 -0.2134 -0.3235  0.2739
   92SAPS   C31 8976   1.048   5.563   7.053 -1.0794  1.0825  0.5868
   92SAPS   O32 8977   1.119   5.641   6.997 -0.6893  0.3618 -0.2598
   92SAPS   C32 8978   1.041   5.547   7.206 -0.1836  0.1753 -0.0368
   92SAPS   H2X 8979   0.974   5.461   7.228  0.5184 -0.3514  0.0681
   92SAPS   H2Y 8980   1.019   5.644   7.254  2.4060  1.9140 -2.1147
   92SAPS   C23 8981   0.557   5.448   7.201 -0.1117  0.2457  0.0784
   92SAPS   H3R 8982   0.610   5.351   7.204 -0.6332 -0.0510 -0.2117
   92SAPS   H3S 8983   0.464   5.442   7.262  0.0730 -0.7360  0.2647
   92SAPS   C24 8984   0.641   5.577   7.237  0.1938  0.4003  0.0905
   92SAPS   H4R 8985   0.716   5.590   7.157 -0.0993 -1.3675 -0.5112
   92SAPS   H4S 8986   0.687   5.559   7.337 -0.7312 -1.9877  0.1443
   92SAPS   C25 8987   0.543   5.695   7.250 -0.6482  0.3946  0.3796
   92SAPS   H5R 8988   0.519   5.742   7.153  0.4642 -0.9163 -0.5623
   92SAPS   C26 8989   0.485   5.738   7.364 -0.3994 -0.1204  0.9685
   92SAPS   H6R 8990   0.444   5.839   7.354  3.1760  1.2349 -2.1369
   92SAPS   C27 8991   0.510   5.688   7.506 -0.3834 -0.0357  0.0692
   92SAPS   H7R 8992   0.474   5.583   7.498 -0.3523 -0.0255 -0.2367
   92SAPS   H7S 8993   0.434   5.739   7.569  1.4541  1.3115  1.2658
   92SAPS   C28 8994   0.654   5.687   7.564  0.2613  0.5563 -0.0296
   92SAPS   H8R 8995   0.730   5.701   7.485 -0.8663 -0.9132 -1.4486
   92SAPS   C29 8996   0.684   5.657   7.688  0.0873  0.6180  0.0522
   92SAPS   H9R 8997   0.792   5.655   7.707  0.2952  0.6201 -1.0580
   92SAPS  C210 8998   0.590   5.627   7.804  0.4226  0.1701  0.4358
   92SAPS  H10R 8999   0.494   5.579   7.776  0.3971 -0.1560  1.0556
   92SAPS  H10S 9000   0.551   5.721   7.849  1.3829  1.4337 -1.3037
   92SAPS  C211 9001   0.667   5.535   7.899  0.1643  0.2154 -0.0322
   92SAPS  H11R 9002   0.698   5.436   7.864  0.6616  0.1972  0.4409
   92SAPS  C212 9003   0.709   5.563   8.025  0.1392 -0.6805  0.0359
   92SAPS  H12R 9004   0.768   5.486   8.078 -0.0478  0.3528  1.8002
   92SAPS  C213 9005   0.703   5.690   8.105  0.1968 -0.1632 -0.4993
   92SAPS  H13R 9006   0.682   5.774   8.035  0.9029  0.7036  0.3087
   92SAPS  H13S 9007   0.797   5.713   8.160 -1.3004  0.3118  2.0103
   92SAPS  C214 9008   0.584   5.711   8.192  0.5684  0.3492 -0.2107
   92SAPS  H14R 9009   0.496   5.763   8.151 -1.4861 -2.0797  0.8301
   92SAPS  C215 9010   0.569   5.675   8.326 -0.1935 -0.0490  0.4278
   92SAPS  H15R 9011   0.471   5.672   8.376 -0.3008  1.0485  0.3076
   92SAPS  C216 9012   0.669   5.596   8.403  0.0617  0.6212  0.6015
   92SAPS  H16R 9013   0.746   5.534   8.353  1.3309  1.0015  1.9915
   92SAPS  H16S 9014   0.614   5.523   8.467  0.7949  0.1210  0.6776
   92SAPS  C217 9015   0.753   5.687   8.496 -0.9904  0.7981  0.0404
   92SAPS  H17R 9016   0.775   5.618   8.580 -0.6835  0.0398 -0.6496
   92SAPS  H17S 9017   0.699   5.772   8.544 -1.8752 -1.2141  2.8281
   92SAPS  C218 9018   0.881   5.736   8.421 -0.1151 -0.4136 -0.7130
   92SAPS  H18R 9019   0.848   5.801   8.337  0.9388  0.8250 -0.2067
   92SAPS  H18S 9020   0.936   5.649   8.379 -1.2160  0.0460 -3.2663
   92SAPS  C219 9021   0.964   5.827   8.523  0.6447 -0.3071  1.0235
   92SAPS  H19R 9022   0.899   5.908   8.564  0.7832 -0.1880  1.0105
   92SAPS  H19S 9023   1.042   5.882   8.466 -0.2430 -1.0717 -1.0345
   92SAPS  C220 9024   1.026   5.758   8.641 -0.1320 -0.4558 -0.0406
   92SAPS  H20R 9025   0.937   5.745   8.706 -1.2302  0.1959 -1.3502
   92SAPS  H20S 9026   1.107   5.809   8.697 -1.2501  0.1470  1.0883
   92SAPS  H20T 9027   1.070   5.661   8.609  0.1620 -0.2081 -0.3883
   92SAPS   C33 9028   1.180   5.507   7.263  0.0199 -0.3583 -0.6910
   92SAPS   H3X 9029   1.248   5.577   7.210 -0.9112  0.7199 -0.4982
   92SAPS   H3Y 9030   1.194   5.400   7.234 -1.3320 -0.6992 -0.1575
   92SAPS   C34 9031   1.185   5.517   7.418  0.4182 -0.3012 -0.0193
   92SAPS   H4X 9032   1.187   5.624   7.448 -1.4058 -0.1367 -0.3558
   92SAPS   H4Y 9033   1.282   5.476   7.455  2.3731  2.6669 -1.4339
   92SAPS   C35 9034   1.068   5.449   7.487  0.2240 -0.4496  0.2127
   92SAPS   H5X 9035   1.086   5.339   7.482  0.2291 -0.4277 -0.3433
   92SAPS   H5Y 9036   0.973   5.476   7.436  1.6207  1.7639 -1.3878
   92SAPS   C36 9037   1.050   5.490   7.637  0.9962  0.2342  0.0482
   92SAPS   H6X 9038   0.947   5.461   7.667  1.6571  0.6931  3.1333
   92SAPS   H6Y 9039   1.051   5.600   7.653  1.0105  0.2077  0.2285
   92SAPS   C37 9040   1.148   5.418   7.725  0.0739  0.1555  0.1584
   92SAPS   H7X 9041   1.250   5.434   7.683 -0.5192  0.4405 -1.2239
   92SAPS   H7Y 9042   1.129   5.309   7.728  0.0476  0.1686  0.6413
   92SAPS   C38 9043   1.147   5.467   7.876 -0.0264  0.2283 -0.5773
   92SAPS   H8X 9044   1.188   5.386   7.940  0.8456  0.1648 -1.1782
   92SAPS   H8Y 9045   1.044   5.498   7.903  0.4831  1.2034  0.3190
   92SAPS   C39 9046   1.250   5.583   7.898  0.0673 -0.0887  0.2946
   92SAPS   H9X 9047   1.230   5.656   7.816 -1.1533  0.7619  1.3123
   92SAPS   H9Y 9048   1.349   5.541   7.873  0.0367 -0.1579  0.2906
   92SAPS  C310 9049   1.248   5.654   8.036 -0.7799 -0.1996  0.3891
   92SAPS  H10X 9050   1.152   5.710   8.041 -0.0840  1.1791 -0.8649
   92SAPS  H10Y 9051   1.326   5.733   8.036 -1.8541  0.8914  0.6557
   92SAPS  C311 9052   1.263   5.546   8.141 -0.3843  0.2204 -0.1005
   92SAPS  H11X 9053   1.324   5.463   8.101 -2.2869  0.1812 -3.2675
   92SAPS  H11Y 9054   1.167   5.492   8.157 -0.5442  0.6223  0.3387
   92SAPS  C312 9055   1.317   5.598   8.277  0.2452 -0.1794 -0.2734
   92SAPS  H12X 9056   1.244   5.673   8.315  1.5218  1.0256 -0.1331
   92SAPS  H12Y 9057   1.416   5.646   8.266  0.4510 -0.6501 -0.4912
   92SAPS  C313 9058   1.328   5.478   8.376  0.0445  0.0514  0.1857
   92SAPS  H13X 9059   1.378   5.388   8.335 -0.9099 -0.9874  1.2256
   92SAPS  H13Y 9060   1.230   5.437   8.409 -0.8878  0.5978 -1.7463
   92SAPS  C314 9061   1.402   5.512   8.502 -0.0954  0.1104 -0.5850
   92SAPS  H14X 9062   1.371   5.613   8.536 -2.2227 -0.8342  0.4912
   92SAPS  H14Y 9063   1.512   5.528   8.497  0.0058  0.0866  0.9503
   92SAPS  C315 9064   1.378   5.407   8.618 -0.3300  0.1768 -0.8945
   92SAPS  H15X 9065   1.413   5.305   8.590 -0.7834 -0.6513  1.3523
   92SAPS  H15Y 9066   1.271   5.420   8.641  0.2350  0.4780  1.9354
   92SAPS  C316 9067   1.448   5.436   8.760 -0.5632  0.4609  0.3648
   92SAPS  H16X 9068   1.553   5.469   8.745  0.5224 -2.7309  0.1655
   92SAPS  H16Y 9069   1.456   5.340   8.816 -1.3880 -1.1148 -2.0897
   92SAPS  C317 9070   1.369   5.533   8.852  0.9424  0.2361 -0.2093
   92SAPS  H17X 9071   1.267   5.496   8.877  0.4234  2.0553  0.5751
   92SAPS  H17Y 9072   1.354   5.628   8.797  2.3063  1.0295  0.7053
   92SAPS  C318 9073   1.449   5.551   8.984 -0.3763 -0.6328  0.2639
   92SAPS  H18X 9074   1.556   5.571   8.960 -0.8333  1.9127 -0.0053
   92SAPS  H18Y 9075   1.456   5.455   9.039  1.3337 -2.8818 -3.4921
   92SAPS  H18Z 9076   1.405   5.633   9.045  0.2475 -0.4855  0.5211
   93SAPS     N 9077   2.033   5.837   6.413  0.5077 -0.1163  0.4513
   93SAPS   HN1 9078   2.000   5.876   6.504 -0.1419 -0.4983  0.3906
   93SAPS   HN2 9079   2.114   5.901   6.401 -0.7475  1.4639  0.0693
   93SAPS   HN3 9080   1.966   5.867   6.338  0.6879 -1.0010 -0.0793
   93SAPS   C12 9081   2.049   5.702   6.411 -0.1235  0.5110 -0.0690
   93SAPS  H12A 9082   1.958   5.654   6.377  0.0907  0.4858 -0.5998
   93SAPS   C13 9083   2.161   5.661   6.314  0.2103  0.9377 -0.1847
   93SAPS  O13A 9084   2.229   5.741   6.243  0.1454 -0.1895  0.2563
   93SAPS  O13B 9085   2.183   5.539   6.313  0.0600  0.4787 -0.4182
   93SAPS   C11 9086   2.080   5.666   6.560  0.1470  0.7127  0.1069
   93SAPS  H11A 9087   2.149   5.731   6.617  0.9009 -0.6455  0.8107
   93SAPS  H11B 9088   2.126   5.564   6.556  0.4256  0.7820  1.3563
   93SAPS     P 9089   1.894   5.758   6.716 -0.4996 -0.3019  0.2219
   93SAPS   O13 9090   1.956   5.887   6.670  0.4241  0.6088 -0.2549
   93SAPS   O14 9091   1.750   5.743   6.704 -0.5064 -0.7446  0.4757
   93SAPS   O12 9092   1.958   5.639   6.633  0.1412 -0.7298 -0.3013
   93SAPS   O11 9093   1.940   5.739   6.866 -0.0313  0.3879  0.0238
   93SAPS    C1 9094   1.951   5.603   6.918 -0.2905 -0.2927 -0.6423
   93SAPS    HA 9095   1.889   5.532   6.860  0.9168  0.2276 -2.6620
   93SAPS    HB 9096   2.060   5.581   6.914 -0.2889 -0.2933 -0.5965
   93SAPS    C2 9097   1.913   5.586   7.078  0.8444 -0.1933 -0.2989
   93SAPS    HS 9098   1.820   5.645   7.094  1.8496  1.1691  0.6942
   93SAPS   O21 9099   2.016   5.640   7.161  0.4667 -0.1771  0.0776
   93SAPS   C21 9100   2.009   5.768   7.184 -0.2500 -1.1045  0.0727
   93SAPS   O22 9101   1.924   5.846   7.142 -0.7699 -0.2070 -0.0342
   93SAPS   C22 9102   2.122   5.818   7.270  0.3968 -0.8259  0.0480
   93SAPS   H2R 9103   2.203   5.743   7.287  2.4704  1.5094  1.1795
   93SAPS   H2S 9104   2.172   5.903   7.219  0.7735 -0.5209  0.9079
   93SAPS    C3 9105   1.902   5.437   7.111 -0.3858  1.1190  0.4461
   93SAPS    HX 9106   1.971   5.382   7.044 -1.2892  0.3095  0.1458
   93SAPS    HY 9107   1.803   5.399   7.078  0.8122 -3.1487  1.1612
   93SAPS   O31 9108   1.920   5.417   7.248  0.1487  1.0283 -0.8206
   93SAPS   C31 9109   1.996   5.315   7.294  0.4866  0.0846 -0.4497
   93SAPS   O32 9110   2.062   5.240   7.225  0.1397 -0.3377 -0.7565
   93SAPS   C32 9111   2.002   5.317   7.442  0.7311 -0.8414  0.5779
   93SAPS   H2X 9112   1.906   5.364   7.474  1.9984  2.2513  0.1748
   93SAPS   H2Y 9113   2.084   5.387   7.469 -0.1559 -0.4210  2.2838
   93SAPS   C23 9114   2.087   5.867   7.413 -0.1587 -0.0405 -1.0325
   93SAPS   H3R 9115   1.988   5.918   7.410  0.0356  0.7081  1.9747
   93SAPS   H3S 9116   2.160   5.946   7.441 -0.4576 -0.6469  1.7390
   93SAPS   C24 9117   2.086   5.762   7.518 -0.5321  0.5239  0.2362
   93SAPS   H4R 9118   2.188   5.718   7.529  0.0478  2.0215  1.1504
   93SAPS   H4S 9119   2.021   5.677   7.489  0.6598  0.4498 -2.4566
   93SAPS   C25 9120   2.055   5.815   7.659  0.9342  0.3647 -0.4515
   93SAPS   H5R 9121   1.990   5.904   7.658 -0.9470 -0.8298  2.3799
   93SAPS   C26 9122   2.097   5.767   7.774 -0.1886  0.3534 -0.5501
   93SAPS   H6R 9123   2.063   5.816   7.867  0.5094  0.8879 -0.5703
   93SAPS   C27 9124   2.187   5.648   7.804  0.5525  0.5559 -0.9909
   93SAPS   H7R 9125   2.279   5.687   7.852 -1.3332  0.8054  2.7378
   93SAPS   H7S 9126   2.216   5.602   7.707 -1.1784 -0.2929 -1.1285
   93SAPS   C28 9127   2.130   5.539   7.896  0.5388 -0.9913  0.4745
   93SAPS   H8R 9128   2.051   5.475   7.856 -0.5070 -0.5283  1.7248
   93SAPS   C29 9129   2.130   5.534   8.029 -0.3657 -1.0044  0.2699
   93SAPS   H9R 9130   2.079   5.450   8.080  0.4044 -1.9244 -0.4409
   93SAPS  C210 9131   2.205   5.628   8.123 -0.2792  0.1222  0.6777
   93SAPS  H10R 9132   2.139   5.667   8.203 -1.6416 -1.3273  0.2946
   93SAPS  H10S 9133   2.227   5.721   8.065 -0.3279 -0.8349 -0.9178
   93SAPS  C211 9134   2.337   5.563   8.159 -0.1483 -0.4513  0.2583
   93SAPS  H11R 9135   2.393   5.509   8.081 -0.3436  1.1806 -1.0567
   93SAPS  C212 9136   2.386   5.568   8.286 -0.0311  0.6558 -0.3899
   93SAPS  H12R 9137   2.485   5.522   8.300  0.7475  1.6825 -2.1737
   93SAPS  C213 9138   2.336   5.648   8.404 -0.1486 -0.1743  0.0384
   93SAPS  H13R 9139   2.239   5.701   8.391 -1.4876 -1.4261  3.4768
   93SAPS  H13S 9140   2.413   5.724   8.429  0.0698  0.5598 -2.5958
   93SAPS  C214 9141   2.305   5.565   8.520 -0.4367 -0.9574  0.1978
   93SAPS  H14R 9142   2.216   5.500   8.510 -1.0479 -0.0022 -0.8510
   93SAPS  C215 9143   2.369   5.554   8.639 -0.6852  0.4893 -0.2057
   93SAPS  H15R 9144   2.326   5.487   8.714 -1.2090  1.0935  0.0426
   93SAPS  C216 9145   2.498   5.625   8.676 -0.3985 -0.0028 -0.0458
   93SAPS  H16R 9146   2.488   5.723   8.728  0.0147  0.0288 -0.0246
   93SAPS  H16S 9147   2.571   5.639   8.594  0.4029  0.0188  0.6565
   93SAPS  C217 9148   2.583   5.545   8.783 -0.3960  0.6566 -0.2128
   93SAPS  H17R 9149   2.587   5.440   8.749 -0.4967 -0.2061  2.2274
   93SAPS  H17S 9150   2.543   5.552   8.887  0.5754 -0.9438  0.2979
   93SAPS  C218 9151   2.723   5.609   8.782  0.3310  0.4131 -0.6865
   93SAPS  H18R 9152   2.719   5.719   8.799 -1.3988  0.4141 -0.9058
   93SAPS  H18S 9153   2.779   5.600   8.687  1.6458 -0.2792  0.1222
   93SAPS  C219 9154   2.810   5.550   8.898 -0.4418  0.3191  0.4886
   93SAPS  H19R 9155   2.908   5.590   8.866 -0.9715 -0.1985 -1.9910
   93SAPS  H19S 9156   2.809   5.439   8.894  1.8919  0.2831 -0.1688
   93SAPS  C220 9157   2.756   5.599   9.029 -0.3643 -0.0854 -0.0237
   93SAPS  H20R 9158   2.672   5.529   9.053  1.3568 -1.6096  2.0244
   93SAPS  H20S 9159   2.723   5.705   9.021  3.7684  1.5646  1.9508
   93SAPS  H20T 9160   2.829   5.591   9.112  0.0055 -3.3491 -0.5332
   93SAPS   C33 9161   2.029   5.179   7.503 -0.1145  0.2951 -0.1072
   93SAPS   H3X 9162   2.127   5.146   7.463 -0.1865 -0.4568  0.3162
   93SAPS   H3Y 9163   1.952   5.102   7.480  0.7056 -0.2808 -0.9733
   93SAPS   C34 9164   2.042   5.183   7.653  0.3797 -0.2576  0.3523
   93SAPS   H4X 9165   1.953   5.227   7.704  1.3197  0.5940  1.3189
   93SAPS   H4Y 9166   2.141   5.228   7.678  1.1969  0.2996 -3.3931
   93SAPS   C35 9167   2.047   5.034   7.698 -0.1894  0.7736 -0.3139
   93SAPS   H5X 9168   2.147   4.992   7.676 -0.0943 -0.3569  1.9686
   93SAPS   H5Y 9169   1.963   4.977   7.654 -1.4000  1.1904  1.3439
   93SAPS   C36 9170   2.024   5.023   7.857 -0.3175 -0.7234  0.2113
   93SAPS   H6X 9171   2.020   4.914   7.879  0.3457 -0.7822  0.0610
   93SAPS   H6Y 9172   1.928   5.071   7.889 -0.1112 -0.7143  0.8285
   93SAPS   C37 9173   2.143   5.083   7.939  0.7251 -0.0522 -0.4176
   93SAPS   H7X 9174   2.128   5.193   7.943  1.3936  0.0127  0.7430
   93SAPS   H7Y 9175   2.244   5.065   7.897  0.5076  0.3012 -1.1201
   93SAPS   C38 9176   2.125   5.041   8.084 -0.4403  0.1183  0.2661
   93SAPS   H8X 9177   2.139   4.931   8.084  1.1891  0.3018  0.0235
   93SAPS   H8Y 9178   2.024   5.064   8.125 -0.1183  0.0267  1.1386
   93SAPS   C39 9179   2.228   5.107   8.170 -0.6609  0.5558  0.2958
   93SAPS   H9X 9180   2.198   5.214   8.168 -0.8579  0.5002  0.3164
   93SAPS   H9Y 9181   2.336   5.107   8.141 -0.6243 -0.4855  0.3873
   93SAPS  C310 9182   2.222   5.058   8.316  0.1332  0.4410 -0.1279
   93SAPS  H10X 9183   2.289   4.969   8.321 -0.0166  0.1779 -2.0221
   93SAPS  H10Y 9184   2.122   5.022   8.349 -0.4953  1.6659 -0.6296
   93SAPS  C311 9185   2.276   5.161   8.411 -0.0436 -0.8180 -0.1557
   93SAPS  H11X 9186   2.191   5.230   8.432  1.5139  1.3669 -0.6589
   93SAPS  H11Y 9187   2.360   5.224   8.375 -0.1242 -0.4219  0.3354
   93SAPS  C312 9188   2.328   5.090   8.536 -0.1860  0.2190 -0.0800
   93SAPS  H12X 9189   2.385   4.994   8.527 -0.6610  0.0622 -1.5410
   93SAPS  H12Y 9190   2.239   5.067   8.599 -0.3732  2.8149  0.7172
   93SAPS  C313 9191   2.424   5.177   8.620 -0.1017 -0.5772  0.6623
   93SAPS  H13X 9192   2.376   5.275   8.643  0.7307  0.1460 -0.5432
   93SAPS  H13Y 9193   2.512   5.200   8.555  0.1272 -3.5061 -0.1976
   93SAPS  C314 9194   2.445   5.116   8.757  0.0063 -0.0413  0.2058
   93SAPS  H14X 9195   2.351   5.067   8.789  0.0044 -0.2090 -0.0536
   93SAPS  H14Y 9196   2.458   5.187   8.842 -0.9426 -1.5189  1.6350
   93SAPS  C315 9197   2.583   5.041   8.751 -0.4574 -0.3536 -0.1029
   93SAPS  H15X 9198   2.670   5.105   8.726 -0.4004 -0.8575 -1.2811
   93SAPS  H15Y 9199   2.598   4.971   8.666  0.1407  0.0137 -0.3010
   93SAPS  C316 9200   2.608   4.981   8.883 -0.4373  0.8082 -0.3217
   93SAPS  H16X 9201   2.528   4.905   8.894 -1.0785  1.5619  0.3921
   93SAPS  H16Y 9202   2.601   5.043   8.975 -0.5626 -1.8462  1.5589
   93SAPS  C317 9203   2.736   4.894   8.892 -0.2333  0.7748 -0.1516
   93SAPS  H17X 9204   2.809   4.964   8.845 -1.5869  2.3971  0.0992
   93SAPS  H17Y 9205   2.720   4.805   8.827 -1.0991  0.8523 -0.0459
   93SAPS  C318 9206   2.780   4.857   9.029 -0.4442 -0.0051 -0.2010
   93SAPS  H18X 9207   2.795   4.952   9.086 -1.0172  0.5061 -0.8971
   93SAPS  H18Y 9208   2.877   4.803   9.030 -0.4655 -0.0829 -1.5021
   93SAPS  H18Z 9209   2.700   4.802   9.083 -2.1807  2.3211 -0.2383
   94SAPS     N 9210   0.761   1.446   6.255  0.5216 -0.3916 -0.5717
   94SAPS   HN1 9211   0.833   1.474   6.324 -1.1688 -0.5109  1.3434
   94SAPS   HN2 9212   0.697   1.528   6.255  0.9567  0.0226  2.0485
   94SAPS   HN3 9213   0.708   1.362   6.286 -1.3471  0.7646 -0.4545
   94SAPS   C12 9214   0.822   1.422   6.122 -0.0474  0.0056 -1.0665
   94SAPS  H12A 9215   0.897   1.344   6.122  1.9180  1.7985 -1.4256
   94SAPS   C13 9216   0.720   1.377   6.014  0.1261  0.1515 -0.6848
   94SAPS  O13A 9217   0.593   1.404   6.018 -0.4700 -0.0204 -0.6990
   94SAPS  O13B 9218   0.763   1.347   5.901 -0.5397 -0.9776 -0.2509
   94SAPS   C11 9219   0.886   1.552   6.065  0.1299  0.4734  1.0042
   94SAPS  H11A 9220   0.811   1.622   6.022 -0.7563 -0.3865  1.1422
   94SAPS  H11B 9221   0.950   1.518   5.981  0.3797 -0.1204  1.4276
   94SAPS     P 9222   1.043   1.744   6.130  0.0389 -0.3601 -0.0672
   94SAPS   O13 9223   1.115   1.733   6.003  0.5650 -0.1691 -0.1914
   94SAPS   O14 9224   0.941   1.846   6.133 -0.3915 -0.3452  0.7326
   94SAPS   O12 9225   0.977   1.606   6.162 -0.0544 -0.6436  0.1912
   94SAPS   O11 9226   1.134   1.779   6.255  0.0736  0.6255 -0.5319
   94SAPS    C1 9227   1.227   1.679   6.306 -0.3373  0.3095 -0.7148
   94SAPS    HA 9228   1.283   1.631   6.223 -2.0885 -1.4496 -0.9744
   94SAPS    HB 9229   1.302   1.730   6.370  1.3629  2.0929 -3.8887
   94SAPS    C2 9230   1.170   1.575   6.394 -0.2157  0.2744  0.2115
   94SAPS    HS 9231   1.096   1.506   6.347  0.6760 -0.1981 -0.5156
   94SAPS   O21 9232   1.114   1.651   6.503  0.0718  0.4534 -0.1050
   94SAPS   C21 9233   0.986   1.620   6.532  0.6901  0.5619 -0.1322
   94SAPS   O22 9234   0.922   1.521   6.485  0.3464 -0.9603  0.3774
   94SAPS   C22 9235   0.937   1.704   6.650 -0.8704 -0.0130  0.6362
   94SAPS   H2R 9236   0.941   1.648   6.746  0.9314 -2.0641 -0.5495
   94SAPS   H2S 9237   1.006   1.790   6.666 -1.9532  1.2047 -0.9854
   94SAPS    C3 9238   1.277   1.489   6.468 -0.5069  0.8306 -0.5935
   94SAPS    HX 9239   1.345   1.566   6.512  0.3246 -0.0337 -0.3397
   94SAPS    HY 9240   1.334   1.421   6.403 -0.8820 -0.8886  0.7837
   94SAPS   O31 9241   1.216   1.409   6.570  0.3222  0.3705  0.2036
   94SAPS   C31 9242   1.298   1.369   6.666  0.1256  0.0326  0.3529
   94SAPS   O32 9243   1.421   1.379   6.663 -0.2716 -0.1116 -0.0213
   94SAPS   C32 9244   1.215   1.311   6.782  0.1596  0.2700 -0.1909
   94SAPS   H2X 9245   1.232   1.201   6.789 -3.1271 -0.2675  1.2748
   94SAPS   H2Y 9246   1.111   1.321   6.745  0.3917 -0.5355 -1.1081
   94SAPS   C23 9247   0.795   1.764   6.624 -0.5719 -0.5389  0.0615
   94SAPS   H3R 9248   0.719   1.690   6.590  0.0588 -2.0416  1.7498
   94SAPS   H3S 9249   0.806   1.843   6.547  0.2162  0.6919  1.3769
   94SAPS   C24 9250   0.752   1.830   6.759  1.3732 -0.1256  0.1427
   94SAPS   H4R 9251   0.655   1.880   6.739  0.9413 -0.9147  0.2387
   94SAPS   H4S 9252   0.820   1.915   6.782  0.4805  0.5440  0.3600
   94SAPS   C25 9253   0.732   1.729   6.870 -0.1762  0.3570 -0.2764
   94SAPS   H5R 9254   0.687   1.639   6.825 -1.1059  0.0345  1.2090
   94SAPS   C26 9255   0.770   1.740   6.995 -0.5639  1.2288 -0.2468
   94SAPS   H6R 9256   0.742   1.659   7.066 -1.7321 -1.4518 -3.4934
   94SAPS   C27 9257   0.840   1.855   7.059  0.9411 -0.1524 -0.6256
   94SAPS   H7R 9258   0.752   1.919   7.084  0.4218 -2.1992  3.6960
   94SAPS   H7S 9259   0.913   1.902   6.990  0.7847 -0.5747 -1.0865
   94SAPS   C28 9260   0.909   1.805   7.187  0.3054 -0.2689 -0.2484
   94SAPS   H8R 9261   1.018   1.814   7.192  0.9443 -4.6574 -1.8989
   94SAPS   C29 9262   0.856   1.762   7.308 -0.1165 -0.1846  0.0477
   94SAPS   H9R 9263   0.919   1.736   7.395  0.6641  2.1586  0.2342
   94SAPS  C210 9264   0.705   1.747   7.344  0.1572 -0.0385 -0.0453
   94SAPS  H10R 9265   0.673   1.641   7.346  2.0131 -0.6338  0.3392
   94SAPS  H10S 9266   0.640   1.804   7.274 -0.0814  0.8110  0.8487
   94SAPS  C211 9267   0.678   1.815   7.472 -0.0560 -0.7377 -0.1022
   94SAPS  H11R 9268   0.652   1.922   7.461 -0.5607 -0.6556  1.6032
   94SAPS  C212 9269   0.667   1.764   7.597  0.0049 -0.4079 -0.3460
   94SAPS  H12R 9270   0.646   1.839   7.674  0.8344 -0.2560 -0.2619
   94SAPS  C213 9271   0.695   1.623   7.650  0.2447 -0.3308  0.4814
   94SAPS  H13R 9272   0.794   1.613   7.701  0.7883  1.6995 -0.1051
   94SAPS  H13S 9273   0.687   1.554   7.563 -3.0674  0.0205  0.4113
   94SAPS  C214 9274   0.588   1.573   7.745  0.0912  0.5087  0.2237
   94SAPS  H14R 9275   0.520   1.495   7.710 -1.4397  2.2231 -0.7799
   94SAPS  C215 9276   0.575   1.609   7.873 -0.2536  0.7560 -0.6146
   94SAPS  H15R 9277   0.501   1.557   7.934  2.5657 -1.4549  1.2061
   94SAPS  C216 9278   0.650   1.707   7.957  0.1930  0.5359 -0.6714
   94SAPS  H16R 9279   0.713   1.771   7.892  1.3728  2.2432  1.9685
   94SAPS  H16S 9280   0.723   1.650   8.019  0.2751  1.9641  0.5870
   94SAPS  C217 9281   0.555   1.801   8.039  0.0426  0.1361  0.6258
   94SAPS  H17R 9282   0.490   1.865   7.977  1.5131  0.8307 -0.2653
   94SAPS  H17S 9283   0.627   1.864   8.095  1.0923  0.0689 -0.5968
   94SAPS  C218 9284   0.471   1.732   8.149 -0.5045  0.7221 -0.2951
   94SAPS  H18R 9285   0.390   1.675   8.099 -1.2479  2.1651 -0.8001
   94SAPS  H18S 9286   0.412   1.811   8.199 -3.2713 -2.1623  1.3475
   94SAPS  C219 9287   0.545   1.647   8.252  0.2116  0.5764 -0.3622
   94SAPS  H19R 9288   0.631   1.706   8.289  1.1749  0.5489 -2.4420
   94SAPS  H19S 9289   0.590   1.568   8.188  1.2322  0.8106  0.0569
   94SAPS  C220 9290   0.461   1.594   8.369  0.1124 -0.8577  0.2122
   94SAPS  H20R 9291   0.382   1.663   8.404 -0.2382 -1.2426  0.1853
   94SAPS  H20S 9292   0.526   1.582   8.459  0.6029  0.8334  0.1111
   94SAPS  H20T 9293   0.410   1.501   8.337  0.9379 -1.5530  0.8349
   94SAPS   C33 9294   1.235   1.389   6.912  0.6824  0.9273 -0.0222
   94SAPS   H3X 9295   1.225   1.500   6.907  1.6904  1.0707  0.8407
   94SAPS   H3Y 9296   1.336   1.350   6.939  0.8972 -0.3261 -2.4179
   94SAPS   C34 9297   1.127   1.345   7.007 -0.0645  1.2162 -0.9017
   94SAPS   H4X 9298   1.130   1.234   6.997  3.0704  1.2409 -1.4082
   94SAPS   H4Y 9299   1.039   1.382   6.951  0.8161 -0.6707 -3.7930
   94SAPS   C35 9300   1.129   1.390   7.152 -0.3201  0.4131 -0.0998
   94SAPS   H5X 9301   1.113   1.500   7.156 -1.3529  0.4045 -2.3974
   94SAPS   H5Y 9302   1.220   1.366   7.211  1.0967  0.5834 -2.1371
   94SAPS   C36 9303   1.001   1.324   7.218 -0.3805 -0.1912  0.5640
   94SAPS   H6X 9304   1.015   1.214   7.212 -0.5255 -0.1803  0.0252
   94SAPS   H6Y 9305   0.911   1.359   7.164 -1.3043 -0.5915  1.8111
   94SAPS   C37 9306   0.989   1.366   7.367 -0.5048  0.8519 -0.3993
   94SAPS   H7X 9307   0.912   1.444   7.385  0.6287  2.2401 -1.2751
   94SAPS   H7Y 9308   1.086   1.419   7.385 -0.5628  1.0176 -0.5713
   94SAPS   C38 9309   0.974   1.250   7.462 -0.3587 -0.1341 -0.4054
   94SAPS   H8X 9310   1.052   1.176   7.436  0.5581  0.3696  0.7880
   94SAPS   H8Y 9311   0.879   1.194   7.476 -1.1762  1.4304  0.6372
   94SAPS   C39 9312   1.014   1.281   7.603 -0.4784 -0.7530  0.1689
   94SAPS   H9X 9313   1.116   1.320   7.620 -0.4649 -1.1330  1.0224
   94SAPS   H9Y 9314   1.006   1.187   7.662  1.8295 -1.1716 -0.1192
   94SAPS  C310 9315   0.931   1.393   7.669  0.0553  0.5351  0.3620
   94SAPS  H10X 9316   0.825   1.367   7.652  0.9472 -2.4785 -1.4427
   94SAPS  H10Y 9317   0.968   1.488   7.624 -1.3751  0.8596 -0.1577
   94SAPS  C311 9318   0.951   1.383   7.823  0.4182 -0.7681  0.1010
   94SAPS  H11X 9319   0.903   1.470   7.871  1.1304 -0.2150 -0.1742
   94SAPS  H11Y 9320   1.060   1.400   7.835 -0.0350  1.9349  0.8710
   94SAPS  C312 9321   0.911   1.254   7.901 -0.3470  0.3063  0.3628
   94SAPS  H12X 9322   0.963   1.169   7.853 -1.5994 -1.4018  1.8602
   94SAPS  H12Y 9323   0.803   1.232   7.914 -0.4582  0.5769 -0.0669
   94SAPS  C313 9324   0.969   1.254   8.049 -0.1961  0.2680  0.2879
   94SAPS  H13X 9325   1.069   1.302   8.043  1.2494 -2.2699  1.9276
   94SAPS  H13Y 9326   0.979   1.146   8.076  1.5446  0.4056  0.3586
   94SAPS  C314 9327   0.887   1.330   8.152  0.1151 -0.1191  0.0516
   94SAPS  H14X 9328   0.786   1.289   8.173 -0.2956  1.3208  1.0157
   94SAPS  H14Y 9329   0.866   1.431   8.110 -1.6636  0.1354  1.4350
   94SAPS  C315 9330   0.966   1.350   8.285 -0.3038 -0.2176 -0.0477
   94SAPS  H15X 9331   1.064   1.400   8.268 -0.5681  0.1103 -0.6454
   94SAPS  H15Y 9332   0.984   1.246   8.321  0.0762 -0.4682 -0.9411
   94SAPS  C316 9333   0.901   1.445   8.390 -0.1991  0.2728 -0.5141
   94SAPS  H16X 9334   0.794   1.418   8.378 -0.0002 -0.8125  0.0436
   94SAPS  H16Y 9335   0.918   1.547   8.348  2.2673  0.0532 -0.2043
   94SAPS  C317 9336   0.938   1.427   8.538 -0.4600  0.5416 -0.3970
   94SAPS  H17X 9337   1.049   1.439   8.536 -0.5309  1.2310 -0.4069
   94SAPS  H17Y 9338   0.915   1.325   8.576 -0.3555  1.1029  1.2472
   94SAPS  C318 9339   0.870   1.529   8.620  0.8756  0.3123 -0.9036
   94SAPS  H18X 9340   0.880   1.634   8.583 -1.5253  0.2674 -1.8427
   94SAPS  H18Y 9341   0.903   1.533   8.726  0.5161 -1.7872 -0.6753
   94SAPS  H18Z 9342   0.761   1.513   8.634  1.5100 -1.7132  3.8398
   95SAPS     N 9343   4.468   5.922   6.389  0.0740  0.4035  0.2769
   95SAPS   HN1 9344   4.549   5.981   6.360 -1.0456  1.9631  0.1855
   95SAPS   HN2 9345   4.383   5.980   6.404 -0.6667 -0.8044  0.8355
   95SAPS   HN3 9346   4.491   5.874   6.478  2.2814 -0.4000 -0.6506
   95SAPS   C12 9347   4.438   5.819   6.284  0.0673 -0.0465 -0.5586
   95SAPS  H12A 9348   4.331   5.800   6.288  0.4423 -2.3577  0.1282
   95SAPS   C13 9349   4.454   5.867   6.138 -0.1306 -0.2348 -0.9718
   95SAPS  O13A 9350   4.472   5.987   6.110  0.5584 -0.1954 -0.5397
   95SAPS  O13B 9351   4.436   5.787   6.048  0.2662  0.0347  0.1129
   95SAPS   C11 9352   4.533   5.695   6.302  0.0182  0.8002 -0.5098
   95SAPS  H11A 9353   4.640   5.725   6.304  1.0649 -2.5587  0.6342
   95SAPS  H11B 9354   4.530   5.630   6.212 -1.4679  0.4252 -0.2103
   95SAPS     P 9355   4.407   5.502   6.430 -0.0379  0.2032  0.0884
   95SAPS   O13 9356   4.287   5.536   6.347  0.6191  0.2981 -0.0869
   95SAPS   O14 9357   4.479   5.384   6.380 -0.0058 -0.3356 -0.4180
   95SAPS   O12 9358   4.511   5.621   6.428  0.2253 -0.2253  0.1712
   95SAPS   O11 9359   4.358   5.488   6.578  0.0750  0.2903  0.5531
   95SAPS    C1 9360   4.271   5.565   6.649  0.3369  0.0074  0.2605
   95SAPS    HA 9361   4.177   5.591   6.595  1.0454  3.2849  0.3890
   95SAPS    HB 9362   4.238   5.510   6.739 -0.4267  1.3769  0.8494
   95SAPS    C2 9363   4.331   5.705   6.678  1.2000  0.4445 -0.1544
   95SAPS    HS 9364   4.360   5.755   6.583  4.0191 -0.4413  0.1532
   95SAPS   O21 9365   4.441   5.692   6.770 -0.8447 -0.4171  0.0123
   95SAPS   C21 9366   4.536   5.773   6.741  0.4789 -0.8786 -0.7770
   95SAPS   O22 9367   4.543   5.857   6.652  0.1398 -0.5354 -0.1637
   95SAPS   C22 9368   4.644   5.749   6.840  0.3450  0.3401  0.2809
   95SAPS   H2R 9369   4.599   5.780   6.937 -0.0024 -1.6071  0.7867
   95SAPS   H2S 9370   4.667   5.640   6.834 -1.4107 -0.0736  0.4271
   95SAPS    C3 9371   4.216   5.800   6.754  0.2569  0.3645  0.4809
   95SAPS    HX 9372   4.133   5.832   6.688  1.5025  1.7211 -0.4834
   95SAPS    HY 9373   4.261   5.899   6.777  1.9415 -0.0650 -0.8118
   95SAPS   O31 9374   4.163   5.741   6.869  0.0580 -0.1715 -0.4569
   95SAPS   C31 9375   4.228   5.755   6.981 -0.4978 -0.0318 -0.1797
   95SAPS   O32 9376   4.336   5.806   7.001 -0.2769  0.1001  0.5455
   95SAPS   C32 9377   4.146   5.680   7.088  0.1914 -0.1974  0.3232
   95SAPS   H2X 9378   4.205   5.587   7.104 -0.3459 -0.8567 -1.2826
   95SAPS   H2Y 9379   4.043   5.657   7.054  0.1967  1.1538 -0.7068
   95SAPS   C23 9380   4.773   5.828   6.813  0.0311  0.9699  1.4367
   95SAPS   H3R 9381   4.750   5.936   6.812  0.2433  1.0558 -1.1708
   95SAPS   H3S 9382   4.805   5.793   6.712 -2.4762 -0.5008  1.0686
   95SAPS   C24 9383   4.882   5.803   6.920  0.4567  0.0949 -0.0125
   95SAPS   H4R 9384   4.836   5.842   7.013  0.8147  1.2688 -0.3132
   95SAPS   H4S 9385   4.978   5.855   6.901  1.2774  0.0821  3.4751
   95SAPS   C25 9386   4.917   5.660   6.943  0.1495  0.0450  1.2040
   95SAPS   H5R 9387   4.919   5.599   6.852 -0.7549  3.2885 -1.1932
   95SAPS   C26 9388   4.946   5.613   7.060  0.3046 -0.2539 -0.2378
   95SAPS   H6R 9389   4.978   5.508   7.067  1.0438 -0.2910 -2.9443
   95SAPS   C27 9390   4.961   5.682   7.193  1.1276  0.0346 -0.2046
   95SAPS   H7R 9391   4.862   5.686   7.244  0.5681  1.2958 -1.3193
   95SAPS   H7S 9392   4.993   5.788   7.177 -0.8903  1.3867  3.4545
   95SAPS   C28 9393   5.068   5.606   7.276 -0.0989 -0.1124 -0.0713
   95SAPS   H8R 9394   5.151   5.574   7.211 -1.2970  0.1365 -1.7751
   95SAPS   C29 9395   5.069   5.595   7.409 -0.0420  0.2427  0.0600
   95SAPS   H9R 9396   5.153   5.550   7.464 -0.4392  1.1662  1.4907
   95SAPS  C210 9397   4.974   5.650   7.507 -0.1142 -0.2285  0.2642
   95SAPS  H10R 9398   4.949   5.581   7.591 -0.8358 -0.6097 -0.2505
   95SAPS  H10S 9399   4.875   5.668   7.460  0.0860  0.7028  0.1768
   95SAPS  C211 9400   5.023   5.773   7.580 -0.3751 -0.1478  0.7605
   95SAPS  H11R 9401   5.032   5.863   7.517  0.3692 -0.3076  0.6317
   95SAPS  C212 9402   5.047   5.800   7.704  0.3146  0.6925 -0.4268
   95SAPS  H12R 9403   5.083   5.900   7.731  0.8368 -0.1044  2.0501
   95SAPS  C213 9404   5.036   5.702   7.822  0.3162  0.3330  0.1228
   95SAPS  H13R 9405   4.947   5.637   7.832  0.3477  0.3417  0.4821
   95SAPS  H13S 9406   5.040   5.771   7.909 -2.8706  0.7769  0.0233
   95SAPS  C214 9407   5.154   5.606   7.837 -0.1014  1.0344  0.2969
   95SAPS  H14R 9408   5.205   5.576   7.745 -0.2890 -1.6890  0.9955
   95SAPS  C215 9409   5.173   5.534   7.944 -0.8755 -0.0736  1.1571
   95SAPS  H15R 9410   5.257   5.463   7.938 -1.0176 -0.1719 -0.1185
   95SAPS  C216 9411   5.094   5.542   8.072  0.0809  0.2842  0.1714
   95SAPS  H16R 9412   4.999   5.598   8.053 -0.6940 -1.0861 -0.1420
   95SAPS  H16S 9413   5.148   5.590   8.156  0.5741 -1.1003  0.6656
   95SAPS  C217 9414   5.044   5.408   8.132  0.2769  0.9122 -0.1241
   95SAPS  H17R 9415   5.126   5.333   8.135 -2.3754 -2.2656 -1.4670
   95SAPS  H17S 9416   4.983   5.359   8.053  1.7323  0.3200 -0.9310
   95SAPS  C218 9417   4.970   5.436   8.261  0.0376 -1.0181 -0.8321
   95SAPS  H18R 9418   4.877   5.496   8.254  1.8798  2.5198  1.6720
   95SAPS  H18S 9419   5.044   5.485   8.328  0.9784 -1.6298 -1.3961
   95SAPS  C219 9420   4.939   5.307   8.340 -0.7312  0.2826  0.3277
   95SAPS  H19R 9421   5.039   5.276   8.376  0.7761  0.6660 -3.1567
   95SAPS  H19S 9422   4.904   5.230   8.268 -0.9094 -0.1218  0.8358
   95SAPS  C220 9423   4.835   5.328   8.453 -0.4764  0.7654  0.7300
   95SAPS  H20R 9424   4.745   5.379   8.415 -0.7564  0.9358  1.6019
   95SAPS  H20S 9425   4.871   5.393   8.536  1.8327  1.8534 -0.9971
   95SAPS  H20T 9426   4.802   5.230   8.493  0.1583  0.7245  1.1843
   95SAPS   C33 9427   4.142   5.756   7.221 -0.1653 -0.6342  0.2221
   95SAPS   H3X 9428   4.084   5.850   7.218  0.9333  0.1909  2.5177
   95SAPS   H3Y 9429   4.243   5.794   7.250 -0.6186  1.0613 -0.3258
   95SAPS   C34 9430   4.088   5.665   7.333  0.4187 -0.0830 -0.9931
   95SAPS   H4X 9431   4.123   5.560   7.324 -3.1053 -1.7798  2.0809
   95SAPS   H4Y 9432   3.977   5.662   7.328  0.3384  2.0202 -1.5494
   95SAPS   C35 9433   4.146   5.712   7.473  0.9857 -0.3318  0.0070
   95SAPS   H5X 9434   4.126   5.821   7.466  2.0783 -0.0883  0.5388
   95SAPS   H5Y 9435   4.253   5.694   7.453  2.1738  3.6850  1.8030
   95SAPS   C36 9436   4.079   5.660   7.596  0.5619  0.4939  0.0051
   95SAPS   H6X 9437   4.095   5.550   7.593 -2.1771 -0.0066  1.0971
   95SAPS   H6Y 9438   3.971   5.683   7.593  0.7231  1.2267 -0.4834
   95SAPS   C37 9439   4.135   5.716   7.729 -0.2683 -0.1541 -0.1101
   95SAPS   H7X 9440   4.118   5.825   7.732  0.7191 -0.0175  1.7624
   95SAPS   H7Y 9441   4.244   5.694   7.726 -0.5434 -1.6414 -0.4548
   95SAPS   C38 9442   4.071   5.642   7.842 -0.0619  0.8273  0.1162
   95SAPS   H8X 9443   4.107   5.537   7.845 -0.0181  0.8436  0.1994
   95SAPS   H8Y 9444   3.964   5.621   7.824  0.3822 -0.4896 -1.1557
   95SAPS   C39 9445   4.096   5.706   7.970  0.0556 -0.4619  0.0786
   95SAPS   H9X 9446   4.062   5.811   7.975  1.7043  0.1977 -1.4972
   95SAPS   H9Y 9447   4.203   5.726   7.990 -0.4362  1.9499  0.6259
   95SAPS  C310 9448   4.031   5.651   8.095  0.3024  0.2101 -1.1504
   95SAPS  H10X 9449   4.018   5.540   8.094  0.6919  0.1506 -0.2527
   95SAPS  H10Y 9450   3.924   5.682   8.098  0.0083 -0.6725 -1.8972
   95SAPS  C311 9451   4.096   5.702   8.222  0.0798 -0.4887  0.1899
   95SAPS  H11X 9452   4.103   5.813   8.224  1.2369 -0.2720 -4.5700
   95SAPS  H11Y 9453   4.200   5.662   8.226  0.0276 -0.5747  2.4579
   95SAPS  C312 9454   4.024   5.659   8.348 -0.2688 -0.8501 -1.2421
   95SAPS  H12X 9455   4.029   5.548   8.349 -0.9157 -0.9111 -2.8024
   95SAPS  H12Y 9456   3.918   5.691   8.349 -0.3207 -0.8261  1.3816
   95SAPS  C313 9457   4.093   5.708   8.473 -0.4919  0.0263  0.6495
   95SAPS  H13X 9458   4.073   5.817   8.484 -0.7363 -0.1266  1.7870
   95SAPS  H13Y 9459   4.203   5.698   8.464 -0.1410  2.4403  1.5692
   95SAPS  C314 9460   4.046   5.623   8.592 -0.0248 -0.2082 -0.0297
   95SAPS  H14X 9461   4.097   5.525   8.582  1.6397  0.6582 -0.4313
   95SAPS  H14Y 9462   3.935   5.626   8.579 -0.1459  1.0010  1.0417
   95SAPS  C315 9463   4.087   5.682   8.728 -0.4893  0.1766  0.3986
   95SAPS  H15X 9464   4.077   5.603   8.805 -1.8527 -1.6289 -1.5052
   95SAPS  H15Y 9465   4.040   5.780   8.751  1.0726  1.3364 -1.0287
   95SAPS  C316 9466   4.246   5.721   8.745  0.4687 -0.0205  0.2558
   95SAPS  H16X 9467   4.260   5.805   8.674 -1.0888  1.3066  1.4339
   95SAPS  H16Y 9468   4.320   5.641   8.727 -0.0052 -0.4593  0.2421
   95SAPS  C317 9469   4.274   5.771   8.883 -0.5964  0.5992 -0.6558
   95SAPS  H17X 9470   4.340   5.693   8.926 -4.7092 -2.0936  1.5350
   95SAPS  H17Y 9471   4.181   5.762   8.944  0.0436 -3.5268  0.0092
   95SAPS  C318 9472   4.334   5.910   8.901 -0.2237 -0.2366 -0.1062
   95SAPS  H18X 9473   4.432   5.904   8.850 -1.2423 -1.4367 -2.0517
   95SAPS  H18Y 9474   4.353   5.933   9.008 -1.6340  0.0614  0.1051
   95SAPS  H18Z 9475   4.269   5.997   8.876  1.4797  1.0938 -0.0738
   96SAPS     N 9476   5.797   0.347   6.194 -0.4310 -0.5327 -0.1264
   96SAPS   HN1 9477   5.767   0.439   6.156 -0.8387 -1.0627 -1.1359
   96SAPS   HN2 9478   5.769   0.351   6.294  0.4336  3.3586  0.1210
   96SAPS   HN3 9479   5.901   0.338   6.186 -0.3831 -0.4668  0.4132
   96SAPS   C12 9480   5.725   0.232   6.139  0.1635 -0.5185  0.7377
   96SAPS  H12A 9481   5.620   0.249   6.158 -0.1523  0.5098 -1.6244
   96SAPS   C13 9482   5.728   0.235   5.985  0.3296  0.0152 -0.1744
   96SAPS  O13A 9483   5.800   0.311   5.919 -0.1222  0.8189  0.4631
   96SAPS  O13B 9484   5.628   0.182   5.929  0.4812  0.3459  0.5349
   96SAPS   C11 9485   5.778   0.099   6.205 -0.4270 -0.1818  0.5152
   96SAPS  H11A 9486   5.884   0.091   6.173 -1.2924 -1.4764 -2.3802
   96SAPS  H11B 9487   5.733   0.013   6.151  0.7980  0.0355 -0.9067
   96SAPS     P 9488   5.821  -0.031   6.426 -0.2631  0.5795 -0.1790
   96SAPS   O13 9489   5.768  -0.165   6.384 -0.2382  0.3718 -0.1518
   96SAPS   O14 9490   5.964  -0.014   6.433  0.1070 -0.2749 -0.2140
   96SAPS   O12 9491   5.751   0.088   6.346 -0.1023  0.1612  0.2352
   96SAPS   O11 9492   5.761  -0.006   6.560 -0.2200 -0.2971 -0.2924
   96SAPS    C1 9493   5.729   0.129   6.615 -0.7094  0.3166 -0.3116
   96SAPS    HA 9494   5.805   0.209   6.598  0.2096 -0.3660  0.5354
   96SAPS    HB 9495   5.636   0.165   6.565 -0.0298  0.8759 -1.1874
   96SAPS    C2 9496   5.709   0.107   6.763  0.3179 -0.1206 -0.0222
   96SAPS    HS 9497   5.802   0.064   6.807 -0.1735  0.0041  1.1989
   96SAPS   O21 9498   5.598   0.009   6.775  0.0321 -0.8146  0.0160
   96SAPS   C21 9499   5.609  -0.065   6.892 -0.2524 -0.0728 -0.2093
   96SAPS   O22 9500   5.710  -0.066   6.961  0.6536  0.2619 -0.3024
   96SAPS   C22 9501   5.472  -0.135   6.914  0.5288 -0.0903 -0.9024
   96SAPS   H2R 9502   5.404  -0.096   6.835  0.3248 -0.2806 -0.8207
   96SAPS   H2S 9503   5.485  -0.245   6.916  0.6184 -0.0769 -0.7460
   96SAPS    C3 9504   5.680   0.237   6.842  0.0594 -0.1177  0.1296
   96SAPS    HX 9505   5.588   0.267   6.787 -1.0907 -3.9103 -0.3616
   96SAPS    HY 9506   5.752   0.319   6.825 -1.0580  0.7732 -0.4395
   96SAPS   O31 9507   5.649   0.221   6.980  0.3042 -0.2275  0.3630
   96SAPS   C31 9508   5.750   0.216   7.071  0.6000  0.4787 -0.1223
   96SAPS   O32 9509   5.866   0.219   7.033  0.2206  0.5688 -0.3225
   96SAPS   C32 9510   5.690   0.177   7.204  0.3440  0.2207 -0.0820
   96SAPS   H2X 9511   5.678   0.066   7.201 -1.3318  0.3818 -1.7501
   96SAPS   H2Y 9512   5.591   0.221   7.224  0.4802  1.2078 -1.4491
   96SAPS   C23 9513   5.412  -0.103   7.059  0.4824 -0.9865 -0.2061
   96SAPS   H3R 9514   5.494  -0.110   7.134 -0.8858  0.0778  1.4599
   96SAPS   H3S 9515   5.335  -0.182   7.073  1.5064 -1.6974  1.9232
   96SAPS   C24 9516   5.371   0.040   7.082  0.0433 -0.5965  0.2458
   96SAPS   H4R 9517   5.428   0.116   7.024 -1.0186  0.2607  0.2784
   96SAPS   H4S 9518   5.392   0.065   7.189 -0.5110 -0.1937  0.2660
   96SAPS   C25 9519   5.220   0.059   7.056 -0.1888 -0.0162 -0.2130
   96SAPS   H5R 9520   5.188   0.045   6.952 -0.8772  1.1673 -0.1709
   96SAPS   C26 9521   5.122   0.075   7.149  0.0519 -0.1268 -0.1215
   96SAPS   H6R 9522   5.020   0.097   7.114 -0.0077 -1.0321 -0.5488
   96SAPS   C27 9523   5.144   0.094   7.298 -0.1436  0.0283 -0.3979
   96SAPS   H7R 9524   5.082   0.185   7.312  0.9302  0.6218  0.6412
   96SAPS   H7S 9525   5.251   0.103   7.323  0.6590 -2.0408 -2.6250
   96SAPS   C28 9526   5.088  -0.022   7.378  0.3062  0.0146 -0.5009
   96SAPS   H8R 9527   5.048  -0.103   7.316  0.2777  0.3091 -0.8741
   96SAPS   C29 9528   5.084  -0.020   7.512 -0.0398  0.4172  0.0813
   96SAPS   H9R 9529   5.042  -0.111   7.558  0.9507 -1.2637 -2.1338
   96SAPS  C210 9530   5.136   0.087   7.600  0.1034 -0.4987 -0.1526
   96SAPS  H10R 9531   5.150   0.181   7.543  1.8126 -0.1992  0.7165
   96SAPS  H10S 9532   5.237   0.060   7.636 -0.0429 -0.5956  0.1870
   96SAPS  C211 9533   5.035   0.105   7.712 -0.1033 -0.5738  0.5305
   96SAPS  H11R 9534   4.970   0.193   7.698 -1.3614 -1.7765 -1.8240
   96SAPS  C212 9535   5.027   0.043   7.830 -0.3633 -0.6117 -0.7443
   96SAPS  H12R 9536   4.963   0.075   7.914  1.3073 -3.7548  1.9647
   96SAPS  C213 9537   5.107  -0.075   7.879  0.5968  0.1153 -0.4829
   96SAPS  H13R 9538   5.166  -0.104   7.789 -0.0217  0.3225 -0.9625
   96SAPS  H13S 9539   5.039  -0.156   7.914  0.5714  0.4674  0.3012
   96SAPS  C214 9540   5.206  -0.037   7.985 -0.2750  0.5823  1.1347
   96SAPS  H14R 9541   5.301   0.006   7.951 -0.3452  0.8266  1.2433
   96SAPS  C215 9542   5.190  -0.059   8.116 -0.0441 -0.7985 -0.4970
   96SAPS  H15R 9543   5.253  -0.004   8.187 -1.6820 -0.5642  0.8465
   96SAPS  C216 9544   5.060  -0.114   8.182 -0.3006 -0.6942  0.0197
   96SAPS  H16R 9545   5.078  -0.222   8.201  1.7027 -0.2095  1.2264
   96SAPS  H16S 9546   4.978  -0.108   8.107 -0.4391 -1.5732  0.0821
   96SAPS  C217 9547   5.008  -0.039   8.305  0.0605  0.0677  0.1494
   96SAPS  H17R 9548   4.904  -0.079   8.313 -0.0433 -0.4750 -2.8004
   96SAPS  H17S 9549   4.980   0.067   8.286 -2.9961 -0.7570 -0.6326
   96SAPS  C218 9550   5.092  -0.051   8.430  0.1511  0.1120  0.6001
   96SAPS  H18R 9551   5.199  -0.029   8.407  0.6251 -0.0471  2.4486
   96SAPS  H18S 9552   5.079  -0.153   8.472 -0.1591  0.7459  2.1305
   96SAPS  C219 9553   5.062   0.052   8.545  0.0446 -0.3749 -0.0568
   96SAPS  H19R 9554   4.954   0.077   8.553  0.3396  1.1171 -0.4310
   96SAPS  H19S 9555   5.106   0.146   8.504  0.5422 -0.3998  0.4147
   96SAPS  C220 9556   5.131   0.012   8.673 -0.0502  0.5976 -0.1051
   96SAPS  H20R 9557   5.241   0.012   8.662  0.1214  3.5117  0.7161
   96SAPS  H20S 9558   5.094  -0.092   8.691  0.7441  0.6189  1.9651
   96SAPS  H20T 9559   5.118   0.078   8.762  0.1683 -0.7919  0.9968
   96SAPS   C33 9560   5.786   0.204   7.315  0.0380  0.4923 -0.1544
   96SAPS   H3X 9561   5.791   0.314   7.336  1.0504  0.7161 -1.4663
   96SAPS   H3Y 9562   5.893   0.180   7.302 -0.1606 -2.4032  2.4380
   96SAPS   C34 9563   5.734   0.139   7.444  0.7130 -0.0601 -0.6202
   96SAPS   H4X 9564   5.760   0.031   7.433 -0.8448 -0.3256 -1.9542
   96SAPS   H4Y 9565   5.626   0.146   7.466  0.6207  0.7069 -1.2762
   96SAPS   C35 9566   5.801   0.196   7.567  0.0958  0.0483 -0.7017
   96SAPS   H5X 9567   5.773   0.303   7.583 -2.1638 -0.7287  1.1153
   96SAPS   H5Y 9568   5.911   0.193   7.554  0.3255  3.4375 -0.6714
   96SAPS   C36 9569   5.756   0.116   7.688 -0.2829 -0.1546 -0.4775
   96SAPS   H6X 9570   5.805   0.019   7.664  2.3246  1.4546 -2.1549
   96SAPS   H6Y 9571   5.647   0.107   7.706 -0.0919 -1.9875 -0.0098
   96SAPS   C37 9572   5.814   0.171   7.820 -0.3528 -0.3520  0.2394
   96SAPS   H7X 9573   5.770   0.267   7.853  0.3494 -0.3828  1.3176
   96SAPS   H7Y 9574   5.924   0.180   7.804 -0.8180  2.2422 -2.1078
   96SAPS   C38 9575   5.778   0.066   7.931 -0.1725 -0.6301 -0.6466
   96SAPS   H8X 9576   5.797  -0.036   7.892  1.3480 -1.0013  0.9379
   96SAPS   H8Y 9577   5.671   0.067   7.959 -0.8489 -2.5620 -2.8138
   96SAPS   C39 9578   5.845   0.098   8.064  0.1489 -0.8827  0.2554
   96SAPS   H9X 9579   5.839   0.208   8.070  0.7963 -0.7513 -1.1682
   96SAPS   H9Y 9580   5.956   0.089   8.064  0.1817 -0.6149  1.3699
   96SAPS  C310 9581   5.772   0.028   8.178  0.5752  0.0254 -0.7472
   96SAPS  H10X 9582   5.795  -0.080   8.184 -0.5870 -0.1792  0.5952
   96SAPS  H10Y 9583   5.663   0.048   8.172  0.2389  0.3635  3.2193
   96SAPS  C311 9584   5.819   0.074   8.318 -0.2715 -0.3115 -0.2402
   96SAPS  H11X 9585   5.801   0.184   8.318  1.6481  0.0426 -0.9364
   96SAPS  H11Y 9586   5.929   0.064   8.328 -0.3417 -0.0497  0.9983
   96SAPS  C312 9587   5.742  -0.006   8.428 -0.1124  0.2235  0.6639
   96SAPS  H12X 9588   5.757  -0.114   8.407  1.4131  0.6034 -0.3871
   96SAPS  H12Y 9589   5.635   0.024   8.415 -0.4891 -1.3094 -0.0046
   96SAPS  C313 9590   5.786   0.026   8.575  0.0542  0.6350  0.2104
   96SAPS  H13X 9591   5.746   0.121   8.618  0.5219  0.1857  1.6789
   96SAPS  H13Y 9592   5.896   0.038   8.573  0.3713 -1.8417 -0.3894
   96SAPS  C314 9593   5.752  -0.080   8.679  1.0772  0.0900 -0.0151
   96SAPS  H14X 9594   5.651  -0.125   8.668  0.8651  0.1629  1.3881
   96SAPS  H14Y 9595   5.752  -0.024   8.775 -0.6729 -3.3575  2.1888
   96SAPS  C315 9596   5.844  -0.201   8.674 -0.4269  0.3275  0.2373
   96SAPS  H15X 9597   5.952  -0.178   8.659 -0.0670 -0.5369  1.4021
   96SAPS  H15Y 9598   5.802  -0.279   8.607 -0.6860  1.1054 -0.5292
   96SAPS  C316 9599   5.849  -0.286   8.808 -0.6625  0.0915  0.0475
   96SAPS  H16X 9600   5.756  -0.346   8.811 -0.3100 -0.7020 -2.3233
   96SAPS  H16Y 9601   5.858  -0.215   8.893 -0.1112  1.1117 -0.8338
   96SAPS  C317 9602   5.969  -0.380   8.814  0.2192  0.3335  0.0122
   96SAPS  H17X 9603   5.998  -0.397   8.919  1.4081  0.4070 -0.2906
   96SAPS  H17Y 9604   6.049  -0.316   8.772  0.6328 -0.1993 -0.0232
   96SAPS  C318 9605   5.942  -0.519   8.759 -0.0188 -0.0803  0.6910
   96SAPS  H18X 9606   5.854  -0.557   8.815  0.2675  0.6856  1.7030
   96SAPS  H18Y 9607   6.026  -0.585   8.792 -0.7592 -0.9414  0.8725
   96SAPS  H18Z 9608   5.937  -0.523   8.648 -0.5726 -0.7447  0.7321
   97SAPS     N 9609   4.348   4.520   6.334 -0.8602  0.0433  0.0693
   97SAPS   HN1 9610   4.260   4.497   6.384 -0.4258  0.0040  0.8281
   97SAPS   HN2 9611   4.434   4.537   6.391 -0.6680  1.3234 -0.5692
   97SAPS   HN3 9612   4.330   4.602   6.272 -2.2424 -0.2921  0.0031
   97SAPS   C12 9613   4.393   4.405   6.247  0.0623  0.4416  0.2652
   97SAPS  H12A 9614   4.319   4.384   6.171 -0.1648  0.1507  0.5676
   97SAPS   C13 9615   4.526   4.438   6.179 -0.1643 -0.0933  1.1143
   97SAPS  O13A 9616   4.603   4.529   6.228 -0.1450  0.2385 -0.3363
   97SAPS  O13B 9617   4.563   4.362   6.080  0.5197  0.4849 -0.9917
   97SAPS   C11 9618   4.397   4.272   6.332  0.1562 -0.0205 -0.1774
   97SAPS  H11A 9619   4.413   4.188   6.261  1.7125 -1.7242  2.0349
   97SAPS  H11B 9620   4.295   4.254   6.370  0.6993 -1.7099  0.5889
   97SAPS     P 9621   4.511   4.148   6.522  0.1580 -0.1430 -0.3184
   97SAPS   O13 9622   4.482   4.024   6.445 -0.0318 -0.5218 -0.0165
   97SAPS   O14 9623   4.638   4.145   6.594  0.2436 -0.1642 -0.4298
   97SAPS   O12 9624   4.500   4.280   6.432 -0.2664 -0.0165 -0.1975
   97SAPS   O11 9625   4.390   4.177   6.621 -0.3818  0.5886  1.0181
   97SAPS    C1 9626   4.376   4.302   6.692 -0.8036  0.5369 -0.2978
   97SAPS    HA 9627   4.466   4.365   6.675 -0.1427 -0.4066 -0.3285
   97SAPS    HB 9628   4.283   4.354   6.660 -2.8917 -1.4604  2.0669
   97SAPS    C2 9629   4.365   4.286   6.843 -0.4487  0.1583 -0.5877
   97SAPS    HS 9630   4.358   4.392   6.877  0.6443 -0.1381  0.6654
   97SAPS   O21 9631   4.488   4.227   6.898 -0.6526 -0.0490  0.4919
   97SAPS   C21 9632   4.602   4.296   6.890  0.5300  0.2212  0.6341
   97SAPS   O22 9633   4.617   4.404   6.841 -0.0646 -0.6080  0.0810
   97SAPS   C22 9634   4.719   4.222   6.960  0.6278 -0.1558 -0.6562
   97SAPS   H2R 9635   4.689   4.219   7.067  0.8240 -2.7209 -0.6239
   97SAPS   H2S 9636   4.729   4.120   6.918  1.3993 -0.4400  0.1943
   97SAPS    C3 9637   4.228   4.229   6.887  0.7054 -0.4305 -0.7848
   97SAPS    HX 9638   4.210   4.125   6.852  0.2493 -0.9479  0.9068
   97SAPS    HY 9639   4.149   4.289   6.837  0.2743  0.3175  0.7230
   97SAPS   O31 9640   4.215   4.239   7.031  0.2330  0.4297 -0.2917
   97SAPS   C31 9641   4.123   4.316   7.082  0.3631  0.0012  0.0241
   97SAPS   O32 9642   4.024   4.364   7.023 -0.8767  0.5374  0.4065
   97SAPS   C32 9643   4.149   4.328   7.235 -0.1893  0.1039  0.6739
   97SAPS   H2X 9644   4.244   4.384   7.245  0.4316 -0.0963 -2.7778
   97SAPS   H2Y 9645   4.160   4.225   7.275  0.0573  0.3972  1.3617
   97SAPS   C23 9646   4.859   4.294   6.947  0.4507  0.5929 -0.3163
   97SAPS   H3R 9647   4.863   4.316   6.838 -0.4247  1.8710 -0.1233
   97SAPS   H3S 9648   4.940   4.221   6.964 -0.7540 -1.1288 -1.6515
   97SAPS   C24 9649   4.888   4.425   7.030  0.0403 -0.6210  0.1703
   97SAPS   H4R 9650   4.809   4.498   7.001 -1.4411 -3.3754 -3.4372
   97SAPS   H4S 9651   4.981   4.467   6.988 -0.2496  0.1407  0.2694
   97SAPS   C25 9652   4.891   4.409   7.180  0.0210  0.6132  0.1376
   97SAPS   H5R 9653   4.990   4.381   7.221 -1.4170 -0.8952  2.8231
   97SAPS   C26 9654   4.793   4.438   7.266  0.6420  0.4277 -0.1389
   97SAPS   H6R 9655   4.808   4.407   7.371 -1.7203  0.8522  0.3762
   97SAPS   C27 9656   4.654   4.494   7.229  0.2728  0.7191 -0.4770
   97SAPS   H7R 9657   4.645   4.513   7.119  0.3866 -2.5681 -1.1636
   97SAPS   H7S 9658   4.641   4.594   7.274  0.3421  0.8233 -0.6865
   97SAPS   C28 9659   4.558   4.390   7.275  0.2609  0.4428  0.9255
   97SAPS   H8R 9660   4.526   4.335   7.185  0.2583  1.7634  0.0931
   97SAPS   C29 9661   4.502   4.373   7.396  0.1214 -0.2650  1.0679
   97SAPS   H9R 9662   4.425   4.297   7.415 -1.5600  0.3647 -2.6100
   97SAPS  C210 9663   4.535   4.459   7.515  0.5186 -0.5738 -0.2082
   97SAPS  H10R 9664   4.446   4.517   7.548  0.9924 -0.2233  0.4729
   97SAPS  H10S 9665   4.614   4.536   7.502  0.1353 -0.3549 -1.3103
   97SAPS  C211 9666   4.571   4.379   7.632  0.3369  0.5057 -0.2799
   97SAPS  H11R 9667   4.675   4.342   7.639 -0.4232 -1.4144  2.7773
   97SAPS  C212 9668   4.498   4.345   7.736  0.7730  0.3404  0.5396
   97SAPS  H12R 9669   4.535   4.267   7.804  3.2228  1.3053  0.4117
   97SAPS  C213 9670   4.356   4.379   7.766 -0.4073  0.0244  0.6284
   97SAPS  H13R 9671   4.298   4.287   7.788  1.8877 -1.9160 -0.8254
   97SAPS  H13S 9672   4.309   4.430   7.680  0.3312  0.6428  0.5795
   97SAPS  C214 9673   4.354   4.485   7.876  1.0683 -0.1276  0.6105
   97SAPS  H14R 9674   4.378   4.587   7.845 -1.9934  0.6396  0.3717
   97SAPS  C215 9675   4.330   4.471   8.002  0.6184 -0.5258 -0.1950
   97SAPS  H15R 9676   4.311   4.565   8.057  0.6751 -0.5300 -0.1678
   97SAPS  C216 9677   4.291   4.345   8.076  0.5303 -0.5513  0.1759
   97SAPS  H16R 9678   4.358   4.258   8.062 -0.5557 -1.3429 -0.2619
   97SAPS  H16S 9679   4.203   4.307   8.020  0.4965  0.7453 -0.6955
   97SAPS  C217 9680   4.265   4.356   8.223  0.4335  0.2990 -0.2655
   97SAPS  H17R 9681   4.186   4.428   8.252  1.3701  0.4977  1.9847
   97SAPS  H17S 9682   4.360   4.391   8.268  0.1053  0.1419  0.5667
   97SAPS  C218 9683   4.223   4.220   8.275  0.3665 -0.1049 -0.0771
   97SAPS  H18R 9684   4.305   4.147   8.254  0.3594  0.2649 -1.4660
   97SAPS  H18S 9685   4.136   4.180   8.218  2.4199 -1.6719 -2.3321
   97SAPS  C219 9686   4.201   4.214   8.426  0.6934  0.1336  0.2175
   97SAPS  H19R 9687   4.134   4.297   8.457 -0.0693 -0.9863  1.7089
   97SAPS  H19S 9688   4.304   4.227   8.466 -0.2291  1.4749  2.3054
   97SAPS  C220 9689   4.135   4.087   8.472 -0.7109  0.1214 -0.0054
   97SAPS  H20R 9690   4.186   4.001   8.425 -0.3643 -0.6578  1.7292
   97SAPS  H20S 9691   4.032   4.076   8.431  0.1367 -1.7830 -1.8170
   97SAPS  H20T 9692   4.140   4.070   8.582  1.2259 -4.1204 -0.5438
   97SAPS   C33 9693   4.033   4.387   7.312  0.2235  0.5650 -0.0930
   97SAPS   H3X 9694   3.944   4.327   7.285  0.3861 -0.4958  1.5795
   97SAPS   H3Y 9695   3.994   4.490   7.295 -1.0570 -0.0523 -1.0172
   97SAPS   C34 9696   4.055   4.366   7.464  0.5909 -0.2253  0.7177
   97SAPS   H4X 9697   4.154   4.403   7.497  0.6619  2.0943 -1.7430
   97SAPS   H4Y 9698   4.048   4.257   7.485 -2.3022 -0.2315  0.1955
   97SAPS   C35 9699   3.937   4.427   7.543 -0.2386 -0.9923  0.1665
   97SAPS   H5X 9700   3.842   4.392   7.496 -0.9208  0.4543  0.4139
   97SAPS   H5Y 9701   3.946   4.536   7.519 -3.3477  0.0603  3.0660
   97SAPS   C36 9702   3.944   4.404   7.696 -0.6465 -0.1182  0.6667
   97SAPS   H6X 9703   4.040   4.451   7.727 -0.4235 -0.5267  0.5934
   97SAPS   H6Y 9704   3.933   4.297   7.724  0.0318 -0.5137 -0.5249
   97SAPS   C37 9705   3.837   4.472   7.789 -0.2366  0.0021  0.5807
   97SAPS   H7X 9706   3.738   4.424   7.774  0.4525 -1.0639 -0.8371
   97SAPS   H7Y 9707   3.828   4.579   7.761  0.6249  0.0930  0.6123
   97SAPS   C38 9708   3.869   4.457   7.939  0.7784  0.3131  0.6296
   97SAPS   H8X 9709   3.786   4.510   7.991  0.2022  1.6333 -1.4901
   97SAPS   H8Y 9710   3.961   4.512   7.969  2.3835 -0.5653 -2.3215
   97SAPS   C39 9711   3.899   4.309   7.982 -0.4222  0.0890 -0.0542
   97SAPS   H9X 9712   3.925   4.314   8.089 -0.4661  2.2519 -0.1042
   97SAPS   H9Y 9713   3.997   4.287   7.935 -0.4972  0.1582 -0.2441
   97SAPS  C310 9714   3.777   4.208   7.952 -0.0189 -0.6306  0.1485
   97SAPS  H10X 9715   3.823   4.108   7.965 -1.3399 -1.1387  1.0691
   97SAPS  H10Y 9716   3.743   4.224   7.847 -0.1500  0.8343  0.3892
   97SAPS  C311 9717   3.658   4.224   8.047 -0.1442  0.0832 -0.0681
   97SAPS  H11X 9718   3.567   4.190   7.993 -0.1683  1.1461 -0.7174
   97SAPS  H11Y 9719   3.646   4.327   8.086 -1.2127  0.2655 -0.8040
   97SAPS  C312 9720   3.666   4.120   8.165  0.4994  0.6804 -0.4618
   97SAPS  H12X 9721   3.767   4.098   8.207 -0.3133 -1.8169  0.3446
   97SAPS  H12Y 9722   3.635   4.019   8.132  1.5527  1.3441 -3.8759
   97SAPS  C313 9723   3.575   4.150   8.279 -0.9405 -0.3020 -0.0055
   97SAPS  H13X 9724   3.475   4.169   8.234 -0.7444 -2.5423 -1.5289
   97SAPS  H13Y 9725   3.604   4.238   8.341 -2.4280  0.5158 -0.4064
   97SAPS  C314 9726   3.554   4.022   8.366 -0.5684  0.2780 -0.0139
   97SAPS  H14X 9727   3.655   3.977   8.377 -0.5903  0.8318  3.6677
   97SAPS  H14Y 9728   3.487   3.953   8.310 -0.6059 -1.2888  1.8634
   97SAPS  C315 9729   3.494   4.040   8.504 -0.0637 -0.1393  0.1203
   97SAPS  H15X 9730   3.456   3.939   8.531 -0.6502 -0.4808 -1.7791
   97SAPS  H15Y 9731   3.406   4.104   8.481  0.9028  0.8342 -1.0136
   97SAPS  C316 9732   3.592   4.095   8.610 -0.5850 -0.3810 -0.2105
   97SAPS  H16X 9733   3.609   4.202   8.586  0.4389 -0.6957 -0.9845
   97SAPS  H16Y 9734   3.689   4.041   8.615 -0.1616  0.1960 -1.6430
   97SAPS  C317 9735   3.511   4.089   8.743  0.0764  0.2688 -0.6896
   97SAPS  H17X 9736   3.492   3.983   8.772  1.8391  0.3464  0.9700
   97SAPS  H17Y 9737   3.416   4.145   8.730 -1.3162 -1.8772 -0.3536
   97SAPS  C318 9738   3.591   4.162   8.863  0.3442 -0.7747  0.3761
   97SAPS  H18X 9739   3.533   4.166   8.958  1.4625  1.4433  1.0452
   97SAPS  H18Y 9740   3.619   4.264   8.829  4.0800 -0.6824  3.0599
   97SAPS  H18Z 9741   3.686   4.106   8.875  0.7829  0.0775  0.9795
   98SAPS     N 9742   4.222   5.410   6.120 -0.0803 -0.6803 -0.3331
   98SAPS   HN1 9743   4.300   5.415   6.051  1.1849  0.7242  1.1328
   98SAPS   HN2 9744   4.145   5.459   6.070 -0.0010 -0.6239 -0.4016
   98SAPS   HN3 9745   4.252   5.457   6.208 -1.0438 -0.3893 -0.1431
   98SAPS   C12 9746   4.180   5.268   6.151  0.0639 -0.0973  0.8482
   98SAPS  H12A 9747   4.091   5.250   6.093 -0.2335  1.5756  0.7438
   98SAPS   C13 9748   4.288   5.178   6.088  0.2901  0.6083 -0.3454
   98SAPS  O13A 9749   4.376   5.223   6.013 -0.4744 -0.0160 -0.0243
   98SAPS  O13B 9750   4.273   5.054   6.109  0.5479 -0.6612  0.0381
   98SAPS   C11 9751   4.163   5.240   6.301  1.0013  0.1678  0.0827
   98SAPS  H11A 9752   4.261   5.229   6.350  0.1524 -1.5674  1.5040
   98SAPS  H11B 9753   4.118   5.139   6.314 -0.8620  0.7540 -1.2799
   98SAPS     P 9754   3.949   5.309   6.435  0.3115 -0.0250  0.5509
   98SAPS   O13 9755   3.910   5.448   6.475 -0.5533  0.1501 -0.0727
   98SAPS   O14 9756   3.852   5.235   6.346 -0.8920 -0.2069 -0.4384
   98SAPS   O12 9757   4.083   5.331   6.368  0.2627 -0.0620 -0.5195
   98SAPS   O11 9758   3.984   5.228   6.559 -0.3600  0.2297 -0.5502
   98SAPS    C1 9759   4.089   5.267   6.653 -0.3851 -0.0123 -0.2489
   98SAPS    HA 9760   4.150   5.351   6.613  1.8499 -1.3978  0.0607
   98SAPS    HB 9761   4.027   5.303   6.738 -0.1559  3.3945 -1.3491
   98SAPS    C2 9762   4.173   5.140   6.693 -0.1618  0.0423 -0.6911
   98SAPS    HS 9763   4.166   5.070   6.607 -0.7964 -4.7067  2.8112
   98SAPS   O21 9764   4.114   5.080   6.809  0.5186  0.1489 -0.1078
   98SAPS   C21 9765   4.103   4.948   6.805 -0.0716 -0.8786  0.1043
   98SAPS   O22 9766   4.141   4.877   6.715  0.3322 -0.1099  0.5889
   98SAPS   C22 9767   4.038   4.901   6.936  0.0922  0.7876 -0.6801
   98SAPS   H2R 9768   3.992   4.984   6.993  0.4262  0.3579  0.2470
   98SAPS   H2S 9769   3.962   4.828   6.901  0.8306 -0.5390  0.3781
   98SAPS    C3 9770   4.324   5.170   6.723 -0.4613  0.3528 -0.0345
   98SAPS    HX 9771   4.346   5.224   6.628 -0.5421 -0.1728 -0.3565
   98SAPS    HY 9772   4.376   5.072   6.727 -3.3765 -1.2808  0.4926
   98SAPS   O31 9773   4.336   5.253   6.841 -0.4258 -0.7000 -0.2039
   98SAPS   C31 9774   4.448   5.332   6.827 -0.1095  0.4256 -0.0922
   98SAPS   O32 9775   4.530   5.324   6.741 -0.5809  0.5665 -0.4111
   98SAPS   C32 9776   4.461   5.420   6.950 -0.8718  0.1539  0.6289
   98SAPS   H2X 9777   4.363   5.455   6.990 -1.1810  1.2316 -0.9495
   98SAPS   H2Y 9778   4.520   5.505   6.909  1.5262 -1.3925  0.7150
   98SAPS   C23 9779   4.136   4.832   7.031 -0.0647  0.5035  0.6442
   98SAPS   H3R 9780   4.209   4.779   6.967 -3.0286 -0.0311 -2.5691
   98SAPS   H3S 9781   4.071   4.757   7.081 -1.0131  1.0635  0.2740
   98SAPS   C24 9782   4.204   4.930   7.124  0.0158 -0.0809  0.1494
   98SAPS   H4R 9783   4.124   4.983   7.180  0.9703  0.8099  0.7283
   98SAPS   H4S 9784   4.251   5.003   7.054 -0.6991  2.7412  2.4392
   98SAPS   C25 9785   4.308   4.866   7.210 -0.2095 -0.1848  0.0617
   98SAPS   H5R 9786   4.409   4.846   7.171  0.5746 -0.1990  1.9670
   98SAPS   C26 9787   4.288   4.793   7.318 -0.2127 -0.0029 -0.1218
   98SAPS   H6R 9788   4.376   4.736   7.349  2.4519  2.4809 -2.5616
   98SAPS   C27 9789   4.168   4.770   7.407  0.1026 -0.1777  0.2464
   98SAPS   H7R 9790   4.090   4.704   7.363  0.6536 -0.1130 -0.8552
   98SAPS   H7S 9791   4.118   4.866   7.435  0.2807 -0.1518  0.4668
   98SAPS   C28 9792   4.222   4.711   7.536  0.0346 -0.3744 -0.1571
   98SAPS   H8R 9793   4.259   4.609   7.519 -0.5779 -0.6916  0.3915
   98SAPS   C29 9794   4.206   4.758   7.661 -0.4125  0.7606  0.2490
   98SAPS   H9R 9795   4.240   4.703   7.749 -3.7086 -3.2824 -0.7195
   98SAPS  C210 9796   4.141   4.888   7.699  0.2440  0.4147  0.5141
   98SAPS  H10R 9797   4.107   4.943   7.609  0.8203 -1.2090 -0.7260
   98SAPS  H10S 9798   4.213   4.954   7.752 -0.2927 -0.0048  1.8176
   98SAPS  C211 9799   4.015   4.856   7.774 -1.3912 -0.1370  0.6489
   98SAPS  H11R 9800   3.920   4.847   7.720 -0.3815 -0.9570 -1.0487
   98SAPS  C212 9801   4.003   4.829   7.908  0.5917  0.1504  1.2160
   98SAPS  H12R 9802   3.899   4.816   7.940 -0.6482  0.7669 -2.1338
   98SAPS  C213 9803   4.108   4.840   8.013 -0.4179  0.3373  1.5798
   98SAPS  H13R 9804   4.208   4.853   7.964 -2.0246 -0.5334 -2.3479
   98SAPS  H13S 9805   4.123   4.743   8.064 -0.9328  0.9723  2.9939
   98SAPS  C214 9806   4.066   4.947   8.115  0.4614 -0.1458  0.7662
   98SAPS  H14R 9807   4.072   5.053   8.087 -2.0178 -0.3786 -1.0156
   98SAPS  C215 9808   4.053   4.917   8.246 -0.0898  0.6003 -0.0417
   98SAPS  H15R 9809   4.004   4.990   8.312 -2.1274 -2.0840  1.6179
   98SAPS  C216 9810   4.077   4.778   8.309  0.3432 -0.2834 -0.5204
   98SAPS  H16R 9811   4.136   4.794   8.402 -1.8947 -0.2178  0.9565
   98SAPS  H16S 9812   4.131   4.699   8.253  1.0887 -0.9679  1.1168
   98SAPS  C217 9813   3.945   4.715   8.374 -1.0970 -0.3602  0.2416
   98SAPS  H17R 9814   3.894   4.793   8.434  2.8982  0.7366  2.6027
   98SAPS  H17S 9815   3.990   4.646   8.449  0.9184 -0.8283 -1.2890
   98SAPS  C218 9816   3.855   4.640   8.270  0.7608  0.2367  0.0925
   98SAPS  H18R 9817   3.918   4.582   8.200  1.5466  0.8288  0.2981
   98SAPS  H18S 9818   3.796   4.713   8.210 -1.8863  0.8265  3.1156
   98SAPS  C219 9819   3.757   4.547   8.345  0.1353  0.0587  0.0775
   98SAPS  H19R 9820   3.692   4.500   8.268 -0.8062  0.5119  0.5805
   98SAPS  H19S 9821   3.684   4.609   8.401  0.2941 -0.5940  1.0232
   98SAPS  C220 9822   3.816   4.437   8.437 -0.4580  0.6320  0.0423
   98SAPS  H20R 9823   3.731   4.370   8.464  0.3975 -0.5123 -0.0436
   98SAPS  H20S 9824   3.857   4.477   8.532 -1.4088  1.0540  0.2874
   98SAPS  H20T 9825   3.900   4.388   8.383  0.4597  3.3680 -1.2196
   98SAPS   C33 9826   4.548   5.351   7.060  0.3586 -0.6045 -0.1035
   98SAPS   H3X 9827   4.613   5.427   7.109 -3.5616  1.7978  1.7974
   98SAPS   H3Y 9828   4.616   5.276   7.014  0.8810 -1.1600  1.4954
   98SAPS   C34 9829   4.474   5.288   7.182  0.2192  0.0964 -0.0826
   98SAPS   H4X 9830   4.538   5.212   7.231 -1.3035 -1.5867 -0.6237
   98SAPS   H4Y 9831   4.383   5.238   7.143 -0.1293 -0.2993  1.1741
   98SAPS   C35 9832   4.450   5.402   7.285  0.1612  0.8706  1.1015
   98SAPS   H5X 9833   4.412   5.491   7.228 -1.1334  0.5857  1.4729
   98SAPS   H5Y 9834   4.538   5.424   7.349 -0.2895  0.0655  2.0169
   98SAPS   C36 9835   4.343   5.375   7.389  0.1684 -0.7121 -0.0602
   98SAPS   H6X 9836   4.244   5.358   7.340  0.7065 -1.7563 -0.8274
   98SAPS   H6Y 9837   4.333   5.468   7.448 -1.5213 -1.5225  1.0199
   98SAPS   C37 9838   4.389   5.257   7.473  0.0170 -0.4846  0.0254
   98SAPS   H7X 9839   4.491   5.277   7.513 -0.6148  3.2243  0.2139
   98SAPS   H7Y 9840   4.402   5.167   7.410  1.1675 -1.5773  1.7397
   98SAPS   C38 9841   4.291   5.231   7.592  0.0057  0.9768  0.6421
   98SAPS   H8X 9842   4.310   5.132   7.639 -2.6530  0.5231  0.9111
   98SAPS   H8Y 9843   4.189   5.237   7.549  1.7238  3.1099 -3.7602
   98SAPS   C39 9844   4.315   5.325   7.715  0.0384 -0.3204 -0.3041
   98SAPS   H9X 9845   4.280   5.427   7.690 -0.6519 -0.6516 -0.7407
   98SAPS   H9Y 9846   4.423   5.333   7.740  0.5792 -1.2115 -2.1689
   98SAPS  C310 9847   4.245   5.269   7.841  0.6210 -0.7432 -0.4222
   98SAPS  H10X 9848   4.257   5.159   7.851 -2.3382 -1.1523 -0.2772
   98SAPS  H10Y 9849   4.137   5.292   7.826  0.6401  0.5205  1.1026
   98SAPS  C311 9850   4.288   5.349   7.962  0.0314 -0.0589  0.1976
   98SAPS  H11X 9851   4.260   5.456   7.972  1.2706  0.3421 -0.3382
   98SAPS  H11Y 9852   4.397   5.368   7.973  0.1207 -1.7461  3.1203
   98SAPS  C312 9853   4.241   5.294   8.095 -0.2270  0.0924 -0.0882
   98SAPS  H12X 9854   4.229   5.184   8.101 -1.3337  0.2806  1.6669
   98SAPS  H12Y 9855   4.138   5.330   8.114  0.2663  1.1648  0.6132
   98SAPS  C313 9856   4.345   5.321   8.207  0.4937  0.0689  0.0016
   98SAPS  H13X 9857   4.356   5.430   8.191  1.9942  0.0306  0.6119
   98SAPS  H13Y 9858   4.444   5.273   8.193 -1.0005 -3.0917 -0.6752
   98SAPS  C314 9859   4.300   5.301   8.357 -0.5771 -0.6634 -0.1976
   98SAPS  H14X 9860   4.235   5.211   8.363 -1.1246 -0.2826 -0.3391
   98SAPS  H14Y 9861   4.249   5.397   8.378  1.3865  0.7222 -1.4297
   98SAPS  C315 9862   4.425   5.285   8.436 -0.6313  0.2004 -0.4369
   98SAPS  H15X 9863   4.484   5.376   8.413  0.8648 -0.1264  1.7675
   98SAPS  H15Y 9864   4.484   5.199   8.397  2.3802  2.1986 -0.6776
   98SAPS  C316 9865   4.403   5.297   8.589  0.5119  0.1744 -0.5681
   98SAPS  H16X 9866   4.369   5.199   8.630  1.2869 -0.2964 -1.0216
   98SAPS  H16Y 9867   4.317   5.365   8.607  1.7195  1.1821  1.7201
   98SAPS  C317 9868   4.526   5.364   8.659 -0.0337  0.0769 -0.0308
   98SAPS  H17X 9869   4.518   5.474   8.643  0.5164 -0.1560 -2.2092
   98SAPS  H17Y 9870   4.612   5.318   8.606  0.3401  0.6980  0.0259
   98SAPS  C318 9871   4.526   5.332   8.808  0.0475 -0.1854  0.1885
   98SAPS  H18X 9872   4.526   5.223   8.827  0.6624 -0.3845 -0.8841
   98SAPS  H18Y 9873   4.427   5.367   8.844 -1.4545 -2.3299 -1.6057
   98SAPS  H18Z 9874   4.618   5.370   8.857 -0.0435  0.7554 -0.3274
   99SAPS     N 9875   3.295   2.583   6.237 -0.0339  0.9684 -0.8225
   99SAPS   HN1 9876   3.238   2.497   6.253 -2.2388  1.9832 -2.7138
   99SAPS   HN2 9877   3.396   2.572   6.215  0.0288  0.0084 -0.1313
   99SAPS   HN3 9878   3.289   2.649   6.317  2.3512  0.2627  0.0105
   99SAPS   C12 9879   3.251   2.664   6.121 -0.3302  0.7177  0.1118
   99SAPS  H12A 9880   3.320   2.746   6.105  1.0330 -0.6094 -1.1617
   99SAPS   C13 9881   3.252   2.586   5.983  0.2781 -0.0844 -0.1424
   99SAPS  O13A 9882   3.284   2.464   5.990  0.1184  0.5897 -0.1503
   99SAPS  O13B 9883   3.232   2.639   5.871  0.0665 -0.1052 -0.3204
   99SAPS   C11 9884   3.108   2.713   6.143  0.1991 -0.0357  0.1641
   99SAPS  H11A 9885   3.042   2.625   6.128 -0.5038  0.9400 -3.6386
   99SAPS  H11B 9886   3.075   2.788   6.068  0.6109  1.3355  1.2985
   99SAPS     P 9887   2.957   2.784   6.344  0.0845  0.0606  0.1663
   99SAPS   O13 9888   2.979   2.881   6.452  0.5121  0.0205 -0.4787
   99SAPS   O14 9889   2.852   2.817   6.245  0.1551  0.2825  0.0294
   99SAPS   O12 9890   3.092   2.776   6.274 -0.6236 -0.6210  0.6153
   99SAPS   O11 9891   2.936   2.645   6.416 -0.7042 -0.3052  0.5132
   99SAPS    C1 9892   3.010   2.596   6.526 -0.4461 -0.5689 -0.6467
   99SAPS    HA 9893   3.102   2.550   6.484  0.2449  1.1553 -1.0708
   99SAPS    HB 9894   3.048   2.672   6.597 -0.1025 -0.1239 -1.2994
   99SAPS    C2 9895   2.921   2.497   6.605  0.3928  0.1109 -0.3052
   99SAPS    HS 9896   2.864   2.430   6.537 -0.5131  0.2214  0.3283
   99SAPS   O21 9897   2.836   2.566   6.692  0.2508 -0.4050 -0.0926
   99SAPS   C21 9898   2.753   2.492   6.766  0.1503 -0.2575 -0.3151
   99SAPS   O22 9899   2.739   2.371   6.758  0.0680  0.4953 -0.4905
   99SAPS   C22 9900   2.682   2.579   6.870 -0.0174 -0.4342 -0.6424
   99SAPS   H2R 9901   2.745   2.669   6.887 -0.4026 -0.2606 -0.1272
   99SAPS   H2S 9902   2.577   2.598   6.838  0.5114  0.6562 -1.8507
   99SAPS    C3 9903   3.014   2.395   6.680 -0.2751  0.7655 -0.3464
   99SAPS    HX 9904   3.098   2.382   6.609  0.4957 -1.5073  0.8766
   99SAPS    HY 9905   2.963   2.297   6.690 -2.3208  1.8852  1.0250
   99SAPS   O31 9906   3.055   2.431   6.813  0.1433  0.5558  0.2389
   99SAPS   C31 9907   3.163   2.499   6.832 -0.0311 -0.6501 -0.1324
   99SAPS   O32 9908   3.237   2.552   6.749  0.5477 -0.3759  0.2175
   99SAPS   C32 9909   3.193   2.476   6.988  0.6226 -0.2431 -0.4854
   99SAPS   H2X 9910   3.277   2.403   6.984  0.3398 -0.5417 -1.1667
   99SAPS   H2Y 9911   3.100   2.447   7.040  0.5570  1.4040  0.3734
   99SAPS   C23 9912   2.687   2.520   7.016  0.0533  0.3091  0.1011
   99SAPS   H3R 9913   2.646   2.417   7.014  0.1385  0.2722 -1.8654
   99SAPS   H3S 9914   2.635   2.593   7.080  0.2608 -0.3370  1.0308
   99SAPS   C24 9915   2.828   2.512   7.080 -0.8344 -0.0821 -0.1462
   99SAPS   H4R 9916   2.865   2.616   7.071  1.0491 -0.6170  1.0361
   99SAPS   H4S 9917   2.891   2.447   7.015 -0.5395  2.4720 -2.6033
   99SAPS   C25 9918   2.835   2.465   7.221  0.5506 -0.0133 -0.1809
   99SAPS   H5R 9919   2.835   2.356   7.234 -0.0909  0.0094  0.0070
   99SAPS   C26 9920   2.847   2.532   7.335 -0.0153 -0.9343 -0.7262
   99SAPS   H6R 9921   2.850   2.475   7.429 -1.6855  0.4356  0.2092
   99SAPS   C27 9922   2.854   2.683   7.346  0.0989  0.1427  0.0288
   99SAPS   H7R 9923   2.816   2.716   7.445 -1.2655  0.0699 -0.4437
   99SAPS   H7S 9924   2.794   2.735   7.269 -2.4448 -2.2054  0.2553
   99SAPS   C28 9925   2.990   2.723   7.308 -0.5878  0.1805 -0.8672
   99SAPS   H8R 9926   3.023   2.701   7.205  1.5124  1.3801 -0.5081
   99SAPS   C29 9927   3.083   2.783   7.387  0.0893 -0.5754  0.4778
   99SAPS   H9R 9928   3.176   2.817   7.338  0.1678 -0.6808  0.5505
   99SAPS  C210 9929   3.061   2.844   7.522 -1.3060 -0.0952 -0.0670
   99SAPS  H10R 9930   2.968   2.799   7.562 -2.1240  0.6971 -1.0062
   99SAPS  H10S 9931   3.047   2.953   7.503  2.6654  0.3393 -1.5658
   99SAPS  C211 9932   3.169   2.832   7.633 -0.2447 -0.0972  0.1024
   99SAPS  H11R 9933   3.229   2.743   7.610 -0.8616 -1.2404  2.5574
   99SAPS  C212 9934   3.209   2.925   7.727 -0.0614  0.2285  0.1023
   99SAPS  H12R 9935   3.300   2.901   7.784 -0.0450 -0.4269 -0.1950
   99SAPS  C213 9936   3.150   3.069   7.754  0.9067  0.1932  0.0155
   99SAPS  H13R 9937   3.040   3.068   7.738  0.9116  4.0055 -1.3251
   99SAPS  H13S 9938   3.196   3.149   7.692  1.6327  0.7009  1.1733
   99SAPS  C214 9939   3.175   3.112   7.899  0.3836  0.2406  0.0253
   99SAPS  H14R 9940   3.279   3.104   7.934  0.5039  2.3502  0.2401
   99SAPS  C215 9941   3.074   3.150   7.977 -0.1392  0.3503 -0.4135
   99SAPS  H15R 9942   3.114   3.174   8.077 -1.1844  2.2040 -0.3942
   99SAPS  C216 9943   2.924   3.164   7.944 -0.0930  0.0650 -0.0691
   99SAPS  H16R 9944   2.885   3.065   7.975  0.6811 -0.1238  0.3473
   99SAPS  H16S 9945   2.911   3.177   7.834  1.5413 -3.4754 -0.8116
   99SAPS  C217 9946   2.860   3.279   8.025 -1.0409  0.2370 -0.2765
   99SAPS  H17R 9947   2.863   3.263   8.135 -2.7256  1.4823 -0.0036
   99SAPS  H17S 9948   2.751   3.280   8.002 -1.0046 -0.8389 -0.5494
   99SAPS  C218 9949   2.918   3.418   7.994 -0.5590 -0.0347  0.5127
   99SAPS  H18R 9950   2.909   3.441   7.886  1.0967  1.8898  0.7355
   99SAPS  H18S 9951   3.025   3.418   8.024 -0.3187 -2.0878 -0.2039
   99SAPS  C219 9952   2.842   3.533   8.060  0.3771 -0.2294 -0.6249
   99SAPS  H19R 9953   2.839   3.525   8.170  1.2071 -2.0930 -0.7041
   99SAPS  H19S 9954   2.740   3.532   8.016 -0.5742 -0.6971  1.5087
   99SAPS  C220 9955   2.901   3.671   8.034  0.4048  0.8536  0.0993
   99SAPS  H20R 9956   3.006   3.680   8.070  0.6014 -2.2347  0.6011
   99SAPS  H20S 9957   2.835   3.751   8.073 -1.8442 -1.4604  1.3260
   99SAPS  H20T 9958   2.917   3.689   7.925  3.4928  0.5855  0.3980
   99SAPS   C33 9959   3.245   2.604   7.055  0.1369 -0.9248 -0.8387
   99SAPS   H3X 9960   3.172   2.684   7.078 -0.2002 -0.8975 -1.9777
   99SAPS   H3Y 9961   3.329   2.642   6.993 -0.0231  1.7505  0.4621
   99SAPS   C34 9962   3.330   2.565   7.179 -0.3657 -0.0437  0.0853
   99SAPS   H4X 9963   3.379   2.469   7.155 -1.6646 -0.6096 -0.3855
   99SAPS   H4Y 9964   3.258   2.541   7.261  1.3827 -2.0129  1.1325
   99SAPS   C35 9965   3.438   2.670   7.224  0.3019  0.5857 -0.2628
   99SAPS   H5X 9966   3.390   2.768   7.240 -1.4780  0.0126 -1.6936
   99SAPS   H5Y 9967   3.509   2.698   7.143  1.9804 -1.1365  0.5344
   99SAPS   C36 9968   3.525   2.637   7.345  0.4679  0.4586  0.4170
   99SAPS   H6X 9969   3.599   2.557   7.323 -0.4852 -0.4502  0.4128
   99SAPS   H6Y 9970   3.463   2.605   7.431  1.1118 -1.4259  0.2434
   99SAPS   C37 9971   3.613   2.757   7.380 -0.0252 -0.5210  0.8657
   99SAPS   H7X 9972   3.552   2.841   7.419 -1.5540 -0.5183 -1.3838
   99SAPS   H7Y 9973   3.650   2.804   7.286  0.6257  1.3282  1.9789
   99SAPS   C38 9974   3.732   2.719   7.472 -0.5901  0.3711  0.4674
   99SAPS   H8X 9975   3.781   2.807   7.519 -0.8745  0.7470  0.0655
   99SAPS   H8Y 9976   3.809   2.672   7.408 -1.5626  0.2368 -0.6462
   99SAPS   C39 9977   3.693   2.634   7.597 -0.3414 -0.7009  0.6379
   99SAPS   H9X 9978   3.776   2.579   7.647 -0.6562  0.1014  2.0899
   99SAPS   H9Y 9979   3.627   2.551   7.562 -4.3767  2.3721  0.2621
   99SAPS  C310 9980   3.628   2.712   7.717 -0.2554  0.2137  0.5832
   99SAPS  H10X 9981   3.537   2.771   7.695 -0.3371 -0.1689 -0.1506
   99SAPS  H10Y 9982   3.705   2.790   7.738 -0.1610  0.0711  0.7621
   99SAPS  C311 9983   3.588   2.627   7.837  0.3378  0.3944  0.2060
   99SAPS  H11X 9984   3.660   2.542   7.838  0.6299  0.6466  0.9496
   99SAPS  H11Y 9985   3.484   2.594   7.816  0.6967 -0.9561  0.4706
   99SAPS  C312 9986   3.593   2.701   7.973 -0.1501 -0.0625 -0.4324
   99SAPS  H12X 9987   3.694   2.743   7.992 -0.3945  0.8985 -1.1565
   99SAPS  H12Y 9988   3.580   2.627   8.055  2.5158 -0.1035  0.0381
   99SAPS  C313 9989   3.477   2.801   7.978  0.8769 -0.4353  0.9111
   99SAPS  H13X 9990   3.384   2.742   7.968  1.4695 -0.9267 -3.1483
   99SAPS  H13Y 9991   3.475   2.886   7.907 -1.3345 -0.2966  1.0865
   99SAPS  C314 9992   3.476   2.874   8.121  0.6675  0.0775 -0.2826
   99SAPS  H14X 9993   3.383   2.936   8.116  0.8349  0.2141 -2.5459
   99SAPS  H14Y 9994   3.577   2.918   8.131 -0.0220  1.3166  2.1453
   99SAPS  C315 9995   3.451   2.788   8.242 -0.0163  0.0298  0.2137
   99SAPS  H15X 9996   3.539   2.736   8.284 -1.5948 -1.3948  1.9281
   99SAPS  H15Y 9997   3.388   2.699   8.219 -0.5776  0.3616  0.4420
   99SAPS  C316 9998   3.370   2.861   8.357  0.3655 -0.4237 -0.4742
   99SAPS  H16X 9999   3.265   2.827   8.341 -0.4371  1.1645  1.0819
   99SAPS  H16Y10000   3.360   2.970   8.341  0.3602 -0.1851  1.0093
   99SAPS  C31710001   3.407   2.828   8.507 -0.8560 -0.0789  0.5350
   99SAPS  H17X10002   3.514   2.855   8.521 -0.5294 -0.4259 -1.1106
   99SAPS  H17Y10003   3.410   2.718   8.517  3.2982  0.0411  3.2070
   99SAPS  C31810004   3.314   2.893   8.609  0.1643 -0.4662 -0.3208
   99SAPS  H18X10005   3.299   3.003   8.594  0.1126 -0.4557 -0.1983
   99SAPS  H18Y10006   3.345   2.872   8.713  2.5705  1.7276 -0.5089
   99SAPS  H18Z10007   3.209   2.855   8.606  0.1117 -0.7477  2.6017
  100SAPS     N10008   5.540   4.011   6.617 -0.6412  0.3242  0.0774
  100SAPS   HN110009   5.611   4.054   6.680  0.0044  1.1811 -1.1856
  100SAPS   HN210010   5.483   4.083   6.567 -0.2421  0.6489  0.0820
  100SAPS   HN310011   5.473   3.972   6.686  1.3606  0.6129  2.3231
  100SAPS   C1210012   5.573   3.912   6.505 -0.1944 -0.6522  0.8547
  100SAPS  H12A10013   5.629   3.831   6.550  0.4892 -1.0676 -0.6564
  100SAPS   C1310014   5.453   3.847   6.435  0.2142 -0.4015 -0.5470
  100SAPS  O13A10015   5.339   3.874   6.481 -0.3589 -0.3949  0.2165
  100SAPS  O13B10016   5.469   3.769   6.340 -0.0396  0.5239  0.2238
  100SAPS   C1110017   5.675   3.967   6.406 -0.6571 -0.6637 -0.2009
  100SAPS  H11A10018   5.625   4.044   6.344  0.3371 -0.0460 -0.2482
  100SAPS  H11B10019   5.704   3.889   6.333 -1.1042 -0.5691 -0.4835
  100SAPS     P10020   5.922   4.063   6.408 -0.4842 -0.0406 -0.2448
  100SAPS   O1310021   5.933   3.990   6.277 -0.0416 -0.2660  0.5292
  100SAPS   O1410022   5.937   4.209   6.412  0.4391  0.3733 -0.1967
  100SAPS   O1210023   5.786   4.020   6.480 -0.5550 -0.3809  0.3837
  100SAPS   O1110024   6.028   4.006   6.513 -0.3960  0.0613  0.0789
  100SAPS    C110025   5.984   3.898   6.600 -0.3829 -0.2567 -0.4596
  100SAPS    HA10026   5.907   3.834   6.552 -0.8138 -1.0097  1.1846
  100SAPS    HB10027   6.069   3.829   6.619  0.8749  1.6739  1.3971
  100SAPS    C210028   5.934   3.958   6.735  0.2345  0.1562 -0.4976
  100SAPS    HS10029   5.853   4.028   6.707 -0.3346 -0.4542 -0.4213
  100SAPS   O2110030   6.043   4.022   6.800 -0.3325  0.4024  0.2460
  100SAPS   C2110031   6.024   4.139   6.857 -0.2270 -0.2730 -0.0475
  100SAPS   O2210032   5.922   4.206   6.854  0.5095  0.2837 -0.2791
  100SAPS   C2210033   6.158   4.170   6.933  0.4199  0.5425  0.6706
  100SAPS   H2R10034   6.184   4.078   6.990 -1.2101 -0.3948 -0.0490
  100SAPS   H2S10035   6.233   4.185   6.852 -1.6558  1.7784 -1.1171
  100SAPS    C310036   5.870   3.855   6.828 -0.1996  0.1768 -0.7483
  100SAPS    HX10037   5.930   3.765   6.849 -0.9113 -0.0485  0.4239
  100SAPS    HY10038   5.780   3.818   6.775  0.1362 -1.0149 -0.5171
  100SAPS   O3110039   5.842   3.909   6.956  0.0279  0.4816  0.4682
  100SAPS   C3110040   5.723   3.984   6.960 -0.5500  0.7053 -0.1550
  100SAPS   O3210041   5.664   4.018   6.862  0.0429  0.2741  0.1470
  100SAPS   C3210042   5.712   4.037   7.101  0.5809  0.2203 -0.5920
  100SAPS   H2X10043   5.795   4.110   7.117 -0.2356  1.0055  0.2126
  100SAPS   H2Y10044   5.716   3.949   7.169  1.9205 -0.5083 -1.5706
  100SAPS   C2310045   6.145   4.295   7.033 -0.2341 -0.2621  0.3687
  100SAPS   H3R10046   6.141   4.391   6.978  1.2004 -0.4240 -0.0553
  100SAPS   H3S10047   6.246   4.307   7.078  0.3468 -3.7835  0.3422
  100SAPS   C2410048   6.035   4.293   7.139  0.1465  0.3545 -0.4879
  100SAPS   H4R10049   5.933   4.308   7.100 -0.5046  3.1330  1.9051
  100SAPS   H4S10050   6.050   4.378   7.209  0.6718 -0.3803  0.3159
  100SAPS   C2510051   6.043   4.172   7.233  0.1665  0.5657 -0.1693
  100SAPS   H5R10052   6.083   4.078   7.192  2.0509 -0.0539  2.7599
  100SAPS   C2610053   6.021   4.166   7.366 -0.5028 -0.2850  0.4993
  100SAPS   H6R10054   6.043   4.076   7.426 -0.0225  0.0178  0.7905
  100SAPS   C2710055   5.988   4.291   7.443  0.2229  0.0642 -0.2037
  100SAPS   H7R10056   5.880   4.307   7.419 -0.7138 -1.1040  2.7271
  100SAPS   H7S10057   6.044   4.381   7.411  0.8631 -0.1855  0.1949
  100SAPS   C2810058   5.988   4.286   7.600  0.5250 -0.5700  0.2631
  100SAPS   H8R10059   6.075   4.329   7.652 -1.3412 -0.6114  3.8056
  100SAPS   C2910060   5.880   4.232   7.677  0.2944  0.3594 -0.0313
  100SAPS   H9R10061   5.875   4.253   7.785 -0.1268 -4.9008  1.2145
  100SAPS  C21010062   5.750   4.171   7.614 -0.2696  0.1388  0.0536
  100SAPS  H10R10063   5.748   4.192   7.505  1.6977  3.0098  0.4522
  100SAPS  H10S10064   5.677   4.241   7.661 -0.3295  1.4284 -1.8657
  100SAPS  C21110065   5.708   4.034   7.657  0.6271 -0.1377 -0.0524
  100SAPS  H11R10066   5.741   3.947   7.599  0.5574  0.6860 -1.3686
  100SAPS  C21210067   5.624   4.015   7.765 -0.1463  0.9259  0.9365
  100SAPS  H12R10068   5.609   3.912   7.802  0.7920  0.4518  0.0355
  100SAPS  C21310069   5.559   4.112   7.855 -0.0989 -0.1905  0.2021
  100SAPS  H13R10070   5.456   4.120   7.813  0.4626 -0.3605 -1.2582
  100SAPS  H13S10071   5.607   4.212   7.854 -1.8137  0.6838 -0.1368
  100SAPS  C21410072   5.547   4.075   8.001 -0.1945 -0.3236  0.2312
  100SAPS  H14R10073   5.640   4.075   8.060 -1.1961  1.1170  1.9134
  100SAPS  C21510074   5.433   4.048   8.069 -0.1370 -0.7823  0.9126
  100SAPS  H15R10075   5.446   4.022   8.175 -2.9093 -0.1205  1.4764
  100SAPS  C21610076   5.288   4.045   8.021  0.0389  0.0836  0.1246
  100SAPS  H16R10077   5.238   3.968   8.084 -0.7998 -1.6777 -2.5498
  100SAPS  H16S10078   5.270   4.019   7.915 -0.8143 -0.6527  0.4370
  100SAPS  C21710079   5.211   4.178   8.034 -0.9313  0.2641  0.7648
  100SAPS  H17R10080   5.125   4.181   7.963 -0.2358  2.5280 -0.0620
  100SAPS  H17S10081   5.277   4.256   7.990  1.9552 -1.3007  2.0722
  100SAPS  C21810082   5.180   4.208   8.177  0.2480 -0.5501  0.0219
  100SAPS  H18R10083   5.277   4.197   8.231 -0.2081 -1.7502  0.6483
  100SAPS  H18S10084   5.113   4.129   8.219  0.9032 -1.0347  0.1682
  100SAPS  C21910085   5.117   4.353   8.196 -0.0452  0.5175 -0.2144
  100SAPS  H19R10086   5.034   4.367   8.124  0.7702  1.2849 -1.0381
  100SAPS  H19S10087   5.198   4.422   8.163 -0.7823  0.6927 -1.7569
  100SAPS  C22010088   5.077   4.384   8.335  0.1716  0.0962 -0.0578
  100SAPS  H20R10089   4.993   4.323   8.375 -0.7966 -0.3488 -2.6290
  100SAPS  H20S10090   5.057   4.491   8.359 -0.6488 -0.5463  2.3971
  100SAPS  H20T10091   5.165   4.354   8.397 -0.0822 -2.2338 -0.7506
  100SAPS   C3310092   5.583   4.117   7.121 -0.3741 -0.0958  0.4868
  100SAPS   H3X10093   5.499   4.056   7.082  0.1324  0.4413 -1.5202
  100SAPS   H3Y10094   5.599   4.213   7.069  3.4628 -1.4195 -1.1125
  100SAPS   C3410095   5.568   4.146   7.265 -0.2755 -0.8998 -0.1183
  100SAPS   H4X10096   5.662   4.197   7.298 -0.8541 -0.7604  1.3741
  100SAPS   H4Y10097   5.565   4.051   7.323  0.0308 -1.2307 -0.6366
  100SAPS   C3510098   5.442   4.226   7.302  0.1587 -0.0166  0.3046
  100SAPS   H5X10099   5.348   4.193   7.254  0.9046  0.1204 -1.3099
  100SAPS   H5Y10100   5.460   4.326   7.256 -2.1207 -0.8223 -2.6451
  100SAPS   C3610101   5.420   4.241   7.453 -0.7450 -0.1206 -1.0119
  100SAPS   H6X10102   5.519   4.261   7.501 -1.3803  0.9196 -0.0648
  100SAPS   H6Y10103   5.376   4.155   7.507  0.1725  0.5302  0.8882
  100SAPS   C3710104   5.312   4.345   7.488 -0.5630 -0.0458  0.7907
  100SAPS   H7X10105   5.218   4.287   7.482  0.4504 -1.6536 -0.0929
  100SAPS   H7Y10106   5.312   4.436   7.424 -1.2322 -0.1357  0.6585
  100SAPS   C3810107   5.328   4.396   7.637  0.1716 -0.2289  0.2919
  100SAPS   H8X10108   5.345   4.308   7.703 -1.0823 -0.3069  0.5295
  100SAPS   H8Y10109   5.241   4.441   7.690 -0.4975 -1.3612  0.1944
  100SAPS   C3910110   5.442   4.492   7.655 -0.1264 -0.0437 -0.1177
  100SAPS   H9X10111   5.411   4.596   7.629  2.2121  0.1083 -2.8966
  100SAPS   H9Y10112   5.521   4.471   7.579  0.1268  0.8367 -0.1093
  100SAPS  C31010113   5.500   4.487   7.801  0.0021 -0.5428  0.2051
  100SAPS  H10X10114   5.502   4.381   7.833 -3.1173 -0.6676  0.3357
  100SAPS  H10Y10115   5.433   4.537   7.875  3.9809  1.6105  2.6861
  100SAPS  C31110116   5.632   4.564   7.808 -0.4518 -1.1075 -0.4693
  100SAPS  H11X10117   5.628   4.664   7.760 -1.5820 -0.7813  0.2692
  100SAPS  H11Y10118   5.709   4.513   7.747  1.8594  0.2185  1.1878
  100SAPS  C31210119   5.696   4.554   7.944 -0.7056  0.2850  0.5680
  100SAPS  H12X10120   5.806   4.568   7.944 -0.8572  1.7008  0.0752
  100SAPS  H12Y10121   5.675   4.457   7.993  0.2482  1.2522  3.0769
  100SAPS  C31310122   5.644   4.669   8.030 -0.4967 -0.2407 -0.1520
  100SAPS  H13X10123   5.550   4.638   8.081 -0.0001 -1.4256  0.0682
  100SAPS  H13Y10124   5.621   4.765   7.978  1.2301  1.1618  1.5288
  100SAPS  C31410125   5.738   4.705   8.150  0.0738 -0.0426  0.0770
  100SAPS  H14X10126   5.838   4.746   8.122 -1.1810  3.5339  0.2568
  100SAPS  H14Y10127   5.738   4.616   8.216 -2.4441  0.2260  0.5356
  100SAPS  C31510128   5.684   4.830   8.236 -0.4889 -0.1082  0.3793
  100SAPS  H15X10129   5.641   4.911   8.174  0.8338  0.2658 -0.0905
  100SAPS  H15Y10130   5.775   4.872   8.284  0.1200 -0.7168 -0.2170
  100SAPS  C31610131   5.586   4.777   8.346 -0.9735  0.4742 -0.2140
  100SAPS  H16X10132   5.648   4.692   8.381 -3.4836 -1.3257  0.0480
  100SAPS  H16Y10133   5.485   4.744   8.315 -1.0858  0.2142  0.4215
  100SAPS  C31710134   5.579   4.865   8.472 -0.1230 -0.0467 -0.4254
  100SAPS  H17X10135   5.488   4.920   8.439  0.3465  1.3926  0.5440
  100SAPS  H17Y10136   5.668   4.932   8.465  0.5166 -1.0196 -2.8032
  100SAPS  C31810137   5.552   4.798   8.608  0.2020  0.1463 -0.6564
  100SAPS  H18X10138   5.532   4.884   8.675 -0.9723 -1.7482  1.5802
  100SAPS  H18Y10139   5.640   4.740   8.644 -0.9327 -2.2407 -1.5191
  100SAPS  H18Z10140   5.457   4.741   8.620 -0.0649  1.0288  1.9459
  101OSM      N10141   5.687   5.812  11.081 -0.1587  0.1359 -0.0384
  101OSM    C1510142   5.717   5.664  11.081  0.3510 -0.5001  0.0904
  101OSM   H15A10143   5.731   5.625  11.181  3.4345 -3.4756 -1.3044
  101OSM   H15B10144   5.805   5.626  11.030 -0.4906 -0.1526 -1.6921
  101OSM   H15C10145   5.632   5.618  11.035  0.2092  0.9984 -1.2222
  101OSM    C1410146   5.584   5.838  11.181  0.0924 -0.6837  0.3870
  101OSM   H14A10147   5.497   5.785  11.146 -0.1366  0.5206 -0.9383
  101OSM   H14B10148   5.567   5.943  11.197 -1.2227 -1.0080  1.3055
  101OSM   H14C10149   5.622   5.816  11.280  0.0641  0.5532  0.6944
  101OSM    C1310150   5.811   5.882  11.120  0.7511  0.4962  0.3851
  101OSM   H13A10151   5.783   5.983  11.145 -1.3144 -0.4061  2.0351
  101OSM   H13B10152   5.886   5.875  11.042 -1.7265  0.1803 -2.1175
  101OSM   H13C10153   5.846   5.845  11.216  0.9700 -0.5283 -0.0702
  101OSM    C1210154   5.650   5.866  10.948  0.2452 -0.4355 -0.6550
  101OSM   H12A10155   5.627   5.971  10.962 -1.2260 -0.7148 -0.7647
  101OSM   H12B10156   5.554   5.822  10.925 -0.1400 -0.5004  0.9144
  101OSM    C1110157   5.738   5.847  10.827 -0.4171 -0.3327  0.5413
  101OSM   H11A10158   5.703   5.889  10.730 -1.7309  0.9229  1.5159
  101OSM   H11B10159   5.736   5.742  10.789 -1.3970 -0.0660 -0.1982
  101OSM      P10160   5.926   6.032  10.796  0.1859 -0.3192  0.2288
  101OSM    O1310161   5.823   6.134  10.826 -0.3884 -0.5968  0.8328
  101OSM    O1410162   6.066   6.047  10.846 -0.0698 -0.8438 -0.4711
  101OSM    O1110163   5.922   6.001  10.638 -0.2159 -0.2291  0.5366
  101OSM    O1210164   5.873   5.892  10.855  0.0064  0.4693  0.7101
  101OSM    C1S10165   6.004   5.884  10.600  0.0208  0.5123 -0.6200
  101OSM    H1S10166   5.955   5.789  10.629  0.4049  0.3701 -0.4317
  101OSM    H1T10167   6.102   5.892  10.652  0.2254  3.5064 -1.3186
  101OSM     NF10168   6.108   5.759  10.425  0.0126 -0.4815  0.5228
  101OSM    HNF10169   6.206   5.774  10.418 -0.1893  0.5971 -0.0914
  101OSM    C2S10170   6.029   5.876  10.450 -0.1417  0.2276 -0.1031
  101OSM    H2S10171   5.932   5.870  10.396 -1.0034 -1.0682  1.5156
  101OSM    C3S10172   6.111   5.999  10.394  0.0725  0.3389 -0.1614
  101OSM    H3S10173   6.205   5.992  10.452 -0.1424  1.6513  0.3786
  101OSM     O310174   6.055   6.132  10.420 -0.3211 -0.0439  0.3184
  101OSM    HO310175   6.003   6.117  10.499  0.9919  0.9012  1.4226
  101OSM    C4S10176   6.138   5.980  10.243  0.7633  0.0956 -0.4966
  101OSM    H4S10177   6.198   5.889  10.225  0.3483 -0.3558  0.3331
  101OSM    C5S10178   6.085   6.036  10.133  0.9348  0.0377 -0.3453
  101OSM    H5S10179   6.010   6.116  10.147  3.4665  3.3097 -3.6398
  101OSM    C6S10180   6.121   5.998   9.992  0.3974  0.0766  0.4953
  101OSM    H6S10181   6.031   5.965   9.936  1.0754  0.1170 -0.6626
  101OSM    H6T10182   6.191   5.911   9.988  0.2142 -0.0414 -1.5027
  101OSM    C7S10183   6.178   6.106   9.902 -0.5425 -0.6768  0.4107
  101OSM    H7S10184   6.280   6.131   9.937 -0.6975  3.2440 -1.4027
  101OSM    H7T10185   6.123   6.202   9.908  3.0153  1.5437  0.7826
  101OSM    C8S10186   6.210   6.064   9.760 -0.0570 -0.0740  0.2442
  101OSM    H8S10187   6.158   5.971   9.732  0.6082 -0.0315 -1.2434
  101OSM    H8T10188   6.320   6.044   9.758 -0.2678 -1.2445 -1.2709
  101OSM    C9S10189   6.169   6.174   9.659  0.1357 -0.3332  0.3421
  101OSM    H9S10190   6.222   6.267   9.687 -0.6990  0.2264  0.0941
  101OSM    H9T10191   6.063   6.206   9.670  0.2402  0.0551  0.2307
  101OSM   C10S10192   6.202   6.143   9.507 -0.1910 -0.1795 -0.0478
  101OSM   H10S10193   6.162   6.048   9.465 -2.1761 -0.9392  3.1484
  101OSM   H10T10194   6.310   6.118   9.504 -0.2886 -0.5326 -0.8337
  101OSM   C11S10195   6.160   6.249   9.400 -0.7178  0.2441  0.4178
  101OSM   H11S10196   6.201   6.351   9.420  0.0555  0.1707 -0.7261
  101OSM   H11T10197   6.050   6.266   9.401 -0.8777 -0.4521  3.2899
  101OSM   C12S10198   6.192   6.208   9.259  0.0872  0.0212  0.3803
  101OSM   H12S10199   6.154   6.104   9.254  5.0562 -1.9973 -1.0965
  101OSM   H12T10200   6.300   6.191   9.237  0.1925  2.3698 -1.3843
  101OSM   C13S10201   6.146   6.291   9.144  0.5385  0.0268 -0.6649
  101OSM   H13S10202   6.037   6.312   9.155  0.6193  1.1847 -1.7923
  101OSM   H13T10203   6.163   6.248   9.044 -0.2360 -1.6278 -0.1141
  101OSM   C14S10204   6.222   6.430   9.130 -0.0747  0.2669 -0.1267
  101OSM   H14S10205   6.241   6.476   9.229  0.5557 -0.2469  0.0025
  101OSM   H14T10206   6.154   6.487   9.064  0.6863  1.2766 -0.0566
  101OSM   C15S10207   6.361   6.420   9.060 -0.0443  0.3560 -0.1625
  101OSM   H15S10208   6.369   6.359   8.968  1.7888 -0.0025  0.1796
  101OSM   H15T10209   6.428   6.357   9.123 -1.7304 -0.7219  0.6153
  101OSM   C16S10210   6.422   6.562   9.032 -0.9491 -0.0973  0.4064
  101OSM   H16S10211   6.475   6.610   9.118 -1.9055 -2.8137  2.6761
  101OSM   H16T10212   6.341   6.634   9.008  0.9317  2.2211  0.6307
  101OSM   C17S10213   6.528   6.550   8.923 -0.4672  0.1363 -0.1513
  101OSM   H17S10214   6.471   6.525   8.831 -1.6928  1.0022  0.3417
  101OSM   H17T10215   6.598   6.468   8.950 -0.7656 -0.0929 -0.0649
  101OSM   C18S10216   6.613   6.671   8.894 -0.1940  0.4420 -0.2485
  101OSM   H18S10217   6.550   6.761   8.914 -1.5186 -0.4151 -0.4672
  101OSM   H18T10218   6.643   6.672   8.787 -1.8164  1.3434 -0.7353
  101OSM   H18U10219   6.681   6.686   8.980 -0.0548  0.2823 -0.3315
  101OSM    C1F10220   6.054   5.634  10.434 -0.6588  0.1118  0.1465
  101OSM     OF10221   5.938   5.614  10.469  0.0186 -0.1925  0.2503
  101OSM    C2F10222   6.146   5.523  10.411 -0.2503  0.2259 -0.2201
  101OSM    H2F10223   6.106   5.448  10.482  0.1286 -2.5529 -2.7122
  101OSM    H2G10224   6.252   5.552  10.423 -0.1873  0.4528 -1.2054
  101OSM    C3F10225   6.115   5.457  10.278  0.1681  0.1007  0.1800
  101OSM    H3F10226   6.012   5.417  10.283  0.2448 -0.3229 -1.2851
  101OSM    H3G10227   6.183   5.369  10.274  0.8434  0.4638  2.2820
  101OSM    C4F10228   6.137   5.542  10.152 -0.1736  0.5482  0.2869
  101OSM    H4F10229   6.245   5.546  10.131 -0.3569 -0.4350 -0.9166
  101OSM    H4G10230   6.106   5.648  10.170 -0.6063  0.3521  0.7485
  101OSM    C5F10231   6.080   5.478  10.025  0.1452 -0.2325  0.7337
  101OSM    H5F10232   5.970   5.487  10.035  0.3038  1.8008  0.8905
  101OSM    H5G10233   6.108   5.371  10.007 -0.2732 -0.1617 -0.4411
  101OSM    C6F10234   6.120   5.557   9.897 -0.0876 -0.1772 -0.2069
  101OSM    H6F10235   6.230   5.566   9.884 -0.0461  0.3244  0.4724
  101OSM    H6G10236   6.094   5.661   9.924  1.1749  0.5695 -1.7499
  101OSM    C7F10237   6.053   5.502   9.772 -0.1385  0.1430 -0.9749
  101OSM    H7F10238   5.946   5.529   9.784 -0.8869 -2.5671 -0.8778
  101OSM    H7G10239   6.045   5.392   9.786 -2.0540  0.5930  2.3950
  101OSM    C8F10240   6.098   5.569   9.642  0.4807 -0.9957 -0.0989
  101OSM    H8F10241   6.050   5.512   9.560  0.2150 -0.6381 -0.1936
  101OSM    H8G10242   6.206   5.561   9.618  0.3037 -0.8755 -0.9649
  101OSM    C9F10243   6.072   5.721   9.638 -0.3430 -0.1037 -0.8073
  101OSM    H9F10244   6.102   5.773   9.730 -2.3461 -2.2252  1.1873
  101OSM   C10F10245   6.031   5.795   9.536  0.3521  0.9474  0.2531
  101OSM   H10F10246   6.023   5.903   9.557 -0.7473  0.5115  2.3837
  101OSM   C11F10247   5.990   5.744   9.394  0.9536  0.3820  0.7149
  101OSM   H11F10248   6.080   5.685   9.364  1.2010  1.1580 -0.1271
  101OSM   H11G10249   5.988   5.833   9.327  1.5344  0.1220  0.3485
  101OSM   C12F10250   5.863   5.653   9.377 -0.5093  0.3983 -0.5820
  101OSM   H12F10251   5.770   5.696   9.420 -1.7510 -1.5030 -1.2476
  101OSM   H12G10252   5.875   5.560   9.436  1.0586  0.6502 -0.4610
  101OSM   C13F10253   5.831   5.636   9.231 -0.1915  0.2742  0.3647
  101OSM   H13F10254   5.919   5.580   9.194  0.1725  0.0467  1.5236
  101OSM   H13G10255   5.829   5.728   9.170 -1.3487  1.2981  1.8915
  101OSM   C14F10256   5.707   5.558   9.200  0.0434 -0.0405 -0.1538
  101OSM   H14F10257   5.684   5.493   9.286  0.7270  0.1589  0.1848
  101OSM   H14G10258   5.725   5.499   9.108  2.0540  1.2830 -0.6808
  101OSM   C15F10259   5.590   5.657   9.161  0.0124  0.0460  0.1150
  101OSM   H15F10260   5.619   5.698   9.062  0.9880 -1.8039 -0.4224
  101OSM   H15G10261   5.582   5.744   9.229 -0.3208  1.4100 -1.5861
  101OSM   C16F10262   5.463   5.577   9.148 -0.1485 -0.3539 -0.1347
  101OSM   H16F10263   5.445   5.521   9.243 -0.5194  2.0827  1.3198
  101OSM   H16G10264   5.466   5.511   9.059  2.4969  0.3499 -0.6490
  101OSM   C17F10265   5.335   5.663   9.134  0.3244 -0.3161 -0.3830
  101OSM   H17F10266   5.349   5.729   9.046  1.6363  1.5161  1.1306
  101OSM   H17G10267   5.325   5.727   9.224  0.0894 -1.0016  0.0869
  101OSM   C18F10268   5.211   5.588   9.106  0.6406 -0.6200  0.1706
  101OSM   H18F10269   5.122   5.655   9.113  2.2426  1.4609  2.0996
  101OSM   H18G10270   5.199   5.506   9.181 -1.0565  0.6086  1.3180
  101OSM   H18H10271   5.219   5.546   9.004  0.0435  0.1903 -0.2268
  102OSM      N10272   5.129   4.682  11.148 -0.0780 -0.2838 -0.3463
  102OSM    C1510273   5.075   4.663  11.012 -0.0365 -0.0603 -0.7016
  102OSM   H15A10274   4.995   4.725  10.975 -1.4404 -1.1354  0.4089
  102OSM   H15B10275   5.041   4.561  11.005  0.3937 -0.2482 -0.1300
  102OSM   H15C10276   5.161   4.669  10.946  0.5668  0.0479  0.0778
  102OSM    C1410277   5.198   4.816  11.153  0.0602 -0.2956 -0.8644
  102OSM   H14A10278   5.143   4.898  11.108  0.5626  0.5719  0.0676
  102OSM   H14B10279   5.299   4.806  11.115  1.0633 -3.0307  2.0825
  102OSM   H14C10280   5.217   4.841  11.256  0.3322 -0.3696 -0.8971
  102OSM    C1310281   5.011   4.686  11.237  0.5554 -0.4355 -0.5632
  102OSM   H13A10282   4.959   4.775  11.205 -1.0407 -0.7394  0.9636
  102OSM   H13B10283   5.032   4.689  11.343 -3.6452 -1.1863  0.4736
  102OSM   H13C10284   4.943   4.605  11.215 -1.8393  1.3808 -0.3651
  102OSM    C1210285   5.226   4.574  11.190 -0.2687 -0.4260 -0.0755
  102OSM   H12A10286   5.168   4.484  11.177  1.4925 -1.2969 -2.6852
  102OSM   H12B10287   5.266   4.592  11.289 -0.9255  0.5172  0.0384
  102OSM    C1110288   5.356   4.550  11.110 -0.9127  0.2489 -0.0377
  102OSM   H11A10289   5.336   4.529  11.002 -1.4032  1.0018 -0.1022
  102OSM   H11B10290   5.405   4.459  11.151 -2.2941 -1.2129 -1.5011
  102OSM      P10291   5.554   4.705  11.019 -0.1551  0.1143  0.1497
  102OSM    O1310292   5.601   4.846  11.034  0.3610 -0.0923 -0.4366
  102OSM    O1410293   5.657   4.602  11.031  0.1487  0.3287 -0.2942
  102OSM    O1110294   5.497   4.700  10.880  0.4374  0.2124  0.1105
  102OSM    O1210295   5.435   4.668  11.126  0.0662  0.0135 -0.5714
  102OSM    C1S10296   5.395   4.790  10.826 -0.2566 -0.0055  0.9870
  102OSM    H1S10297   5.394   4.890  10.875  1.4389 -0.0937  1.2828
  102OSM    H1T10298   5.293   4.747  10.820 -1.4259  2.2018  3.0913
  102OSM     NF10299   5.346   4.931  10.625 -0.1273 -1.2518  0.1172
  102OSM    HNF10300   5.252   4.931  10.591  0.3457  1.1211 -1.4417
  102OSM    C2S10301   5.413   4.810  10.669  0.5966 -0.2763  0.4227
  102OSM    H2S10302   5.521   4.833  10.660 -0.0221  3.3985  0.7799
  102OSM    C3S10303   5.370   4.684  10.599  0.1906  0.6881 -0.0219
  102OSM    H3S10304   5.263   4.661  10.584  0.4771  0.0785 -1.3355
  102OSM     O310305   5.410   4.564  10.658 -0.0909  0.4966  0.8836
  102OSM    HO310306   5.457   4.607  10.730 -0.2370  0.6713  0.8759
  102OSM    C4S10307   5.414   4.702  10.455  0.3535 -0.1443 -0.2313
  102OSM    H4S10308   5.332   4.743  10.394  0.1046 -1.3770 -0.7615
  102OSM    C5S10309   5.536   4.659  10.407  0.1950  0.0564  0.2484
  102OSM    H5S10310   5.610   4.609  10.473  0.7042 -0.5757 -0.7698
  102OSM    C6S10311   5.583   4.667  10.263 -0.4298  0.1460 -0.1768
  102OSM    H6S10312   5.637   4.576  10.230  0.5476  0.5535  0.2580
  102OSM    H6T10313   5.654   4.751  10.247  1.0340 -1.1064 -0.4610
  102OSM    C7S10314   5.467   4.690  10.167  0.0322 -0.1010 -0.2238
  102OSM    H7S10315   5.419   4.789  10.185 -0.1263 -0.3672  0.9441
  102OSM    H7T10316   5.391   4.614  10.193  0.5089 -0.1743  1.0708
  102OSM    C8S10317   5.525   4.682  10.024  0.3694 -0.1186  0.1217
  102OSM    H8S10318   5.563   4.578  10.012 -1.7359 -0.8750 -0.5127
  102OSM    H8T10319   5.617   4.744  10.015  0.9060 -1.1299 -1.7015
  102OSM    C9S10320   5.428   4.733   9.913 -0.3952  0.2723  0.1871
  102OSM    H9S10321   5.401   4.839   9.934 -1.1713  0.1916 -0.3360
  102OSM    H9T10322   5.339   4.669   9.932 -0.5064  0.3808  0.0396
  102OSM   C10S10323   5.484   4.716   9.768  0.5865 -0.1562 -0.0684
  102OSM   H10S10324   5.512   4.608   9.764 -1.8796 -0.9278  1.4211
  102OSM   H10T10325   5.581   4.770   9.778  0.7372 -0.5623  0.6843
  102OSM   C11S10326   5.396   4.754   9.652 -0.1286 -0.4587  0.0480
  102OSM   H11S10327   5.351   4.853   9.672  0.7741  0.3857 -1.8454
  102OSM   H11T10328   5.309   4.684   9.647  0.2238 -0.8704 -0.4142
  102OSM   C12S10329   5.468   4.766   9.516 -0.0499  0.1539  0.3897
  102OSM   H12S10330   5.555   4.833   9.537  0.9676 -0.7677 -0.7098
  102OSM   H12T10331   5.413   4.826   9.441  0.6870  1.6051  0.9657
  102OSM   C13S10332   5.501   4.630   9.445 -0.0242 -0.0168  0.1769
  102OSM   H13S10333   5.414   4.561   9.453  1.5132 -1.8515  2.0660
  102OSM   H13T10334   5.583   4.588   9.506  1.1560 -0.8051 -1.8592
  102OSM   C14S10335   5.560   4.654   9.304 -0.1412 -1.1430 -0.6481
  102OSM   H14S10336   5.644   4.727   9.301 -0.2837 -0.9967 -1.3436
  102OSM   H14T10337   5.479   4.704   9.247 -0.6221 -1.4102 -0.2099
  102OSM   C15S10338   5.581   4.522   9.228  0.5779 -0.2609  0.1153
  102OSM   H15S10339   5.497   4.453   9.252  0.8808 -0.7944 -0.3231
  102OSM   H15T10340   5.677   4.486   9.272  0.6204 -2.4527 -1.5940
  102OSM   C16S10341   5.609   4.521   9.082  0.4942  0.7014 -0.2288
  102OSM   H16S10342   5.670   4.431   9.059 -1.2949 -0.7689  0.5208
  102OSM   H16T10343   5.683   4.603   9.073 -0.2144  1.1334 -3.0552
  102OSM   C17S10344   5.490   4.533   8.995 -0.4745 -0.7190 -0.1080
  102OSM   H17S10345   5.441   4.631   9.015  0.4144 -0.6217  1.8303
  102OSM   H17T10346   5.406   4.466   9.022  0.7592 -3.4252 -2.4846
  102OSM   C18S10347   5.523   4.536   8.847 -0.5643 -0.0177  0.4151
  102OSM   H18S10348   5.443   4.559   8.774 -1.2283  3.4694  2.0110
  102OSM   H18T10349   5.565   4.435   8.829  0.2749  0.0665  1.7907
  102OSM   H18U10350   5.601   4.614   8.836  0.0320 -0.5817  0.5721
  102OSM    C1F10351   5.386   5.055  10.646 -1.0645 -0.1320 -0.4776
  102OSM     OF10352   5.494   5.078  10.704 -0.3523  0.4289  0.0938
  102OSM    C2F10353   5.307   5.165  10.590  0.1424  0.4165  0.4790
  102OSM    H2F10354   5.326   5.265  10.634 -0.1549  1.1465 -1.0040
  102OSM    H2G10355   5.200   5.140  10.606 -0.0223  0.4985 -0.4187
  102OSM    C3F10356   5.329   5.171  10.430 -0.6222 -0.1605  0.1452
  102OSM    H3F10357   5.271   5.094  10.374 -1.2794  0.8282 -0.5701
  102OSM    H3G10358   5.435   5.159  10.400 -0.9727 -0.3167 -1.1045
  102OSM    C4F10359   5.280   5.311  10.378 -0.6794 -0.1170 -0.2853
  102OSM    H4F10360   5.324   5.390  10.443  0.0073 -0.9243  0.2649
  102OSM    H4G10361   5.169   5.312  10.384 -0.7293  1.2408 -1.2886
  102OSM    C5F10362   5.321   5.340  10.228  0.6620  0.4943 -0.2051
  102OSM    H5F10363   5.426   5.306  10.214  1.0359  1.4251  0.1855
  102OSM    H5G10364   5.317   5.450  10.209  0.2795  1.2823  3.5723
  102OSM    C6F10365   5.229   5.271  10.121 -0.2894 -0.0849  0.4391
  102OSM    H6F10366   5.125   5.266  10.160 -0.4575  0.4995  0.0665
  102OSM    H6G10367   5.273   5.169  10.118 -0.3528 -0.2143  2.5933
  102OSM    C7F10368   5.234   5.329   9.978  0.0588  0.0030  0.3287
  102OSM    H7F10369   5.342   5.328   9.949  1.1664  2.7481  3.7279
  102OSM    H7G10370   5.198   5.434   9.983 -2.7138 -0.9274  2.0310
  102OSM    C8F10371   5.133   5.270   9.886  0.1101 -0.0787  0.6335
  102OSM    H8F10372   5.052   5.344   9.866  1.3209  0.7518 -1.4912
  102OSM    H8G10373   5.092   5.178   9.933 -0.8511 -0.6801 -1.2971
  102OSM    C9F10374   5.209   5.235   9.761 -0.1423 -0.1885 -0.5750
  102OSM    H9F10375   5.291   5.302   9.730  0.3488 -0.7395 -0.4963
  102OSM   C10F10376   5.184   5.126   9.684  0.3689 -0.0903 -0.5232
  102OSM   H10F10377   5.252   5.118   9.598  1.5651  0.3466  0.3610
  102OSM   C11F10378   5.069   5.030   9.705 -0.5591 -0.2862  0.4035
  102OSM   H11F10379   5.034   5.033   9.810  0.7328  1.6992  0.8128
  102OSM   H11G10380   5.109   4.926   9.702 -1.0803 -0.5222  1.3737
  102OSM   C12F10381   4.943   5.055   9.613  0.4681 -0.4085  0.9733
  102OSM   H12F10382   4.899   5.154   9.633  0.8842  0.1787 -0.7714
  102OSM   H12G10383   4.862   4.987   9.646 -0.0526  0.1591  0.8694
  102OSM   C13F10384   4.973   5.040   9.465  0.1726  0.2261  0.0737
  102OSM   H13F10385   5.019   4.940   9.448 -2.5957 -1.1311 -0.0854
  102OSM   H13G10386   5.059   5.108   9.451  3.1006 -3.4495 -1.5305
  102OSM   C14F10387   4.864   5.075   9.359  0.0776  0.3378 -0.1414
  102OSM   H14F10388   4.808   5.155   9.411  0.7319 -0.3326  1.6922
  102OSM   H14G10389   4.791   4.995   9.332  3.5808 -2.6719 -1.6704
  102OSM   C15F10390   4.933   5.117   9.227 -0.0428 -0.4366 -0.9635
  102OSM   H15F10391   4.986   5.024   9.196 -1.4058 -1.0937 -1.3692
  102OSM   H15G10392   5.013   5.192   9.244 -2.1787  1.9990 -1.1073
  102OSM   C16F10393   4.833   5.169   9.123 -0.1604  0.2894 -0.1180
  102OSM   H16F10394   4.773   5.245   9.177 -1.8247 -1.5696  0.7996
  102OSM   H16G10395   4.763   5.086   9.100  1.3461 -0.9551 -0.3169
  102OSM   C17F10396   4.896   5.241   8.999 -0.3183  0.4622  0.1004
  102OSM   H17F10397   4.946   5.334   9.034 -0.0183  0.8528 -1.2892
  102OSM   H17G10398   4.809   5.268   8.935  0.2267  0.2466 -0.7552
  102OSM   C18F10399   4.999   5.157   8.921 -0.9059  0.3827  0.4937
  102OSM   H18F10400   5.087   5.147   8.988 -2.0150  1.5353  2.2018
  102OSM   H18G10401   5.038   5.226   8.844  0.7517  0.3555  1.2638
  102OSM   H18H10402   4.956   5.058   8.896 -3.8955  1.9623 -1.0938
  103OSM      N10403   6.177   0.480  11.553 -0.1089  0.4539  0.3431
  103OSM    C1510404   6.223   0.583  11.646  0.1545  0.1507 -0.6546
  103OSM   H15A10405   6.309   0.639  11.613  1.8301 -2.9201 -1.8478
  103OSM   H15B10406   6.259   0.543  11.739 -1.9196  0.1513  0.2025
  103OSM   H15C10407   6.146   0.650  11.682  1.0009  1.4802 -1.2260
  103OSM    C1410408   6.056   0.420  11.616 -0.6614 -0.5076  0.7051
  103OSM   H14A10409   5.964   0.475  11.601 -0.2456 -0.0966 -0.4200
  103OSM   H14B10410   6.069   0.397  11.721 -0.0166  4.0797  1.8353
  103OSM   H14C10411   6.047   0.322  11.570  1.8543 -1.8125  2.7079
  103OSM    C1310412   6.145   0.539  11.417  0.6656 -0.5811  0.1976
  103OSM   H13A10413   6.231   0.582  11.366 -0.4514 -0.1433 -1.4017
  103OSM   H13B10414   6.073   0.620  11.423  0.2931 -0.8532 -0.4799
  103OSM   H13C10415   6.096   0.469  11.352  0.0257 -0.1742  0.2271
  103OSM    C1210416   6.283   0.371  11.549 -0.5761 -0.3925  0.2885
  103OSM   H12A10417   6.296   0.331  11.648  0.5349  0.7995  0.6460
  103OSM   H12B10418   6.372   0.425  11.521  0.1956 -1.3590  0.8059
  103OSM    C1110419   6.259   0.259  11.444 -0.0487  0.4651  0.4125
  103OSM   H11A10420   6.158   0.221  11.469 -0.0331 -0.1911 -0.4455
  103OSM   H11B10421   6.328   0.175  11.467 -0.6771 -0.4291 -0.8201
  103OSM      P10422   6.395   0.277  11.228 -0.2496 -0.0447  0.0016
  103OSM    O1310423   6.513   0.303  11.314  0.1801 -0.0815  0.8284
  103OSM    O1410424   6.381   0.140  11.177 -0.2048 -0.7214 -0.2834
  103OSM    O1110425   6.384   0.385  11.109  0.9980 -0.1637  0.6233
  103OSM    O1210426   6.271   0.307  11.313 -0.2385  0.3214  0.0217
  103OSM    C1S10427   6.274   0.382  11.016  0.7501 -0.3946 -0.5750
  103OSM    H1S10428   6.185   0.434  11.057  0.0598 -1.5652 -0.5702
  103OSM    H1T10429   6.246   0.280  10.983  1.3219 -0.7984  0.1538
  103OSM     NF10430   6.195   0.462  10.802 -0.4213  0.3637  0.2047
  103OSM    HNF10431   6.182   0.397  10.728  1.3995 -0.2790  0.3891
  103OSM    C2S10432   6.317   0.446  10.883  0.0866 -0.5673  0.0191
  103OSM    H2S10433   6.368   0.543  10.901 -0.1273 -0.5294  0.4415
  103OSM    C3S10434   6.421   0.355  10.823  0.7558  0.6436  0.1498
  103OSM    H3S10435   6.408   0.246  10.837  0.7208  0.4798 -1.0244
  103OSM     O310436   6.547   0.356  10.898 -0.1012  0.4029 -0.3854
  103OSM    HO310437   6.509   0.362  10.986  3.1948  1.3583  1.1258
  103OSM    C4S10438   6.453   0.395  10.677  0.5168  0.5529 -0.7340
  103OSM    H4S10439   6.494   0.498  10.681 -2.2603  1.6970  0.4885
  103OSM    C5S10440   6.425   0.317  10.563 -0.0180 -0.0018 -0.0212
  103OSM    H5S10441   6.377   0.219  10.573  0.0739 -0.2273 -1.5120
  103OSM    C6S10442   6.441   0.359  10.418 -0.3820 -0.4109 -0.5519
  103OSM    H6S10443   6.344   0.411  10.403 -1.4717 -0.8633  3.5165
  103OSM    H6T10444   6.440   0.271  10.351  1.6381 -0.5134 -0.4869
  103OSM    C7S10445   6.564   0.440  10.385 -0.7899  0.0017 -0.0763
  103OSM    H7S10446   6.648   0.367  10.385 -0.3419  0.4478 -2.3961
  103OSM    H7T10447   6.581   0.511  10.469 -1.9736 -0.4541  0.5760
  103OSM    C8S10448   6.561   0.522  10.257  0.1155 -1.1269  1.1218
  103OSM    H8S10449   6.655   0.573  10.227 -0.5978 -1.4645 -2.0229
  103OSM    H8T10450   6.475   0.592  10.257 -0.6615 -1.9960 -0.5930
  103OSM    C9S10451   6.526   0.429  10.134 -0.7301 -0.0829 -0.0916
  103OSM    H9S10452   6.423   0.390  10.148 -0.2209 -1.0461  1.2368
  103OSM    H9T10453   6.593   0.341  10.122 -0.5585 -0.3758  2.3754
  103OSM   C10S10454   6.529   0.509   9.999  0.0185  0.4047 -0.1546
  103OSM   H10S10455   6.629   0.554   9.983  0.4182 -0.2865  0.3154
  103OSM   H10T10456   6.444   0.581  10.005  0.2217  0.5285  2.3035
  103OSM   C11S10457   6.494   0.414   9.890 -0.5642 -0.6604 -0.3679
  103OSM   H11S10458   6.403   0.361   9.927  1.1693 -1.7916  2.6278
  103OSM   H11T10459   6.565   0.329   9.878 -0.9603 -1.1664  0.7145
  103OSM   C12S10460   6.468   0.489   9.752  0.0034  0.8795 -0.9956
  103OSM   H12S10461   6.562   0.540   9.723  2.7071 -3.6416 -1.0092
  103OSM   H12T10462   6.401   0.576   9.770 -0.9671 -0.1516  0.7705
  103OSM   C13S10463   6.435   0.398   9.627  0.3584 -0.6016 -0.3557
  103OSM   H13S10464   6.362   0.319   9.654  1.4035 -2.3061 -2.2503
  103OSM   H13T10465   6.531   0.345   9.608  1.2906 -1.0807  4.3690
  103OSM   C14S10466   6.383   0.484   9.510 -0.3568  0.3891 -0.1928
  103OSM   H14S10467   6.462   0.553   9.475  0.3951  0.2412  1.1702
  103OSM   H14T10468   6.299   0.543   9.553 -0.4826 -0.1572  0.3241
  103OSM   C15S10469   6.335   0.418   9.377 -0.0798  0.1073 -0.2905
  103OSM   H15S10470   6.241   0.364   9.402  1.7077 -1.7579  3.1406
  103OSM   H15T10471   6.413   0.345   9.347  1.1877  0.6867  1.4249
  103OSM   C16S10472   6.323   0.518   9.259 -0.6490  0.3186 -0.2753
  103OSM   H16S10473   6.426   0.558   9.246  0.3310 -1.6621  0.9535
  103OSM   H16T10474   6.255   0.602   9.286 -0.1022  1.0806 -1.1718
  103OSM   C17S10475   6.267   0.452   9.132  0.2077 -0.0364 -0.5844
  103OSM   H17S10476   6.161   0.426   9.154 -0.5978  0.7147 -3.2075
  103OSM   H17T10477   6.316   0.355   9.111  0.9758  0.1487  0.2908
  103OSM   C18S10478   6.270   0.541   9.015 -0.0036  0.0620  0.2240
  103OSM   H18S10479   6.203   0.504   8.934 -0.7372 -2.0679  1.6954
  103OSM   H18T10480   6.365   0.568   8.965 -1.4748  1.6570 -1.8844
  103OSM   H18U10481   6.228   0.641   9.038 -0.3234 -0.0908  0.3168
  103OSM    C1F10482   6.109   0.560  10.838  0.1849 -0.1425  0.2779
  103OSM     OF10483   6.139   0.641  10.920  0.9171  0.1375  0.3036
  103OSM    C2F10484   5.969   0.567  10.784 -0.1694  0.6249  0.0964
  103OSM    H2F10485   5.946   0.675  10.770  0.8354  1.0036  1.1865
  103OSM    H2G10486   5.903   0.514  10.856  1.3230 -2.0970 -0.4333
  103OSM    C3F10487   5.943   0.500  10.635 -0.3213 -0.5120 -0.0070
  103OSM    H3F10488   5.834   0.507  10.616 -0.7159 -2.3477  1.3492
  103OSM    H3G10489   5.962   0.391  10.646  2.0172  0.0526  2.5974
  103OSM    C4F10490   6.035   0.558  10.529  0.2300  0.4229 -0.3680
  103OSM    H4F10491   6.139   0.554  10.568 -0.6734  2.2466  2.6062
  103OSM    H4G10492   6.013   0.666  10.517 -0.9617  0.2179 -0.1316
  103OSM    C5F10493   6.016   0.473  10.411 -0.1480  1.2512 -0.2645
  103OSM    H5F10494   5.908   0.468  10.387 -0.0970 -0.1085 -0.3045
  103OSM    H5G10495   6.061   0.374  10.433  0.5452  0.9965 -2.4936
  103OSM    C6F10496   6.083   0.522  10.277  1.0728  0.4079 -0.3265
  103OSM    H6F10497   6.192   0.522  10.300  0.9187 -0.6029  0.4564
  103OSM    H6G10498   6.056   0.628  10.256 -0.2312  0.2077  0.2297
  103OSM    C7F10499   6.036   0.440  10.156  0.3218  0.5779 -0.4065
  103OSM    H7F10500   5.929   0.460  10.136  0.3276  1.0132 -0.0058
  103OSM    H7G10501   6.045   0.334  10.188 -1.1239  0.2401 -1.0650
  103OSM    C8F10502   6.112   0.452  10.022 -0.1956 -0.2769  0.1114
  103OSM    H8F10503   6.219   0.423  10.030  1.0589  3.5737 -0.4130
  103OSM    H8G10504   6.120   0.560   9.998 -1.5567  0.1160  1.2952
  103OSM    C9F10505   6.054   0.364   9.917  0.3052  0.6564 -0.0113
  103OSM    H9F10506   6.074   0.257   9.934  1.3006  0.8430  0.0575
  103OSM   C10F10507   6.006   0.408   9.802  0.2237 -0.6478  0.1199
  103OSM   H10F10508   5.981   0.333   9.725  2.6646  0.0220 -1.4522
  103OSM   C11F10509   5.990   0.547   9.749  0.6686  0.1350 -0.2407
  103OSM   H11F10510   6.053   0.610   9.815  0.2163 -1.1552  1.4981
  103OSM   H11G10511   5.888   0.588   9.761  0.8686  0.7436 -0.5970
  103OSM   C12F10512   6.019   0.564   9.603 -0.3203 -0.2562 -0.3737
  103OSM   H12F10513   6.093   0.487   9.572 -1.3871 -1.4571  0.0011
  103OSM   H12G10514   6.049   0.670   9.592 -2.2123  0.5186  1.3027
  103OSM   C13F10515   5.904   0.535   9.500  0.3931 -1.3416 -1.1247
  103OSM   H13F10516   5.889   0.425   9.498 -1.3969 -1.1273 -0.5863
  103OSM   H13G10517   5.810   0.586   9.530  1.2535  0.6209 -1.5530
  103OSM   C14F10518   5.951   0.577   9.364 -0.4646  0.9937 -0.5035
  103OSM   H14F10519   6.032   0.506   9.339 -0.7967 -0.5079  2.2254
  103OSM   H14G10520   5.996   0.678   9.363  3.4628 -0.5736 -2.4746
  103OSM   C15F10521   5.845   0.583   9.262  0.3052  0.3111 -0.5390
  103OSM   H15F10522   5.808   0.687   9.247  1.2841  0.5908 -1.0793
  103OSM   H15G10523   5.753   0.525   9.283  0.6805 -0.6604 -1.4548
  103OSM   C16F10524   5.889   0.532   9.124  0.0574  0.1105 -0.5330
  103OSM   H16F10525   5.921   0.426   9.119 -1.9443 -0.5213 -0.7203
  103OSM   H16G10526   5.987   0.583   9.108  2.0338 -1.6261  4.0865
  103OSM   C17F10527   5.790   0.563   9.006 -0.1372 -0.9944 -0.0700
  103OSM   H17F10528   5.729   0.641   9.055  0.9551 -1.6435  2.4673
  103OSM   H17G10529   5.734   0.469   8.990  1.3329 -1.9799  0.3721
  103OSM   C18F10530   5.857   0.632   8.889  0.3247  0.0984  0.3156
  103OSM   H18F10531   5.779   0.681   8.827 -0.4601  0.0734  1.2594
  103OSM   H18G10532   5.908   0.558   8.824  0.2863  1.5328 -1.4117
  103OSM   H18H10533   5.932   0.705   8.928  0.3874 -0.8543  2.0738
  104OSM      N10534   2.922   0.233  10.818  0.0148 -0.1551  0.9547
  104OSM    C1510535   2.777   0.267  10.827 -0.0878  0.2230 -0.9645
  104OSM   H15A10536   2.736   0.341  10.759  1.6064  0.8172 -1.3847
  104OSM   H15B10537   2.754   0.309  10.924 -2.8845 -2.1411 -0.4676
  104OSM   H15C10538   2.710   0.183  10.813  1.1849 -0.8863 -0.5683
  104OSM    C1410539   2.970   0.147  10.927  0.1608  0.1001 -0.6405
  104OSM   H14A10540   2.904   0.063  10.940  2.5673 -1.9486 -0.9538
  104OSM   H14B10541   2.981   0.201  11.021  0.6122 -2.3396  0.7987
  104OSM   H14C10542   3.073   0.121  10.908  0.9718  2.9863 -0.7129
  104OSM    C1310543   2.939   0.159  10.691 -0.3028 -0.3569 -0.8262
  104OSM   H13A10544   2.926   0.231  10.612 -0.8031  2.7001  1.8403
  104OSM   H13B10545   2.873   0.074  10.677 -0.3919 -0.5085  0.4100
  104OSM   H13C10546   3.039   0.121  10.675  0.2795  0.7729  0.0152
  104OSM    C1210547   3.015   0.360  10.811  0.1181 -0.4542 -0.0662
  104OSM   H12A10548   2.990   0.419  10.897  0.9882 -0.4494  0.1960
  104OSM   H12B10549   2.981   0.416  10.726  1.0604 -1.5994 -1.2488
  104OSM    C1110550   3.171   0.339  10.796  0.2592 -0.3172 -0.4329
  104OSM   H11A10551   3.212   0.433  10.753  1.0085 -1.8704 -3.4104
  104OSM   H11B10552   3.195   0.252  10.731 -0.5799 -1.9850  1.4046
  104OSM      P10553   3.334   0.210  10.961 -0.2769  0.0066  0.0355
  104OSM    O1310554   3.408   0.252  11.084  0.2338 -0.0102  0.1250
  104OSM    O1410555   3.271   0.080  10.970  0.3209  0.1471 -0.5307
  104OSM    O1110556   3.437   0.208  10.843 -0.4356 -0.2983 -0.2088
  104OSM    O1210557   3.222   0.320  10.927 -0.8123 -0.6792 -0.9327
  104OSM    C1S10558   3.515   0.329  10.823 -0.8190  0.2896  0.0333
  104OSM    H1S10559   3.591   0.350  10.901 -0.7444  1.6465 -0.3743
  104OSM    H1T10560   3.457   0.424  10.816 -0.4115  0.4666 -1.3177
  104OSM     NF10561   3.671   0.431  10.663  0.8210 -0.0821  0.1248
  104OSM    HNF10562   3.619   0.510  10.631  1.6191  2.0590  3.5653
  104OSM    C2S10563   3.586   0.312  10.683 -0.1938 -0.2201 -0.4568
  104OSM    H2S10564   3.662   0.231  10.686  2.4532  2.0781 -1.6020
  104OSM    C3S10565   3.488   0.275  10.570 -0.0423  0.0287  0.0445
  104OSM    H3S10566   3.408   0.352  10.570 -1.8624 -1.7654 -1.3228
  104OSM     O310567   3.421   0.151  10.597 -0.1000  0.6530  0.0832
  104OSM    HO310568   3.421   0.133  10.691 -2.7431  2.6273  0.5629
  104OSM    C4S10569   3.549   0.270  10.428  0.7805  0.4335 -0.1334
  104OSM    H4S10570   3.634   0.202  10.428 -0.1558 -0.8056 -1.7356
  104OSM    C5S10571   3.490   0.329  10.321 -0.7080  0.0361  0.3027
  104OSM    H5S10572   3.391   0.372  10.341 -1.3798  0.0899 -2.6671
  104OSM    C6S10573   3.530   0.350  10.181  0.4714 -0.8028 -0.3088
  104OSM    H6S10574   3.544   0.459  10.167 -2.2290 -0.2793  0.4764
  104OSM    H6T10575   3.446   0.320  10.115  1.0038 -2.0767 -0.4375
  104OSM    C7S10576   3.663   0.284  10.138  0.4669  0.4801 -0.5288
  104OSM    H7S10577   3.651   0.174  10.133  2.9664  0.1681 -1.1718
  104OSM    H7T10578   3.752   0.312  10.198  1.5929 -1.7523 -1.0545
  104OSM    C8S10579   3.703   0.329   9.998  0.0507 -0.0040 -0.1899
  104OSM    H8S10580   3.796   0.271   9.981 -0.9045 -2.1333  1.4390
  104OSM    H8T10581   3.736   0.435   9.990 -1.2956  0.4259 -0.3564
  104OSM    C9S10582   3.598   0.316   9.888  0.4928  0.6250 -1.1947
  104OSM    H9S10583   3.522   0.397   9.896 -1.3184 -1.1311  0.6638
  104OSM    H9T10584   3.550   0.216   9.885  1.8705 -0.1794  0.9333
  104OSM   C10S10585   3.664   0.358   9.758  0.4127  0.1466 -0.0534
  104OSM   H10S10586   3.700   0.262   9.715 -1.9787 -1.2114  0.7804
  104OSM   H10T10587   3.746   0.428   9.786  0.3018  0.5995 -0.8284
  104OSM   C11S10588   3.574   0.445   9.664  0.1071  1.1286  0.5699
  104OSM   H11S10589   3.538   0.532   9.722 -2.3527  0.6415 -0.1273
  104OSM   H11T10590   3.486   0.383   9.639  0.3703  0.3419  1.5141
  104OSM   C12S10591   3.661   0.485   9.541 -0.1267 -0.0684  0.2408
  104OSM   H12S10592   3.688   0.393   9.486  0.2030  1.3233 -2.0774
  104OSM   H12T10593   3.759   0.528   9.571 -0.0565 -0.5024  0.6530
  104OSM   C13S10594   3.567   0.573   9.453 -0.2906  0.2129 -0.1172
  104OSM   H13S10595   3.539   0.662   9.514 -0.4089 -0.8553  1.4374
  104OSM   H13T10596   3.471   0.518   9.444 -1.2361  1.4667  1.5688
  104OSM   C14S10597   3.629   0.614   9.325 -0.5803  0.3106  1.1197
  104OSM   H14S10598   3.717   0.682   9.333  0.1925 -0.5849  0.3751
  104OSM   H14T10599   3.557   0.678   9.268 -1.8356 -0.7182  1.4878
  104OSM   C15S10600   3.657   0.500   9.228  0.3482 -0.9164 -0.0735
  104OSM   H15S10601   3.590   0.412   9.243  0.0632 -0.8426 -0.8732
  104OSM   H15T10602   3.761   0.469   9.253  2.4886  4.9197 -0.3018
  104OSM   C16S10603   3.656   0.540   9.077  0.4688 -0.6456 -0.0050
  104OSM   H16S10604   3.740   0.613   9.073 -0.5996  0.8237  2.2011
  104OSM   H16T10605   3.564   0.598   9.052 -0.2790 -1.7243  0.1662
  104OSM   C17S10606   3.689   0.438   8.973 -1.1351  0.6711  0.0421
  104OSM   H17S10607   3.625   0.349   8.992 -0.2324 -0.1015 -0.4189
  104OSM   H17T10608   3.786   0.392   9.003 -2.7957 -1.7587  2.1695
  104OSM   C18S10609   3.659   0.474   8.826  0.2097  0.3335 -0.5626
  104OSM   H18S10610   3.717   0.559   8.783 -2.2231  1.5910 -1.5710
  104OSM   H18T10611   3.552   0.504   8.827  0.3221  0.7398 -0.6423
  104OSM   H18U10612   3.677   0.382   8.766 -1.7216  1.2379 -2.6764
  104OSM    C1F10613   3.788   0.455  10.718 -0.2629  0.5092  0.8969
  104OSM     OF10614   3.843   0.372  10.791 -0.0736 -0.4897  0.3015
  104OSM    C2F10615   3.853   0.585  10.684 -0.4061  0.0723  0.6269
  104OSM    H2F10616   3.877   0.643  10.776 -1.9264 -1.0589  1.7844
  104OSM    H2G10617   3.784   0.646  10.623  0.9911  2.2412  1.0810
  104OSM    C3F10618   3.988   0.560  10.613  0.0704 -0.3588  0.7605
  104OSM    H3F10619   4.054   0.490  10.669  0.7091 -0.1359  0.2971
  104OSM    H3G10620   4.029   0.663  10.605  2.1141 -1.0347  1.6217
  104OSM    C4F10621   3.960   0.500  10.469  0.0422 -0.3901  0.5524
  104OSM    H4F10622   3.925   0.586  10.408 -1.0408 -2.5320 -2.0596
  104OSM    H4G10623   3.893   0.411  10.476  1.2284 -1.4991 -1.3814
  104OSM    C5F10624   4.077   0.450  10.394 -0.1699  0.3446  0.2156
  104OSM    H5F10625   4.139   0.373  10.447 -0.0468 -0.9597 -1.7115
  104OSM    H5G10626   4.148   0.532  10.371 -2.3990  2.1509 -0.5548
  104OSM    C6F10627   4.027   0.378  10.264 -0.2417 -0.0051 -0.2423
  104OSM    H6F10628   3.935   0.424  10.222 -1.4555 -1.3028  0.8851
  104OSM    H6G10629   3.998   0.272  10.283  1.2899 -0.5286 -0.6760
  104OSM    C7F10630   4.131   0.388  10.146  0.5172  0.2492 -0.5751
  104OSM    H7F10631   4.214   0.326  10.184 -0.3200 -0.0126  0.8845
  104OSM    H7G10632   4.162   0.495  10.137 -2.8452  1.6066  2.0011
  104OSM    C8F10633   4.076   0.330  10.009  0.4850  0.2159 -0.1980
  104OSM    H8F10634   3.986   0.390   9.983  0.0511 -0.1981  0.3400
  104OSM    H8G10635   4.044   0.226  10.031 -1.5324  0.8037 -0.1791
  104OSM    C9F10636   4.183   0.334   9.899  0.4487  0.0441  0.2661
  104OSM    H9F10637   4.279   0.287   9.922  0.0875 -0.8655 -0.0589
  104OSM   C10F10638   4.165   0.365   9.769 -0.3323  0.0607  0.4916
  104OSM   H10F10639   4.255   0.352   9.707 -1.9505 -1.7353 -1.6463
  104OSM   C11F10640   4.034   0.402   9.704  0.3281 -0.3358 -0.5660
  104OSM   H11F10641   4.044   0.508   9.673  1.1173  0.0995  1.0656
  104OSM   H11G10642   3.959   0.407   9.785  0.1413  0.7592 -0.7839
  104OSM   C12F10643   3.982   0.316   9.581 -0.8985  0.2875  0.0287
  104OSM   H12F10644   3.897   0.373   9.538 -2.5857 -1.2958  1.1397
  104OSM   H12G10645   3.936   0.221   9.617  0.6860 -0.5498 -0.0704
  104OSM   C13F10646   4.086   0.278   9.474 -0.0279 -1.0053 -0.4155
  104OSM   H13F10647   4.154   0.201   9.515  1.4430  0.3298 -0.2494
  104OSM   H13G10648   4.141   0.371   9.447 -0.4246 -0.7925 -0.5023
  104OSM   C14F10649   4.016   0.225   9.348 -0.0515  0.6857  0.4623
  104OSM   H14F10650   4.090   0.210   9.266  0.9699 -1.4686  1.6839
  104OSM   H14G10651   3.942   0.298   9.309  0.2081 -0.0466 -1.4989
  104OSM   C15F10652   3.937   0.091   9.382  0.6516  0.0980 -0.1881
  104OSM   H15F10653   3.851   0.134   9.436 -0.3351  2.6732 -3.4462
  104OSM   H15G10654   4.003   0.030   9.447 -0.6734 -0.0308  1.0957
  104OSM   C16F10655   3.895   0.010   9.258 -0.1357  0.3330  0.0291
  104OSM   H16F10656   3.815  -0.062   9.286  0.9005 -0.7818  0.1717
  104OSM   H16G10657   3.980  -0.046   9.214 -1.3453 -1.6024  0.0557
  104OSM   C17F10658   3.838   0.111   9.146  0.6169  0.2838 -0.2794
  104OSM   H17F10659   3.914   0.190   9.131  1.2108  0.0900  1.4288
  104OSM   H17G10660   3.739   0.150   9.178 -0.7479 -2.0711 -1.3870
  104OSM   C18F10661   3.820   0.043   9.008  0.1347 -0.1265 -0.9163
  104OSM   H18F10662   3.815   0.119   8.927  3.4837 -0.3279 -1.4860
  104OSM   H18G10663   3.727  -0.017   9.010 -0.3750  0.6480 -1.2295
  104OSM   H18H10664   3.906  -0.021   8.977 -0.5365 -1.5932  0.1547
  105OSM      N10665   3.146   0.659  11.204  0.0135  0.0602  0.5316
  105OSM    C1510666   3.210   0.522  11.203 -0.0171  0.8015 -0.1362
  105OSM   H15A10667   3.188   0.443  11.133  4.9721 -0.7861 -0.3552
  105OSM   H15B10668   3.184   0.473  11.296 -1.1639 -1.2147 -1.4584
  105OSM   H15C10669   3.318   0.523  11.211 -0.0427  2.4578  0.5178
  105OSM    C1410670   2.995   0.640  11.201  0.3308  0.4289  0.0434
  105OSM   H14A10671   2.970   0.565  11.274  0.1701  2.4971  2.2148
  105OSM   H14B10672   2.957   0.610  11.104 -0.4042 -1.3063  0.8309
  105OSM   H14C10673   2.943   0.731  11.225 -0.4650 -0.2062  0.7906
  105OSM    C1310674   3.177   0.724  11.338 -0.6376  0.5736 -0.1149
  105OSM   H13A10675   3.139   0.674  11.426 -0.6551 -0.5281 -0.7214
  105OSM   H13B10676   3.137   0.824  11.336 -0.0690  0.8002 -0.1061
  105OSM   H13C10677   3.282   0.731  11.362 -0.9687  0.4731  1.4186
  105OSM    C1210678   3.196   0.749  11.094  0.2491 -0.3941  0.5785
  105OSM   H12A10679   3.304   0.752  11.104  0.4254  1.1871 -1.2484
  105OSM   H12B10680   3.145   0.843  11.109  0.0124 -0.5058  0.4672
  105OSM    C1110681   3.158   0.693  10.946 -0.5572  0.1118 -0.3760
  105OSM   H11A10682   3.202   0.591  10.938  0.2833  0.4211  0.1470
  105OSM   H11B10683   3.212   0.745  10.864 -0.1097  0.5185  0.1681
  105OSM      P10684   2.953   0.826  10.882 -0.0992  0.0719  0.4394
  105OSM    O1310685   2.808   0.818  10.910 -0.1665 -0.2238  0.9013
  105OSM    O1410686   3.032   0.941  10.944  0.1091 -0.2864 -0.0578
  105OSM    O1110687   2.980   0.838  10.732 -0.2969  0.8334  0.2839
  105OSM    O1210688   3.014   0.684  10.918  0.0174 -0.6759  0.0359
  105OSM    C1S10689   3.037   0.737  10.655  0.1579 -0.2336 -0.3761
  105OSM    H1S10690   3.020   0.635  10.694 -0.9278  0.3142  0.6280
  105OSM    H1T10691   3.147   0.745  10.642 -0.0113  2.0661 -0.9223
  105OSM     NF10692   3.049   0.626  10.438 -0.7739 -0.5523  0.0305
  105OSM    HNF10693   3.129   0.648  10.381 -0.5108 -2.0341 -0.2099
  105OSM    C2S10694   2.986   0.740  10.507  0.0172  0.5528 -0.0219
  105OSM    H2S10695   2.877   0.720  10.513 -0.3468  2.0805 -0.9983
  105OSM    C3S10696   3.011   0.879  10.440 -0.1480  0.3334  0.0437
  105OSM    H3S10697   3.119   0.899  10.423 -0.1125 -0.5280 -0.8249
  105OSM     O310698   2.965   0.989  10.513 -0.0277 -0.4730  0.4792
  105OSM    HO310699   2.952   0.963  10.605  0.8948  1.7272  1.2912
  105OSM    C4S10700   2.938   0.869  10.307 -0.4709 -0.1467  0.1406
  105OSM    H4S10701   2.831   0.844  10.317  0.1608 -2.1146  3.3269
  105OSM    C5S10702   2.997   0.895  10.192  0.6042  0.1362  0.2861
  105OSM    H5S10703   3.101   0.929  10.198  0.8250 -0.2541 -1.0449
  105OSM    C6S10704   2.936   0.889  10.049 -0.4775  0.0158  0.7540
  105OSM    H6S10705   2.833   0.850  10.060 -0.1355 -0.7532  1.3106
  105OSM    H6T10706   2.999   0.814   9.995 -1.5792 -0.8119  0.5686
  105OSM    C7S10707   2.922   1.021   9.970  0.1809 -0.7279 -1.0702
  105OSM    H7S10708   3.021   1.068   9.953  0.1126 -0.1412  0.0104
  105OSM    H7T10709   2.862   1.090  10.035  1.4337 -0.8606  0.2748
  105OSM    C8S10710   2.877   0.989   9.825 -0.5721 -0.0719  0.0620
  105OSM    H8S10711   2.776   0.941   9.822  0.3221 -2.0020 -1.3395
  105OSM    H8T10712   2.947   0.907   9.800 -1.2081 -1.0676  1.3776
  105OSM    C9S10713   2.901   1.097   9.723  0.2000 -0.2019  0.1389
  105OSM    H9S10714   3.010   1.117   9.713  0.5436 -0.7695  2.3436
  105OSM    H9T10715   2.856   1.186   9.771  2.3926  1.4686 -0.7251
  105OSM   C10S10716   2.845   1.060   9.578  0.4188  0.1905 -0.2783
  105OSM   H10S10717   2.740   1.095   9.562  0.9771  1.7839 -0.6826
  105OSM   H10T10718   2.841   0.952   9.554 -3.3452  0.0812  0.2385
  105OSM   C11S10719   2.909   1.149   9.469  0.1468  0.3592  0.3751
  105OSM   H11S10720   3.020   1.139   9.472 -0.0576 -3.1807  2.0733
  105OSM   H11T10721   2.901   1.259   9.474  1.7274  0.4364  2.1884
  105OSM   C12S10722   2.862   1.108   9.333 -0.2712  0.0523  0.7850
  105OSM   H12S10723   2.753   1.129   9.322 -0.6516 -0.6610  2.8543
  105OSM   H12T10724   2.891   1.001   9.328 -0.5612 -0.0369  0.9857
  105OSM   C13S10725   2.940   1.185   9.227 -0.2926 -0.5402  0.0656
  105OSM   H13S10726   3.050   1.185   9.247 -0.1198  1.7681 -0.5580
  105OSM   H13T10727   2.920   1.293   9.243  2.3207  0.1514 -0.7938
  105OSM   C14S10728   2.932   1.145   9.080  0.3198 -0.2910  0.2871
  105OSM   H14S10729   2.826   1.140   9.046 -0.0735 -1.8610  1.5898
  105OSM   H14T10730   2.965   1.039   9.072 -1.5393 -0.8506 -0.5837
  105OSM   C15S10731   3.001   1.238   8.987 -0.7438 -0.5917  0.0903
  105OSM   H15S10732   3.111   1.219   8.994 -0.9813 -1.4981  2.7826
  105OSM   H15T10733   2.980   1.344   9.012 -0.3361 -0.2820 -0.8135
  105OSM   C16S10734   2.947   1.210   8.848 -0.0890 -0.5917  0.2086
  105OSM   H16S10735   2.837   1.220   8.833 -0.0947 -1.1548 -0.1633
  105OSM   H16T10736   2.978   1.104   8.838 -0.6230 -0.7726  0.4135
  105OSM   C17S10737   3.017   1.289   8.745  0.3323 -0.6754 -0.1971
  105OSM   H17S10738   3.125   1.279   8.769  0.4126  2.1058  0.9910
  105OSM   H17T10739   2.989   1.397   8.752 -0.7476 -0.9071 -0.6728
  105OSM   C18S10740   2.979   1.247   8.605 -0.9333  0.1049  0.5930
  105OSM   H18S10741   2.870   1.263   8.590 -0.9417  0.7739  1.3533
  105OSM   H18T10742   3.005   1.140   8.586 -2.8484 -0.2284 -0.3950
  105OSM   H18U10743   3.045   1.302   8.534 -0.5757 -2.0496 -0.8718
  105OSM    C1F10744   3.019   0.498  10.455 -0.3812  0.4903  0.6641
  105OSM     OF10745   2.929   0.462  10.533  0.3542  0.2393  0.1288
  105OSM    C2F10746   3.086   0.398  10.360 -0.3172  0.2518  0.3509
  105OSM    H2F10747   3.174   0.355  10.413 -0.9268 -3.0741 -1.0938
  105OSM    H2G10748   3.128   0.447  10.270  1.8893 -0.9109  0.6766
  105OSM    C3F10749   2.998   0.277  10.314  0.5213  0.4067  0.6873
  105OSM    H3F10750   2.902   0.315  10.272  0.6718 -0.7327 -0.7328
  105OSM    H3G10751   2.963   0.229  10.408 -0.1679  0.0622  0.2585
  105OSM    C4F10752   3.077   0.175  10.215 -0.3491  0.7269 -0.6438
  105OSM    H4F10753   2.999   0.099  10.193 -0.8373  0.9782  0.1795
  105OSM    H4G10754   3.161   0.131  10.274  0.1278  1.2402 -0.9373
  105OSM    C5F10755   3.130   0.239  10.085  0.2634  0.2869 -0.2233
  105OSM    H5F10756   3.186   0.161  10.030 -0.6614 -0.4974 -0.0878
  105OSM    H5G10757   3.208   0.315  10.107 -0.4343  1.3425 -1.3095
  105OSM    C6F10758   3.024   0.297   9.995 -0.0053  0.3247 -0.0027
  105OSM    H6F10759   2.966   0.381  10.038  0.4711  0.6651 -0.0246
  105OSM    H6G10760   2.950   0.217   9.974  0.7172  0.1092 -1.9487
  105OSM    C7F10761   3.070   0.330   9.847 -0.5016  0.6312  0.0106
  105OSM    H7F10762   2.979   0.335   9.784  0.0051 -1.1765 -0.9319
  105OSM    H7G10763   3.133   0.248   9.806 -2.9825 -1.3892  0.0424
  105OSM    C8F10764   3.140   0.458   9.828  0.0340  0.6928  0.1610
  105OSM    H8F10765   3.222   0.466   9.902 -0.6550  2.9550  0.7517
  105OSM    H8G10766   3.070   0.540   9.857  0.0836  0.8842 -0.2512
  105OSM    C9F10767   3.195   0.458   9.685 -0.5669 -1.0292  0.3189
  105OSM    H9F10768   3.259   0.376   9.648  1.9214  0.4751  0.9922
  105OSM   C10F10769   3.185   0.567   9.604 -0.6981  0.5288  0.6346
  105OSM   H10F10770   3.234   0.553   9.507  1.3023  0.1471  1.6484
  105OSM   C11F10771   3.121   0.706   9.624 -0.2135  0.8569 -0.0975
  105OSM   H11F10772   3.062   0.716   9.717  0.9665  0.7507  0.6851
  105OSM   H11G10773   3.040   0.718   9.548 -1.0291 -1.7837  0.2508
  105OSM   C12F10774   3.224   0.816   9.621 -0.2677 -0.1969 -0.1332
  105OSM   H12F10775   3.304   0.811   9.698 -1.1325  0.3255  0.8388
  105OSM   H12G10776   3.157   0.902   9.642  1.0622  0.5727  1.1774
  105OSM   C13F10777   3.284   0.841   9.488 -0.1570 -0.2554  0.1747
  105OSM   H13F10778   3.351   0.755   9.466 -2.0412 -1.2377 -2.2548
  105OSM   H13G10779   3.348   0.930   9.499  0.7759 -0.9434  0.4554
  105OSM   C14F10780   3.180   0.853   9.379  0.0664 -0.3367 -0.2421
  105OSM   H14F10781   3.108   0.932   9.411  0.8463  0.4254 -0.3515
  105OSM   H14G10782   3.133   0.752   9.368 -1.4156  0.1312  1.2386
  105OSM   C15F10783   3.234   0.892   9.241  0.4748  0.0647  0.2983
  105OSM   H15F10784   3.344   0.882   9.236  0.2978 -1.7204 -2.7158
  105OSM   H15G10785   3.204   0.997   9.219  3.0972  0.5327 -1.4650
  105OSM   C16F10786   3.182   0.807   9.136  0.2958 -0.1069 -0.4860
  105OSM   H16F10787   3.072   0.821   9.142  0.4128  1.7535 -1.7911
  105OSM   H16G10788   3.208   0.703   9.165  3.6217  0.0937 -2.2516
  105OSM   C17F10789   3.240   0.844   8.997 -0.0149  0.0326 -0.6110
  105OSM   H17F10790   3.349   0.841   8.977 -0.3024  1.2850 -2.6567
  105OSM   H17G10791   3.203   0.947   8.978 -1.0812  0.3518  2.5946
  105OSM   C18F10792   3.180   0.769   8.884  0.1354  0.2392  0.1575
  105OSM   H18F10793   3.069   0.768   8.889  0.0889 -2.2437 -0.1419
  105OSM   H18G10794   3.217   0.664   8.882  3.0964  1.1944  0.1089
  105OSM   H18H10795   3.216   0.820   8.792  0.1827  2.2863  1.2527
  106OSM      N10796   4.635   5.275  11.134 -0.0804 -0.2057 -0.4784
  106OSM    C1510797   4.542   5.251  11.249 -0.4287 -0.5888 -0.1955
  106OSM   H15A10798   4.561   5.159  11.302  1.6153 -0.5815 -0.8337
  106OSM   H15B10799   4.437   5.263  11.230 -0.0918 -0.3271 -2.1275
  106OSM   H15C10800   4.552   5.328  11.325  1.0574 -1.4059  0.4909
  106OSM    C1410801   4.588   5.395  11.054  1.0515  0.1755  0.3406
  106OSM   H14A10802   4.580   5.486  11.110  0.5214 -0.1465  0.7981
  106OSM   H14B10803   4.487   5.376  11.022  0.3033  1.8267  1.6047
  106OSM   H14C10804   4.663   5.418  10.979 -1.4795 -0.6024 -2.6587
  106OSM    C1310805   4.776   5.289  11.185  0.3254 -0.0482  0.1146
  106OSM   H13A10806   4.804   5.197  11.233 -0.0227  0.1413  0.6826
  106OSM   H13B10807   4.784   5.371  11.255 -1.4604  0.5791 -0.3669
  106OSM   H13C10808   4.837   5.301  11.096 -1.2500  0.5885 -0.9125
  106OSM    C1210809   4.625   5.161  11.040 -0.8171 -0.0150 -0.0771
  106OSM   H12A10810   4.520   5.150  11.019 -0.6167 -0.9225 -0.6313
  106OSM   H12B10811   4.656   5.070  11.089  0.8168  0.0008 -1.0233
  106OSM    C1110812   4.684   5.175  10.895  0.4182  0.8404  0.0560
  106OSM   H11A10813   4.647   5.261  10.836  0.9635  1.1980  0.2277
  106OSM   H11B10814   4.649   5.084  10.842  0.2096  0.2789  1.1330
  106OSM      P10815   4.904   5.037  10.867 -0.4898  0.6094 -0.1096
  106OSM    O1310816   5.049   5.055  10.856 -0.1373 -0.6831  0.3312
  106OSM    O1410817   4.865   4.915  10.956 -0.2260 -0.0204 -0.1144
  106OSM    O1110818   4.853   5.002  10.722 -0.0736  0.4683  0.1479
  106OSM    O1210819   4.829   5.176  10.897 -0.2963 -0.2781  0.3749
  106OSM    C1S10820   4.800   4.870  10.696 -0.5846 -0.4400 -0.2683
  106OSM    H1S10821   4.691   4.861  10.712 -0.2970 -3.5402  0.7621
  106OSM    H1T10822   4.842   4.793  10.765 -3.8659 -0.7064  1.6587
  106OSM     NF10823   4.742   4.714  10.514 -0.0506  0.1515  0.7157
  106OSM    HNF10824   4.785   4.626  10.533  0.8547  0.7322  1.4297
  106OSM    C2S10825   4.837   4.821  10.549 -0.6177 -0.0580 -0.3881
  106OSM    H2S10826   4.807   4.904  10.482  0.8596  2.2298  1.5914
  106OSM    C3S10827   4.992   4.790  10.531  0.5682  0.7402 -0.3625
  106OSM    H3S10828   5.027   4.715  10.605  0.8979  1.8066  0.5827
  106OSM     O310829   5.080   4.896  10.567  0.5245  0.2060  0.6993
  106OSM    HO310830   5.026   4.954  10.623 -0.3145  0.4307 -0.3191
  106OSM    C4S10831   5.022   4.758  10.386  0.1616  0.3165  0.3635
  106OSM    H4S10832   5.025   4.844  10.317 -0.6295 -1.3338 -1.8450
  106OSM    C5S10833   5.064   4.642  10.325 -0.3280  0.3420 -0.5453
  106OSM    H5S10834   5.069   4.554  10.392 -1.9418  0.7415  0.1449
  106OSM    C6S10835   5.094   4.633  10.177 -0.3799  0.6827  0.2068
  106OSM    H6S10836   5.116   4.525  10.163  2.3366  0.9600  1.6354
  106OSM    H6T10837   5.175   4.703  10.146 -0.7689  1.8965  1.7786
  106OSM    C7S10838   4.970   4.660  10.091 -0.8666 -0.3476  0.3478
  106OSM    H7S10839   4.924   4.759  10.107 -2.5618 -0.8694 -0.9584
  106OSM    H7T10840   4.895   4.581  10.113 -0.4912 -0.7592  0.1825
  106OSM    C8S10841   4.997   4.649   9.936 -0.7592  0.2497  0.4145
  106OSM    H8S10842   5.040   4.549   9.915  2.0370  1.7671 -1.9822
  106OSM    H8T10843   5.076   4.724   9.910 -2.0929  2.1642  1.6242
  106OSM    C9S10844   4.862   4.662   9.861 -0.0743  0.1270  0.0246
  106OSM    H9S10845   4.809   4.756   9.885  1.0333  0.3700  1.6110
  106OSM    H9T10846   4.797   4.573   9.881 -1.0318  0.7166 -0.3901
  106OSM   C10S10847   4.884   4.675   9.701 -0.2911 -0.0799 -0.4785
  106OSM   H10S10848   4.933   4.771   9.672 -0.4444  0.2022  0.1632
  106OSM   H10T10849   4.780   4.662   9.666 -0.8806  1.7020  0.4488
  106OSM   C11S10850   4.976   4.573   9.635 -0.1970 -0.3459  0.6395
  106OSM   H11S10851   4.947   4.471   9.667 -0.9943 -0.4193 -0.2687
  106OSM   H11T10852   5.081   4.592   9.666  0.9145 -0.2119 -2.7120
  106OSM   C12S10853   4.981   4.579   9.475  0.3802  0.3046  0.1445
  106OSM   H12S10854   5.043   4.494   9.437  0.8117  1.5215 -2.1015
  106OSM   H12T10855   5.031   4.675   9.452  0.8322  0.9519  3.3593
  106OSM   C13S10856   4.850   4.572   9.392 -0.6625  0.5620  0.0391
  106OSM   H13S10857   4.783   4.658   9.417 -1.0098  0.5064 -0.6827
  106OSM   H13T10858   4.797   4.484   9.434 -1.0834  1.0764  0.6206
  106OSM   C14S10859   4.873   4.571   9.241 -0.0491 -0.2740  0.0208
  106OSM   H14S10860   4.929   4.476   9.227  0.9091  0.3080 -0.1892
  106OSM   H14T10861   4.944   4.654   9.223 -2.5844  2.6237  2.3354
  106OSM   C15S10862   4.750   4.579   9.162 -0.5671 -0.0941  0.3209
  106OSM   H15S10863   4.716   4.679   9.196 -0.7460  0.2829 -0.9026
  106OSM   H15T10864   4.680   4.497   9.187 -0.9305 -0.2695 -1.1745
  106OSM   C16S10865   4.792   4.581   9.016  0.2043  0.4709  0.0289
  106OSM   H16S10866   4.847   4.672   8.985 -0.5670  1.0690  0.3987
  106OSM   H16T10867   4.700   4.589   8.954  0.9739  0.9586 -1.0776
  106OSM   C17S10868   4.856   4.450   8.963 -0.5398  0.1292  0.0745
  106OSM   H17S10869   4.949   4.431   9.021 -0.4512  0.2315 -0.0356
  106OSM   H17T10870   4.902   4.473   8.865  0.2349 -2.3516 -0.2119
  106OSM   C18S10871   4.765   4.319   8.961 -0.2277  0.1891  0.4624
  106OSM   H18S10872   4.822   4.234   8.919 -0.6980 -0.5896  1.3466
  106OSM   H18T10873   4.678   4.341   8.896  0.4436 -1.5289 -1.1038
  106OSM   H18U10874   4.732   4.280   9.060  2.0724 -1.3514  0.6840
  106OSM    C1F10875   4.611   4.729  10.482  0.1998 -0.9379  0.3178
  106OSM     OF10876   4.566   4.849  10.462 -0.6461  0.6214  0.5107
  106OSM    C2F10877   4.517   4.607  10.481 -0.0770 -0.2355  0.0547
  106OSM    H2F10878   4.461   4.597  10.576  0.7574  0.6256  0.6475
  106OSM    H2G10879   4.566   4.513  10.445 -0.7549 -0.4809 -0.2480
  106OSM    C3F10880   4.398   4.638  10.380  0.4040  0.1373 -0.2845
  106OSM    H3F10881   4.345   4.726  10.421 -2.0132 -0.7530 -1.3404
  106OSM    H3G10882   4.331   4.550  10.371 -0.1744  0.1543  2.7955
  106OSM    C4F10883   4.438   4.655  10.233 -0.7332 -1.0089 -0.2809
  106OSM    H4F10884   4.521   4.728  10.238  0.9244 -2.7682 -0.6565
  106OSM    H4G10885   4.355   4.706  10.180 -1.5480  0.3670  2.1548
  106OSM    C5F10886   4.475   4.523  10.158 -0.6202 -1.4858 -0.9164
  106OSM    H5F10887   4.383   4.462  10.150 -2.6292  1.3803 -1.3505
  106OSM    H5G10888   4.557   4.492  10.226  0.5565  1.5314 -0.7816
  106OSM    C6F10889   4.535   4.556  10.020  0.0981 -0.8558 -0.0698
  106OSM    H6F10890   4.525   4.455   9.974 -0.2061 -1.1889  0.7030
  106OSM    H6G10891   4.642   4.585  10.023  0.1639 -1.1393  0.4592
  106OSM    C7F10892   4.444   4.657   9.952 -0.1882 -0.3445  0.4020
  106OSM    H7F10893   4.478   4.757   9.985 -1.0170  0.0860 -0.0112
  106OSM    H7G10894   4.336   4.649   9.976 -0.1882 -0.7169  0.2869
  106OSM    C8F10895   4.472   4.664   9.798  0.1832  0.1121  0.1743
  106OSM    H8F10896   4.582   4.652   9.788  0.1751 -1.8985  1.8203
  106OSM    H8G10897   4.437   4.764   9.765 -0.1882  0.1232  0.5941
  106OSM    C9F10898   4.406   4.543   9.724 -0.2613 -0.0970  0.0979
  106OSM    H9F10899   4.353   4.473   9.790 -3.0550  1.8710  0.0675
  106OSM   C10F10900   4.434   4.502   9.600 -0.2431 -0.3178  0.6037
  106OSM   H10F10901   4.394   4.407   9.563  0.3601 -0.2192 -0.3334
  106OSM   C11F10902   4.526   4.552   9.489 -0.1550 -0.0332 -0.1404
  106OSM   H11F10903   4.616   4.488   9.475  0.7175  1.1597 -0.1139
  106OSM   H11G10904   4.562   4.651   9.524 -0.3685  0.0152 -0.0519
  106OSM   C12F10905   4.453   4.573   9.353 -0.1580 -0.6145  1.0456
  106OSM   H12F10906   4.518   4.630   9.283  0.5382 -0.9234  1.4343
  106OSM   H12G10907   4.365   4.640   9.367  0.6800  0.1404  3.1450
  106OSM   C13F10908   4.423   4.435   9.290  0.2273  0.2222 -0.5084
  106OSM   H13F10909   4.342   4.386   9.348 -0.6411  0.0878 -1.7898
  106OSM   H13G10910   4.516   4.374   9.296 -1.1148 -2.1758 -2.2330
  106OSM   C14F10911   4.396   4.435   9.140  0.1218 -0.3913  0.1864
  106OSM   H14F10912   4.414   4.335   9.095 -0.5644 -0.1121 -0.7523
  106OSM   H14G10913   4.475   4.500   9.096 -1.7516  3.4169  1.9256
  106OSM   C15F10914   4.256   4.487   9.104  0.3595  0.4049  0.3415
  106OSM   H15F10915   4.235   4.588   9.145 -1.5332 -0.2317  1.0301
  106OSM   H15G10916   4.186   4.413   9.150  1.1529 -0.2547  0.5076
  106OSM   C16F10917   4.241   4.488   8.943  0.4858  0.0264 -0.3122
  106OSM   H16F10918   4.314   4.563   8.907  0.8980 -0.0217  0.4128
  106OSM   H16G10919   4.139   4.522   8.914  0.0350 -1.6609 -0.8407
  106OSM   C17F10920   4.251   4.351   8.876  0.0638 -0.5084  0.4023
  106OSM   H17F10921   4.355   4.314   8.890 -0.1848 -1.9888 -1.3165
  106OSM   H17G10922   4.235   4.362   8.767 -3.1377 -0.8844  0.7370
  106OSM   C18F10923   4.145   4.244   8.904 -0.2763  0.2970 -0.5436
  106OSM   H18F10924   4.048   4.292   8.928  0.3696  0.5962  1.7121
  106OSM   H18G10925   4.158   4.188   8.999 -3.1722  2.0162  1.0239
  106OSM   H18H10926   4.126   4.185   8.812 -3.6182  0.9300 -0.3783
  107OSM      N10927   6.016   1.346  11.123  0.0601 -0.3307 -0.8331
  107OSM    C1510928   6.111   1.228  11.100  0.3985 -0.1658  0.2744
  107OSM   H15A10929   6.092   1.144  11.165 -1.0458 -1.9515 -2.2727
  107OSM   H15B10930   6.216   1.243  11.121  0.5185  0.8398 -0.9474
  107OSM   H15C10931   6.087   1.185  11.004 -3.9446 -0.0947  1.1235
  107OSM    C1410932   6.047   1.408  11.253 -0.4713 -0.2388 -0.2722
  107OSM   H14A10933   5.982   1.491  11.277  0.5685  1.1070 -1.8806
  107OSM   H14B10934   6.150   1.442  11.258 -0.5179 -0.2036  0.5610
  107OSM   H14C10935   6.040   1.337  11.334  0.4239  0.2455  0.2558
  107OSM    C1310936   6.024   1.446  11.015  0.1054  0.2213  0.3018
  107OSM   H13A10937   5.996   1.405  10.919 -1.5157 -1.1381  1.3095
  107OSM   H13B10938   6.128   1.470  11.002  0.0632  1.0924  1.4513
  107OSM   H13C10939   5.973   1.539  11.038  0.0458  0.5426 -1.0385
  107OSM    C1210940   5.872   1.301  11.126 -0.2837  0.2255  0.2872
  107OSM   H12A10941   5.848   1.262  11.224 -0.6686  1.8886  0.8802
  107OSM   H12B10942   5.872   1.218  11.057  3.0616  0.4629 -0.1546
  107OSM    C1110943   5.761   1.403  11.095  0.1397  0.3230 -0.2214
  107OSM   H11A10944   5.668   1.343  11.109  1.3009 -1.9459 -1.6195
  107OSM   H11B10945   5.773   1.420  10.986  2.5084 -1.1782 -0.2528
  107OSM      P10946   5.733   1.656  11.114 -0.1919 -0.4807  0.3743
  107OSM    O1310947   5.688   1.753  11.220 -0.1071  0.0984 -0.0211
  107OSM    O1410948   5.851   1.700  11.029  0.2811 -0.1259  0.0763
  107OSM    O1110949   5.616   1.632  11.020  0.1035 -0.0415  0.2696
  107OSM    O1210950   5.766   1.514  11.182 -0.4331 -0.5200 -0.0206
  107OSM    C1S10951   5.607   1.676  10.889 -0.6480  1.0946 -0.6689
  107OSM    H1S10952   5.671   1.614  10.823  0.0805  0.4231  0.6202
  107OSM    H1T10953   5.637   1.782  10.877 -0.8940  1.1408 -0.8920
  107OSM     NF10954   5.453   1.716  10.687  0.3474  0.3375  0.0140
  107OSM    HNF10955   5.425   1.806  10.656 -2.3225  0.3237  1.9754
  107OSM    C2S10956   5.459   1.690  10.830  1.2893  0.2063 -0.4398
  107OSM    H2S10957   5.407   1.594  10.847  0.7952  0.8017  1.6953
  107OSM    C3S10958   5.381   1.795  10.921 -0.1703 -0.1672  0.3889
  107OSM    H3S10959   5.443   1.887  10.917 -0.9083  0.3003 -1.7026
  107OSM     O310960   5.364   1.754  11.060 -0.2005 -0.0653 -0.0368
  107OSM    HO310961   5.430   1.686  11.073 -1.0700 -0.6516  1.5211
  107OSM    C4S10962   5.245   1.827  10.862  0.0810 -0.3823 -0.5627
  107OSM    H4S10963   5.236   1.930  10.825 -0.3533  0.3685  1.5181
  107OSM    C5S10964   5.138   1.752  10.858  0.0807 -0.0863  0.1296
  107OSM    H5S10965   5.140   1.650  10.900  3.0698 -0.1420  0.1047
  107OSM    C6S10966   5.004   1.784  10.798  0.3976  0.1862  0.4059
  107OSM    H6S10967   4.929   1.790  10.879  1.6587 -1.5804  1.7796
  107OSM    H6T10968   4.979   1.693  10.740 -0.4742 -0.4153  1.6952
  107OSM    C7S10969   4.991   1.906  10.706  0.2478  0.0041 -0.1375
  107OSM    H7S10970   5.059   1.896  10.619 -1.7848 -2.8713 -1.5516
  107OSM    H7T10971   5.019   1.998  10.763  2.1392 -1.1488  0.9262
  107OSM    C8S10972   4.842   1.917  10.661  0.2021  0.1798  0.2525
  107OSM    H8S10973   4.768   1.962  10.730  0.5721  0.4133  0.4972
  107OSM    H8T10974   4.810   1.817  10.623  0.5142  0.0780  0.2515
  107OSM    C9S10975   4.841   1.997  10.538 -0.0423  0.4810 -0.1658
  107OSM    H9S10976   4.903   2.089  10.537  0.0245  0.4938 -2.9168
  107OSM    H9T10977   4.733   2.019  10.518 -0.3472 -0.8482 -0.0520
  107OSM   C10S10978   4.880   1.922  10.408  0.1689  0.9520 -0.7474
  107OSM   H10S10979   4.823   1.827  10.409 -0.8980  1.5792 -0.7491
  107OSM   H10T10980   4.990   1.905  10.402  0.2371  1.3656 -0.6673
  107OSM   C11S10981   4.849   2.010  10.293 -0.4223  0.4933  0.5947
  107OSM   H11S10982   4.905   2.106  10.285 -1.2153  0.8172 -2.1518
  107OSM   H11T10983   4.739   2.026  10.293 -0.3613  1.0057  1.6814
  107OSM   C12S10984   4.881   1.932  10.165  0.2412 -0.2358 -0.3944
  107OSM   H12S10985   4.988   1.899  10.163  0.2791 -0.1259 -1.9474
  107OSM   H12T10986   4.866   2.003  10.081 -1.2539 -1.5971 -1.3300
  107OSM   C13S10987   4.788   1.809  10.135 -0.2459 -0.2266  0.3644
  107OSM   H13S10988   4.688   1.852  10.114  0.3613  0.6261 -0.9335
  107OSM   H13T10989   4.777   1.734  10.216 -1.7895 -0.7063 -0.2624
  107OSM   C14S10990   4.852   1.736  10.005 -0.1944 -0.1452 -0.6864
  107OSM   H14S10991   4.949   1.692  10.037 -0.7393 -0.2527  0.9001
  107OSM   H14T10992   4.866   1.822   9.935 -1.1859  0.9808  0.4390
  107OSM   C15S10993   4.754   1.634   9.941 -0.3093  0.4645  0.3920
  107OSM   H15S10994   4.659   1.683   9.914 -2.7712 -2.9635  1.9544
  107OSM   H15T10995   4.721   1.565  10.023  0.9652 -0.2212  0.3639
  107OSM   C16S10996   4.817   1.544   9.832  0.2437 -0.5587  0.0249
  107OSM   H16S10997   4.786   1.439   9.848  5.0594 -2.2795 -0.4905
  107OSM   H16T10998   4.927   1.545   9.841  0.2171  0.4905  0.4136
  107OSM   C17S10999   4.790   1.588   9.686  0.3134 -0.7600  0.6979
  107OSM   H17S11000   4.684   1.561   9.664  0.0845  1.0117 -0.5483
  107OSM   H17T11001   4.851   1.533   9.612  1.2103  0.1267  0.7540
  107OSM   C18S11002   4.800   1.744   9.660 -0.2958  0.3259 -0.5312
  107OSM   H18S11003   4.901   1.778   9.691 -0.1725 -0.6812  0.2258
  107OSM   H18T11004   4.723   1.792   9.725  0.0586  1.4902 -0.9486
  107OSM   H18U11005   4.807   1.774   9.554 -1.0512  1.4039 -0.2953
  107OSM    C1F11006   5.503   1.623  10.608  0.0013 -0.6885  0.3489
  107OSM     OF11007   5.522   1.511  10.647 -0.4681  0.5426  0.1478
  107OSM    C2F11008   5.531   1.660  10.460 -0.5120 -0.0080 -0.2500
  107OSM    H2F11009   5.604   1.743  10.463 -2.7298  2.0752  2.7903
  107OSM    H2G11010   5.439   1.706  10.418 -0.2553  0.4998 -0.2562
  107OSM    C3F11011   5.589   1.536  10.385  0.3394 -0.8394 -0.6817
  107OSM    H3F11012   5.513   1.455  10.386  0.7889 -1.2709 -1.0045
  107OSM    H3G11013   5.678   1.504  10.444  0.1398  0.6476  0.4766
  107OSM    C4F11014   5.620   1.561  10.238 -1.0931 -0.5709 -0.8808
  107OSM    H4F11015   5.698   1.640  10.246 -0.5464 -1.2681  1.8533
  107OSM    H4G11016   5.536   1.582  10.169  0.4728  0.6335 -2.5089
  107OSM    C5F11017   5.684   1.448  10.166 -0.4932  0.0927 -0.2847
  107OSM    H5F11018   5.600   1.380  10.141  0.6679 -1.1449 -0.9131
  107OSM    H5G11019   5.754   1.388  10.229 -1.6700  0.6510  1.6661
  107OSM    C6F11020   5.747   1.494  10.033  0.4039  0.3167 -0.2326
  107OSM    H6F11021   5.817   1.574  10.065 -0.2676  0.5173  0.7960
  107OSM    H6G11022   5.669   1.535   9.966  0.0341  0.0209  0.0125
  107OSM    C7F11023   5.828   1.378   9.958  0.5182  0.5178 -0.0968
  107OSM    H7F11024   5.744   1.312   9.926  0.4023 -1.6148  3.9304
  107OSM    H7G11025   5.884   1.332  10.043 -0.9476 -0.7809  0.2264
  107OSM    C8F11026   5.922   1.427   9.844  0.1441 -0.1567  0.6829
  107OSM    H8F11027   5.979   1.517   9.874 -1.5223  1.3067 -0.3740
  107OSM    H8G11028   5.862   1.486   9.772  0.7424  0.9216  1.0457
  107OSM    C9F11029   6.014   1.319   9.792  0.6239 -0.0648  0.0244
  107OSM    H9F11030   6.034   1.232   9.857 -0.9276 -1.6811 -1.5387
  107OSM   C10F11031   6.072   1.327   9.669  0.3611 -0.3271 -0.6430
  107OSM   H10F11032   6.144   1.247   9.647  1.5093  0.1371  1.2036
  107OSM   C11F11033   6.055   1.436   9.561 -0.3033  0.6465 -1.0670
  107OSM   H11F11034   6.144   1.446   9.495  1.8979  1.4860  1.7733
  107OSM   H11G11035   6.041   1.537   9.606  1.0703  0.7409 -0.7929
  107OSM   C12F11036   5.936   1.410   9.462  0.0163 -0.8396  0.8459
  107OSM   H12F11037   5.907   1.502   9.407  1.0138 -0.0282  1.6491
  107OSM   H12G11038   5.847   1.375   9.518 -0.8509 -0.6550 -0.3899
  107OSM   C13F11039   5.971   1.301   9.352 -0.4357  0.3817 -0.2870
  107OSM   H13F11040   5.878   1.265   9.303 -0.6596  2.0262 -1.1469
  107OSM   H13G11041   6.020   1.222   9.413  0.3439  1.5088  0.6119
  107OSM   C14F11042   6.072   1.344   9.242  0.2669 -0.7003 -0.5966
  107OSM   H14F11043   6.112   1.251   9.197  1.2308  0.2833 -1.8552
  107OSM   H14G11044   6.154   1.406   9.283 -1.6929  1.6589 -0.0263
  107OSM   C15F11045   6.004   1.424   9.131 -0.1253 -0.4569  0.0970
  107OSM   H15F11046   6.084   1.478   9.076 -0.3746  1.3578  1.4187
  107OSM   H15G11047   5.941   1.505   9.173  0.9633  0.1186  0.6672
  107OSM   C16F11048   5.923   1.342   9.034 -0.1762 -0.3997 -0.1167
  107OSM   H16F11049   5.835   1.295   9.082 -0.0515 -0.4800  0.0324
  107OSM   H16G11050   5.990   1.273   8.979 -1.2512 -1.3383 -0.3040
  107OSM   C17F11051   5.876   1.443   8.920  0.1780  0.3441 -0.0785
  107OSM   H17F11052   5.834   1.532   8.971 -0.1353 -0.5957  1.3572
  107OSM   H17G11053   5.785   1.407   8.867 -0.7290  0.5232  1.3071
  107OSM   C18F11054   5.986   1.485   8.818 -0.1102 -0.2282  0.0718
  107OSM   H18F11055   5.971   1.583   8.769  0.3025  1.7020  3.4800
  107OSM   H18G11056   5.997   1.407   8.739 -3.9045  0.4385 -1.3279
  107OSM   H18H11057   6.083   1.496   8.871 -0.4356  2.7339  0.1931
  108OSM      N11058   2.287   6.065  11.432 -0.4282 -0.5606 -0.0156
  108OSM    C1511059   2.379   5.981  11.356  0.2225 -0.2462 -0.4321
  108OSM   H15A11060   2.485   5.990  11.377 -0.3715  0.6668  2.6192
  108OSM   H15B11061   2.366   6.000  11.251 -1.7835 -0.0073 -0.1784
  108OSM   H15C11062   2.356   5.876  11.369 -0.9883  0.0235 -0.2465
  108OSM    C1411063   2.149   6.025  11.395 -0.4276 -0.9051  0.1099
  108OSM   H14A11064   2.138   6.016  11.288 -1.4638  2.4411 -0.1861
  108OSM   H14B11065   2.084   6.106  11.427  0.2296 -0.4844  0.4009
  108OSM   H14C11066   2.125   5.935  11.450 -0.1408  0.3411  2.4130
  108OSM    C1311067   2.293   6.043  11.582  0.5633  0.6723 -0.1708
  108OSM   H13A11068   2.267   5.943  11.612  1.7443  0.6000  0.6832
  108OSM   H13B11069   2.219   6.109  11.623  0.3925  2.1913 -2.6997
  108OSM   H13C11070   2.389   6.054  11.630  1.0221  2.0439 -1.3328
  108OSM    C1211071   2.309   6.213  11.400 -0.2401  0.1276 -0.6438
  108OSM   H12A11072   2.412   6.231  11.425  0.1140 -0.0818 -1.8571
  108OSM   H12B11073   2.249   6.271  11.469  1.0653 -1.5858  2.1119
  108OSM    C1111074   2.295   6.278  11.256  0.8830  0.4763 -0.8168
  108OSM   H11A11075   2.307   6.388  11.262 -2.1001  0.8128  0.7153
  108OSM   H11B11076   2.187   6.266  11.233  0.3960  2.6644  0.1082
  108OSM      P11077   2.501   6.272  11.102  0.0186  0.3146  0.0275
  108OSM    O1311078   2.527   6.395  11.169 -0.6141 -0.6362  0.3169
  108OSM    O1411079   2.605   6.170  11.100  0.6328  0.7608 -0.6599
  108OSM    O1111080   2.468   6.300  10.951 -0.2340  0.2741  0.0273
  108OSM    O1211081   2.367   6.207  11.159  0.1334  0.3189 -0.1349
  108OSM    C1S11082   2.335   6.296  10.894 -0.5420 -0.6797  0.5609
  108OSM    H1S11083   2.294   6.392  10.933  1.3732  0.5419 -0.2743
  108OSM    H1T11084   2.278   6.212  10.939 -3.4410  0.9933  0.2795
  108OSM     NF11085   2.198   6.313  10.685 -0.8570  0.0086 -0.0402
  108OSM    HNF11086   2.141   6.233  10.669 -3.5219  1.9854 -1.0548
  108OSM    C2S11087   2.329   6.289  10.738 -0.9666 -0.1057 -0.6686
  108OSM    H2S11088   2.404   6.365  10.704 -0.6757  0.4335  1.1057
  108OSM    C3S11089   2.395   6.156  10.697 -0.6115 -0.1220  0.0604
  108OSM    H3S11090   2.324   6.083  10.742  0.6404 -1.3835  0.0502
  108OSM     O311091   2.520   6.130  10.758 -0.0151  0.1333  0.2877
  108OSM    HO311092   2.528   6.196  10.827  0.5832  0.3660  0.0020
  108OSM    C4S11093   2.403   6.148  10.555  0.2234 -0.0726  0.4325
  108OSM    H4S11094   2.456   6.230  10.506  2.9121 -0.7294  2.0523
  108OSM    C5S11095   2.331   6.060  10.472  0.1095 -0.8427 -0.9415
  108OSM    H5S11096   2.275   5.980  10.523  0.3702  0.7581  2.0639
  108OSM    C6S11097   2.328   6.060  10.326 -0.5144 -0.5994 -0.1859
  108OSM    H6S11098   2.257   6.137  10.289  0.5890  0.0927 -0.9187
  108OSM    H6T11099   2.273   5.967  10.302 -0.9024 -0.5351  0.4168
  108OSM    C7S11100   2.464   6.082  10.260  1.5413  0.0842  0.1324
  108OSM    H7S11101   2.512   5.982  10.273  0.1257 -0.5178  1.0111
  108OSM    H7T11102   2.525   6.158  10.313  2.4579 -1.6813  1.7721
  108OSM    C8S11103   2.455   6.107  10.111 -0.4582  0.5575 -0.1125
  108OSM    H8S11104   2.549   6.155  10.075 -1.0711  2.5287  0.8291
  108OSM    H8T11105   2.389   6.193  10.089 -0.6403  0.3057 -0.5663
  108OSM    C9S11106   2.427   5.969  10.029 -0.5229  0.0149 -0.2724
  108OSM    H9S11107   2.321   5.939  10.046 -0.7355  0.5860 -0.5698
  108OSM    H9T11108   2.490   5.894  10.081  0.7618  1.4479  0.3199
  108OSM   C10S11109   2.468   5.986   9.884  0.4607 -0.2674  0.2828
  108OSM   H10S11110   2.469   5.883   9.844  2.7467  0.0319 -0.6017
  108OSM   H10T11111   2.558   6.044   9.854 -0.3217  0.3176 -0.9881
  108OSM   C11S11112   2.358   6.057   9.810  0.1558  0.2180 -0.2226
  108OSM   H11S11113   2.343   6.157   9.856  1.5768 -0.2175  1.2795
  108OSM   H11T11114   2.267   5.997   9.834  1.0724  0.2107  4.1161
  108OSM   C12S11115   2.387   6.077   9.657 -0.3995 -0.5044 -0.2461
  108OSM   H12S11116   2.470   6.151   9.653  1.8819 -2.9565 -1.4834
  108OSM   H12T11117   2.304   6.103   9.589  0.1923 -1.5335 -1.3982
  108OSM   C13S11118   2.446   5.948   9.590  0.0345  0.4066  0.1346
  108OSM   H13S11119   2.392   5.857   9.626  2.2064 -0.7068  0.7045
  108OSM   H13T11120   2.552   5.934   9.618 -0.1367 -2.5053 -0.3146
  108OSM   C14S11121   2.432   5.951   9.435  0.2357 -0.3418 -0.1503
  108OSM   H14S11122   2.454   6.056   9.408  2.0171  0.0201  2.3477
  108OSM   H14T11123   2.324   5.935   9.417 -0.1749  0.2363  1.5831
  108OSM   C15S11124   2.513   5.842   9.356  0.5115 -0.6466  0.0455
  108OSM   H15S11125   2.450   5.750   9.354 -0.1650 -0.2337  1.4091
  108OSM   H15T11126   2.609   5.830   9.411  1.8036  0.9063 -1.7250
  108OSM   C16S11127   2.546   5.876   9.208  0.5835 -0.7991  0.6689
  108OSM   H16S11128   2.623   5.807   9.167  0.3746 -0.4634 -0.3204
  108OSM   H16T11129   2.575   5.982   9.197 -0.8909 -0.5758 -1.7486
  108OSM   C17S11130   2.421   5.860   9.121 -0.6017 -0.1887  0.0004
  108OSM   H17S11131   2.347   5.921   9.176 -0.9217 -0.6188  0.0560
  108OSM   H17T11132   2.382   5.756   9.124  0.7283 -0.9991 -3.8276
  108OSM   C18S11133   2.433   5.879   8.964 -0.3366  0.0575 -0.3990
  108OSM   H18S11134   2.446   5.989   8.947  0.2400 -0.0465 -0.6771
  108OSM   H18T11135   2.345   5.843   8.906 -1.6753  3.1557 -0.4944
  108OSM   H18U11136   2.526   5.838   8.919  0.6046  0.8589  0.7544
  108OSM    C1F11137   2.141   6.430  10.689 -0.5737 -0.0274 -0.6877
  108OSM     OF11138   2.216   6.524  10.707  0.9932  0.2597 -0.0515
  108OSM    C2F11139   1.997   6.441  10.671  0.7779 -1.0437  0.5832
  108OSM    H2F11140   1.961   6.492  10.763  2.7145 -1.6851  1.7596
  108OSM    H2G11141   1.955   6.339  10.663 -1.1094 -0.4815  2.5686
  108OSM    C3F11142   1.968   6.529  10.541  0.8705  0.1397 -0.5008
  108OSM    H3F11143   2.037   6.493  10.462  1.5741 -0.5090  0.3754
  108OSM    H3G11144   1.991   6.637  10.554  1.1939  0.4734 -3.3059
  108OSM    C4F11145   1.826   6.508  10.497  0.5231  0.4049  0.4585
  108OSM    H4F11146   1.746   6.540  10.568 -0.1818  0.2930 -0.2663
  108OSM    H4G11147   1.799   6.404  10.470  1.7849 -0.1993  1.4358
  108OSM    C5F11148   1.797   6.584  10.365  0.4745  0.4540 -0.1536
  108OSM    H5F11149   1.864   6.544  10.286 -0.3867 -2.5465  0.4902
  108OSM    H5G11150   1.841   6.685  10.374  3.9405 -0.9543  0.2981
  108OSM    C6F11151   1.650   6.578  10.337 -0.0413  0.4945 -0.3306
  108OSM    H6F11152   1.592   6.620  10.422 -0.6020  0.2495 -0.5904
  108OSM    H6G11153   1.615   6.472  10.331 -0.9256  0.7532  0.1143
  108OSM    C7F11154   1.599   6.650  10.205 -0.2381  0.7008  0.4531
  108OSM    H7F11155   1.639   6.751  10.182 -1.4011  0.6047 -2.2737
  108OSM    H7G11156   1.491   6.669  10.219 -0.0594  0.8047  1.9399
  108OSM    C8F11157   1.605   6.576  10.074 -0.2083  0.1639 -0.2682
  108OSM    H8F11158   1.548   6.639  10.002  0.2307  3.1776  1.8179
  108OSM    H8G11159   1.554   6.477  10.081  1.2176 -0.4800  2.1250
  108OSM    C9F11160   1.748   6.551  10.027 -0.4232  0.0594  0.5073
  108OSM    H9F11161   1.787   6.452  10.055 -0.7937  0.3502  2.1232
  108OSM   C10F11162   1.828   6.638   9.962 -0.0615 -0.3309  0.4036
  108OSM   H10F11163   1.933   6.611   9.945  0.1536  0.3502  0.6054
  108OSM   C11F11164   1.803   6.783   9.930 -0.0446 -0.5986  0.5711
  108OSM   H11F11165   1.900   6.823   9.893 -0.6273  0.2448 -0.1042
  108OSM   H11G11166   1.778   6.842  10.021  0.2815 -0.9294  0.8805
  108OSM   C12F11167   1.713   6.806   9.808 -0.1682 -0.4015 -0.5532
  108OSM   H12F11168   1.712   6.917   9.796  1.7586 -0.2442  0.3602
  108OSM   H12G11169   1.612   6.762   9.823 -0.2145 -0.1443 -0.0852
  108OSM   C13F11170   1.777   6.749   9.685 -0.6679 -0.0507  0.0614
  108OSM   H13F11171   1.779   6.638   9.690 -1.6685 -0.0805 -0.0212
  108OSM   H13G11172   1.879   6.792   9.678  0.0491 -1.7035 -0.2837
  108OSM   C14F11173   1.724   6.773   9.539  0.6085  0.1374 -0.2699
  108OSM   H14F11174   1.719   6.880   9.507  2.8437  0.0214 -1.1663
  108OSM   H14G11175   1.622   6.729   9.540  0.7385 -0.2168 -1.4007
  108OSM   C15F11176   1.804   6.701   9.425  0.3438 -0.0970  0.1488
  108OSM   H15F11177   1.741   6.730   9.339 -1.1329 -0.5975  1.0231
  108OSM   H15G11178   1.806   6.590   9.439  0.4804  0.0305  1.2069
  108OSM   C16F11179   1.946   6.752   9.412  0.8255  0.6302  0.0069
  108OSM   H16F11180   2.009   6.700   9.487 -0.5376 -1.5401 -0.2570
  108OSM   H16G11181   1.959   6.861   9.423 -0.4502  1.0853 -2.3457
  108OSM   C17F11182   2.025   6.728   9.278  0.6270  0.6275 -0.1362
  108OSM   H17F11183   2.019   6.617   9.267 -0.4759  0.8499 -2.3394
  108OSM   H17G11184   2.126   6.774   9.284  0.7836  0.4512 -1.3221
  108OSM   C18F11185   1.957   6.791   9.161  0.0324 -0.0654 -0.1874
  108OSM   H18F11186   1.855   6.749   9.145 -1.9395  3.3701  2.0356
  108OSM   H18G11187   2.030   6.801   9.078  1.2490 -1.8965  0.5999
  108OSM   H18H11188   1.921   6.893   9.186 -1.8439 -0.7531  0.0957
  109OSM      N11189   1.884   0.342  11.224  0.4669  0.4184 -0.1901
  109OSM    C1511190   1.921   0.234  11.327  0.1449 -0.4548  0.3732
  109OSM   H15A11191   1.836   0.169  11.343  0.5658 -0.7772  1.3826
  109OSM   H15B11192   1.941   0.265  11.429  0.9230  0.7275 -0.1140
  109OSM   H15C11193   2.011   0.182  11.299 -0.4618 -0.1515 -2.4408
  109OSM    C1411194   1.999   0.427  11.187  0.5614  0.1128 -0.0898
  109OSM   H14A11195   2.048   0.469  11.274 -1.8888  0.6010  1.1258
  109OSM   H14B11196   1.958   0.503  11.121  0.5969  0.3719  0.1831
  109OSM   H14C11197   2.070   0.363  11.137  0.0414 -0.5404  0.0060
  109OSM    C1311198   1.845   0.273  11.096  0.1128 -0.0645 -0.2055
  109OSM   H13A11199   1.935   0.225  11.059  0.1962 -0.4476  0.4705
  109OSM   H13B11200   1.803   0.339  11.022 -0.7245  1.8635  1.8875
  109OSM   H13C11201   1.778   0.191  11.117 -3.3794  2.0141 -2.2299
  109OSM    C1211202   1.763   0.424  11.273  0.3887  0.1002  0.3595
  109OSM   H12A11203   1.773   0.430  11.380  2.8613  1.0929  0.1262
  109OSM   H12B11204   1.675   0.362  11.263 -0.6385  1.1949  2.0317
  109OSM    C1111205   1.730   0.562  11.217 -0.5138 -0.0055  0.4458
  109OSM   H11A11206   1.813   0.634  11.235  0.2236 -0.9913  1.1360
  109OSM   H11B11207   1.635   0.596  11.263 -1.3698 -0.2053 -1.1286
  109OSM      P11208   1.692   0.678  10.988 -0.3416 -0.0581 -0.1583
  109OSM    O1311209   1.605   0.649  10.871 -0.5410 -0.1958  0.2991
  109OSM    O1411210   1.652   0.789  11.079 -0.1292 -0.1106  0.3019
  109OSM    O1111211   1.839   0.707  10.930 -0.3764  0.2574 -0.2814
  109OSM    O1211212   1.704   0.542  11.077 -0.0747 -0.4498  0.0021
  109OSM    C1S11213   1.905   0.594  10.871 -0.5239  0.0212 -0.5448
  109OSM    H1S11214   1.854   0.495  10.868  2.6576 -1.7485 -2.1849
  109OSM    H1T11215   2.007   0.573  10.911 -0.8966 -0.9276 -0.0649
  109OSM     NF11216   1.999   0.508  10.661 -0.6536 -0.2033  0.2893
  109OSM    HNF11217   2.097   0.495  10.644 -1.1009 -1.8967 -1.3612
  109OSM    C2S11218   1.939   0.626  10.725  1.0428  0.2824  0.3595
  109OSM    H2S11219   1.851   0.656  10.666  1.1537  1.0806  0.5841
  109OSM    C3S11220   2.026   0.755  10.711 -0.4432  0.1369 -0.0467
  109OSM    H3S11221   2.127   0.731  10.748 -0.9815 -0.5858  1.0010
  109OSM     O311222   1.984   0.870  10.780  0.7497  0.3057 -0.4583
  109OSM    HO311223   1.924   0.824  10.839 -0.5394 -0.0309 -1.9726
  109OSM    C4S11224   2.043   0.795  10.565  0.1800  0.4584  0.1444
  109OSM    H4S11225   1.948   0.834  10.524  0.7783  0.5547 -1.2131
  109OSM    C5S11226   2.148   0.796  10.478  0.2312 -0.4079  0.6324
  109OSM    H5S11227   2.249   0.767  10.508  0.5824  1.3128  1.2429
  109OSM    C6S11228   2.139   0.844  10.335  0.0737  0.1253  0.6896
  109OSM    H6S11229   2.224   0.911  10.311 -1.0428  1.3043 -0.0657
  109OSM    H6T11230   2.055   0.917  10.330 -1.2182 -1.3145  0.5170
  109OSM    C7S11231   2.115   0.739  10.233 -0.5856  0.5739  0.2980
  109OSM    H7S11232   2.038   0.668  10.271 -0.8669  0.9550  0.4351
  109OSM    H7T11233   2.206   0.682  10.203 -0.2354  0.7606  0.9708
  109OSM    C8S11234   2.042   0.793  10.111  0.0203 -0.5439  0.5071
  109OSM    H8S11235   1.954   0.843  10.157  1.1256  1.8577  0.1194
  109OSM    H8T11236   2.001   0.705  10.056  0.7723 -0.0688 -0.8474
  109OSM    C9S11237   2.114   0.900  10.025 -0.8115  0.7631  0.6191
  109OSM    H9S11238   2.182   0.844   9.956 -1.0278 -0.0145  1.0220
  109OSM    H9T11239   2.165   0.969  10.095  0.4382 -0.4539  0.9783
  109OSM   C10S11240   2.013   0.976   9.952  0.1640 -0.7447  0.2309
  109OSM   H10S11241   1.926   0.997  10.017  0.6997  1.0052  0.4254
  109OSM   H10T11242   1.966   0.916   9.871 -1.0939 -0.4622  0.7213
  109OSM   C11S11243   2.061   1.108   9.881 -0.1173 -0.3981  0.2563
  109OSM   H11S11244   2.114   1.160   9.963 -1.9865  1.2444  0.4666
  109OSM   H11T11245   1.971   1.164   9.849  0.9246  0.7909 -0.7003
  109OSM   C12S11246   2.145   1.068   9.759  0.0181  0.3571  0.7896
  109OSM   H12S11247   2.229   0.998   9.779  0.4582  0.2048 -1.3226
  109OSM   H12T11248   2.197   1.162   9.731  1.9169 -1.2818 -1.6088
  109OSM   C13S11249   2.057   1.030   9.635  0.4365 -0.2674  0.1190
  109OSM   H13S11250   2.004   1.123   9.606 -2.8444 -3.0644 -4.1730
  109OSM   H13T11251   1.992   0.945   9.666  1.1749 -0.6948  0.5267
  109OSM   C14S11252   2.132   0.976   9.514  0.6161 -0.0870 -0.5000
  109OSM   H14S11253   2.179   0.879   9.541  0.6990  0.7323  2.7948
  109OSM   H14T11254   2.207   1.053   9.485  0.1449  0.5951  0.0648
  109OSM   C15S11255   2.038   0.952   9.403  0.1649  0.0114  0.8660
  109OSM   H15S11256   1.985   1.048   9.383  2.5521  1.6243  1.8650
  109OSM   H15T11257   1.957   0.881   9.430  0.5943 -0.1873  1.6588
  109OSM   C16S11258   2.109   0.894   9.280  0.3297  0.1075 -0.5007
  109OSM   H16S11259   2.155   0.796   9.304 -2.4040 -1.6135 -1.7766
  109OSM   H16T11260   2.187   0.968   9.252  0.6570 -1.0301 -2.8498
  109OSM   C17S11261   2.025   0.870   9.158  0.3762 -0.1577  0.3259
  109OSM   H17S11262   1.950   0.951   9.143 -0.2626 -1.1630 -2.2853
  109OSM   H17T11263   1.963   0.778   9.161  1.5498 -0.9725  0.0690
  109OSM   C18S11264   2.087   0.867   9.026 -0.4379 -0.4032 -0.2734
  109OSM   H18S11265   2.028   0.825   8.941  1.3093  1.6608 -2.6530
  109OSM   H18T11266   2.173   0.797   9.028  0.1616  0.0724 -3.4928
  109OSM   H18U11267   2.114   0.969   8.992 -1.2382  0.1535  0.6881
  109OSM    C1F11268   1.927   0.401  10.629 -0.6603  0.3396 -0.4895
  109OSM     OF11269   1.802   0.402  10.615  0.3969  0.3505 -0.3287
  109OSM    C2F11270   2.010   0.276  10.602  0.4640  0.3385 -0.1422
  109OSM    H2F11271   1.961   0.199  10.666 -0.7304  0.6034 -0.7060
  109OSM    H2G11272   2.119   0.290  10.618  0.7727  0.4259 -2.0834
  109OSM    C3F11273   2.000   0.236  10.450  0.0384  0.5365 -0.5437
  109OSM    H3F11274   1.895   0.207  10.429 -0.5571  1.3445  1.0842
  109OSM    H3G11275   2.063   0.146  10.435  0.2961  0.4066  1.0898
  109OSM    C4F11276   2.056   0.339  10.359  0.1335 -0.0446  0.3199
  109OSM    H4F11277   2.164   0.353  10.382  0.4892 -1.0891 -0.6280
  109OSM    H4G11278   2.005   0.434  10.385 -0.7019 -0.8794  1.8729
  109OSM    C5F11279   2.039   0.294  10.218 -0.1592 -0.2438 -0.3967
  109OSM    H5F11280   1.931   0.291  10.189 -0.6758 -1.4646  1.4551
  109OSM    H5G11281   2.062   0.185  10.217 -1.9385 -0.6805  0.9198
  109OSM    C6F11282   2.103   0.383  10.118 -0.2478  0.9571  0.1885
  109OSM    H6F11283   2.212   0.382  10.141 -0.1074 -2.2978 -0.1891
  109OSM    H6G11284   2.062   0.486  10.118 -2.2705  0.2014  1.0840
  109OSM    C7F11285   2.079   0.320   9.978 -0.6601 -0.5186 -0.4807
  109OSM    H7F11286   1.969   0.317   9.961 -0.8873 -0.5737  0.9118
  109OSM    H7G11287   2.111   0.214   9.992 -0.7940 -0.3742  1.0641
  109OSM    C8F11288   2.160   0.384   9.864  0.3551 -0.0469 -0.0495
  109OSM    H8F11289   2.135   0.331   9.770 -0.9144  0.5955 -0.0970
  109OSM    H8G11290   2.269   0.367   9.877 -0.1480 -4.2411 -0.1245
  109OSM    C9F11291   2.174   0.536   9.856  0.1864  0.3875  0.5487
  109OSM    H9F11292   2.232   0.589   9.933  1.0867  0.3343 -0.0897
  109OSM   C10F11293   2.122   0.602   9.750 -0.2718  0.9053 -0.0286
  109OSM   H10F11294   2.127   0.712   9.759 -0.6705  0.8576  0.7899
  109OSM   C11F11295   2.050   0.547   9.636  0.0031  0.0511  0.6303
  109OSM   H11F11296   1.974   0.618   9.596 -0.7147  0.2346  2.2162
  109OSM   H11G11297   1.983   0.463   9.666 -0.8278 -0.3882 -2.1882
  109OSM   C12F11298   2.140   0.499   9.524  0.3567  0.2640 -0.0665
  109OSM   H12F11299   2.216   0.428   9.564 -0.3180  0.9064  2.5425
  109OSM   H12G11300   2.198   0.584   9.481  2.3727 -0.6333  0.7414
  109OSM   C13F11301   2.069   0.426   9.412  0.1557 -0.0188 -0.2114
  109OSM   H13F11302   1.968   0.470   9.398  1.1089  2.5308  0.3241
  109OSM   H13G11303   2.054   0.321   9.445 -0.9279  0.1155 -0.2499
  109OSM   C14F11304   2.138   0.420   9.279 -0.1638 -0.0809  0.3145
  109OSM   H14F11305   2.176   0.521   9.251  0.4433  0.2681  2.2804
  109OSM   H14G11306   2.067   0.389   9.199 -1.0689  2.3876  0.0597
  109OSM   C15F11307   2.260   0.327   9.265 -0.1760 -0.4974  0.2219
  109OSM   H15F11308   2.226   0.228   9.302 -1.0347  0.4325  2.0693
  109OSM   H15G11309   2.336   0.351   9.343 -0.1580  0.3489 -0.0475
  109OSM   C16F11310   2.315   0.322   9.124 -0.7522  0.3864 -0.3237
  109OSM   H16F11311   2.390   0.402   9.109  0.8160 -0.4278  2.5582
  109OSM   H16G11312   2.224   0.336   9.062 -2.5445  1.3676  2.3450
  109OSM   C17F11313   2.406   0.202   9.104 -0.6070  1.1407 -0.1168
  109OSM   H17F11314   2.433   0.198   8.997  1.9403  0.2902  0.4955
  109OSM   H17G11315   2.339   0.115   9.124  0.1373  0.1844 -1.5825
  109OSM   C18F11316   2.525   0.200   9.201  0.6053  0.2673 -0.8672
  109OSM   H18F11317   2.572   0.100   9.195 -1.1273 -0.8922  2.3856
  109OSM   H18G11318   2.496   0.218   9.307 -0.1852  0.4785 -1.1116
  109OSM   H18H11319   2.599   0.276   9.166 -0.6376  0.8781 -2.2889
  110OSM      N11320   4.307   0.485  11.022 -0.5378 -0.0758 -0.3047
  110OSM    C1511321   4.238   0.539  10.902 -0.3733  0.0419  0.3409
  110OSM   H15A11322   4.139   0.501  10.885 -0.2418 -0.7641  1.2890
  110OSM   H15B11323   4.297   0.504  10.819  0.8328 -0.2681  1.3006
  110OSM   H15C11324   4.240   0.647  10.896  0.2578  0.0318  0.2527
  110OSM    C1411325   4.446   0.549  11.022 -0.0200  0.0372  0.1168
  110OSM   H14A11326   4.515   0.516  10.946  0.0105 -2.8254  1.2582
  110OSM   H14B11327   4.489   0.532  11.120  0.6276  0.0906 -0.1520
  110OSM   H14C11328   4.432   0.655  11.008  1.6578  0.7634  3.0334
  110OSM    C1311329   4.225   0.523  11.148  0.0885  0.4191  0.6793
  110OSM   H13A11330   4.193   0.625  11.162 -0.3833  0.0766  2.2406
  110OSM   H13B11331   4.286   0.499  11.234  0.5827  1.4925  0.6383
  110OSM   H13C11332   4.131   0.470  11.150 -0.1921  0.8061 -0.7228
  110OSM    C1211333   4.334   0.337  11.027 -0.0254  1.0897 -0.0833
  110OSM   H12A11334   4.238   0.289  11.038  1.1568 -1.3567  0.2343
  110OSM   H12B11335   4.391   0.315  11.116  2.6678  1.0559 -1.7044
  110OSM    C1111336   4.397   0.276  10.900  0.4455  0.5341  0.0303
  110OSM   H11A11337   4.332   0.303  10.814  1.6577 -0.2760 -1.1937
  110OSM   H11B11338   4.382   0.166  10.901  0.6158  0.5091  1.1713
  110OSM      P11339   4.655   0.239  10.928  0.6111  0.2167 -0.2590
  110OSM    O1311340   4.773   0.303  10.869 -0.2923  0.4064 -0.3685
  110OSM    O1411341   4.659   0.236  11.077  0.5617  0.1489  0.0123
  110OSM    O1111342   4.636   0.091  10.877  0.0352 -0.0359  0.7082
  110OSM    O1211343   4.536   0.318  10.878  0.2506  0.8427  0.2934
  110OSM    C1S11344   4.655   0.053  10.738  0.0251 -0.3662 -0.3944
  110OSM    H1S11345   4.634   0.141  10.673  3.2514 -0.6012 -1.9479
  110OSM    H1T11346   4.585  -0.028  10.710 -3.2352  2.0332  0.1713
  110OSM     NF11347   4.796  -0.047  10.565  0.2065  0.2429  0.1637
  110OSM    HNF11348   4.769  -0.142  10.554  0.1245  0.1820  0.8504
  110OSM    C2S11349   4.799   0.004  10.700  0.6228  0.5275 -0.2785
  110OSM    H2S11350   4.855   0.100  10.703 -1.5615  1.8523  0.2958
  110OSM    C3S11351   4.854  -0.115  10.794  0.0161  0.5345  1.0746
  110OSM    H3S11352   4.771  -0.188  10.781  2.1101 -1.9191  0.7016
  110OSM     O311353   4.870  -0.073  10.929  0.8526 -0.1796  0.1522
  110OSM    HO311354   4.804  -0.004  10.921 -0.9650 -1.9364 -0.6497
  110OSM    C4S11355   4.982  -0.175  10.737  0.0958 -0.1575 -0.0808
  110OSM    H4S11356   4.951  -0.269  10.689 -1.9967  0.3403  0.1910
  110OSM    C5S11357   5.115  -0.143  10.754  0.3224 -0.0494 -0.0828
  110OSM    H5S11358   5.147  -0.067  10.827 -0.1311 -0.3853  0.4760
  110OSM    C6S11359   5.223  -0.227  10.687 -0.3453  0.3680  0.2552
  110OSM    H6S11360   5.263  -0.302  10.760 -0.8979  1.4016  1.6761
  110OSM    H6T11361   5.304  -0.161  10.651 -0.5010 -1.0043 -2.9049
  110OSM    C7S11362   5.177  -0.306  10.558 -0.3247 -0.2721  1.0225
  110OSM    H7S11363   5.109  -0.231  10.513 -1.9930 -1.6158  1.1735
  110OSM    H7T11364   5.118  -0.397  10.584 -0.0726 -0.4358  1.0317
  110OSM    C8S11365   5.271  -0.335  10.444 -0.7819  0.0622 -0.0951
  110OSM    H8S11366   5.362  -0.393  10.471  0.2196  0.5470 -2.2544
  110OSM    H8T11367   5.323  -0.241  10.414 -0.6284  0.4591  1.3104
  110OSM    C9S11368   5.202  -0.398  10.325  0.3008 -0.5059  0.0049
  110OSM    H9S11369   5.113  -0.338  10.295 -0.4847 -1.2219  0.8712
  110OSM    H9T11370   5.168  -0.497  10.362  0.0395 -0.1580  0.7028
  110OSM   C10S11371   5.288  -0.407  10.199 -0.0638  0.4262 -0.2521
  110OSM   H10S11372   5.369  -0.480  10.219 -0.0867  0.0801 -1.3380
  110OSM   H10T11373   5.330  -0.304  10.189  0.1498  0.5637  1.7238
  110OSM   C11S11374   5.197  -0.442  10.078 -0.5740  0.2950 -0.5139
  110OSM   H11S11375   5.159  -0.345  10.038  0.0384  0.4450 -0.7457
  110OSM   H11T11376   5.103  -0.486  10.117  0.0343 -1.6280 -1.0816
  110OSM   C12S11377   5.258  -0.530   9.974 -0.2620 -0.3192 -0.2287
  110OSM   H12S11378   5.247  -0.635  10.009 -0.2120 -0.2542 -0.0213
  110OSM   H12T11379   5.367  -0.519   9.956 -0.2949  3.4309  1.1253
  110OSM   C13S11380   5.172  -0.516   9.845 -0.2516  0.1118 -0.7727
  110OSM   H13S11381   5.166  -0.408   9.820  1.9396  0.7004  0.9149
  110OSM   H13T11382   5.065  -0.537   9.868 -0.5465  2.1564 -0.0274
  110OSM   C14S11383   5.215  -0.599   9.721 -0.4352 -0.3964 -0.0457
  110OSM   H14S11384   5.183  -0.705   9.718 -1.4026 -0.1750  1.2469
  110OSM   H14T11385   5.325  -0.606   9.718 -0.3662  0.5800 -0.1951
  110OSM   C15S11386   5.176  -0.527   9.598 -0.1171 -0.5959 -0.3600
  110OSM   H15S11387   5.242  -0.440   9.580  1.3628 -1.0211  2.5422
  110OSM   H15T11388   5.072  -0.499   9.626  0.4544 -0.0279  1.2792
  110OSM   C16S11389   5.164  -0.617   9.474 -0.7720  0.0371  0.0146
  110OSM   H16S11390   5.120  -0.561   9.388  1.2353 -0.1434 -1.1783
  110OSM   H16T11391   5.110  -0.710   9.502 -0.4377  0.0973  0.8797
  110OSM   C17S11392   5.309  -0.660   9.431 -0.8380  0.2276  0.1257
  110OSM   H17S11393   5.343  -0.731   9.509 -1.8184  1.9098  2.1812
  110OSM   H17T11394   5.366  -0.565   9.425 -0.9000  0.2492 -0.1293
  110OSM   C18S11395   5.317  -0.721   9.295 -0.1948  0.0707  0.3071
  110OSM   H18S11396   5.295  -0.829   9.285  2.2592 -0.4157 -0.3734
  110OSM   H18T11397   5.422  -0.725   9.259 -0.1943  2.1677 -0.0775
  110OSM   H18U11398   5.258  -0.665   9.218  0.0049 -2.0415 -1.4829
  110OSM    C1F11399   4.780   0.042  10.466 -0.4175  0.5355  0.8716
  110OSM     OF11400   4.766   0.162  10.485 -0.4475 -0.3598  0.0261
  110OSM    C2F11401   4.783  -0.011  10.326 -0.4997 -0.2407 -0.2287
  110OSM    H2F11402   4.772   0.077  10.260  1.5047  0.1982 -0.0568
  110OSM    H2G11403   4.712  -0.096  10.314  0.3398 -0.9497 -0.3383
  110OSM    C3F11404   4.928  -0.064  10.292 -0.1363  0.5925  0.0886
  110OSM    H3F11405   4.959  -0.137  10.369  1.1595  0.2372 -0.7347
  110OSM    H3G11406   4.987   0.030  10.292 -1.7670  1.6663 -0.2381
  110OSM    C4F11407   4.926  -0.131  10.154  0.2869  0.6205 -0.0197
  110OSM    H4F11408   4.840  -0.199  10.136 -1.2497  2.8440 -1.4685
  110OSM    H4G11409   5.022  -0.186  10.148  0.3951  0.8899 -0.7638
  110OSM    C5F11410   4.917  -0.033  10.040 -0.0082  0.5796 -0.2419
  110OSM    H5F11411   5.005   0.034  10.048  0.6601 -0.3396  0.3461
  110OSM    H5G11412   4.823   0.025  10.032 -0.5997 -0.3683 -0.2907
  110OSM    C6F11413   4.927  -0.113   9.904  0.6240 -0.3110  0.3758
  110OSM    H6F11414   5.030  -0.153   9.890  0.0616 -0.9876 -2.4893
  110OSM    H6G11415   4.920  -0.042   9.819  1.8989 -1.3638 -0.6444
  110OSM    C7F11416   4.825  -0.222   9.886 -0.0113 -0.1394 -0.0051
  110OSM    H7F11417   4.720  -0.189   9.899  0.2938  0.4568  1.0844
  110OSM    H7G11418   4.833  -0.308   9.956  0.4779 -0.8942 -0.9752
  110OSM    C8F11419   4.836  -0.287   9.747  0.0091 -0.7242  0.1988
  110OSM    H8F11420   4.767  -0.374   9.742  0.8778 -1.3848 -0.7048
  110OSM    H8G11421   4.941  -0.322   9.731  0.7196  0.0389  2.7862
  110OSM    C9F11422   4.808  -0.190   9.635  0.5562  0.0446 -0.1436
  110OSM    H9F11423   4.700  -0.172   9.618  0.6512  2.5473  1.3111
  110OSM   C10F11424   4.889  -0.128   9.550 -0.6749 -0.5210 -0.1099
  110OSM   H10F11425   4.839  -0.052   9.488  0.3301  0.3403  0.1134
  110OSM   C11F11426   5.038  -0.144   9.551  0.4725 -0.3551 -0.2657
  110OSM   H11F11427   5.078  -0.223   9.619  3.9414  0.8243 -0.7457
  110OSM   H11G11428   5.089  -0.047   9.569  0.8002 -0.0822 -2.4404
  110OSM   C12F11429   5.092  -0.184   9.411 -0.2407 -0.2536  1.1403
  110OSM   H12F11430   5.038  -0.124   9.334 -0.8992  0.5535  2.2100
  110OSM   H12G11431   5.068  -0.292   9.400 -1.5389  0.0916  0.3920
  110OSM   C13F11432   5.242  -0.171   9.395 -0.3419  0.1507  0.0611
  110OSM   H13F11433   5.297  -0.194   9.488 -0.9314 -0.1925  0.3310
  110OSM   H13G11434   5.256  -0.063   9.375  0.3233 -0.0363 -0.5461
  110OSM   C14F11435   5.305  -0.250   9.273 -0.6842  0.1173 -0.2386
  110OSM   H14F11436   5.299  -0.355   9.309 -0.0075  0.4276  0.8050
  110OSM   H14G11437   5.408  -0.211   9.261 -1.2233  1.2049 -1.7801
  110OSM   C15F11438   5.230  -0.250   9.140 -0.7371 -0.3060 -0.7690
  110OSM   H15F11439   5.252  -0.154   9.089 -0.1895  0.9168  1.6246
  110OSM   H15G11440   5.121  -0.271   9.148 -0.7839  0.6188  1.8361
  110OSM   C16F11441   5.290  -0.365   9.059  0.7659  0.0694  1.0973
  110OSM   H16F11442   5.266  -0.457   9.117 -1.8790  0.3566  0.6034
  110OSM   H16G11443   5.400  -0.349   9.055  0.6600  1.0299  1.6717
  110OSM   C17F11444   5.212  -0.370   8.919 -0.4331 -0.1290  0.0329
  110OSM   H17F11445   5.245  -0.285   8.855  0.7113 -0.7036 -0.1652
  110OSM   H17G11446   5.102  -0.363   8.934 -0.3266  2.0956  0.1174
  110OSM   C18F11447   5.265  -0.499   8.847  0.4137 -0.0926 -0.5567
  110OSM   H18F11448   5.227  -0.580   8.913 -0.4899  1.1200  0.4635
  110OSM   H18G11449   5.375  -0.493   8.835  0.3333 -1.5230 -2.4379
  110OSM   H18H11450   5.231  -0.515   8.743  2.5639 -0.4688 -1.2598
  111OSM      N11451   3.902   4.238  10.950  0.3847 -0.1064 -0.5791
  111OSM    C1511452   3.984   4.325  11.039 -0.4899  0.2724 -0.7501
  111OSM   H15A11453   3.922   4.369  11.116 -1.0274 -1.5121 -0.0907
  111OSM   H15B11454   4.033   4.402  10.983  1.3878 -0.2308  0.1365
  111OSM   H15C11455   4.063   4.272  11.089 -1.8747 -0.8897  0.3244
  111OSM    C1411456   3.838   4.139  11.051 -0.1088 -0.1183 -0.0964
  111OSM   H14A11457   3.778   4.198  11.119  0.0691  1.2475 -1.0788
  111OSM   H14B11458   3.920   4.090  11.101 -1.6659 -3.3636 -0.4842
  111OSM   H14C11459   3.777   4.064  11.004 -0.4274 -0.1440  0.3525
  111OSM    C1311460   3.786   4.317  10.883 -0.1691  0.3035  0.6666
  111OSM   H13A11461   3.805   4.400  10.816 -4.3830  0.0256 -1.1874
  111OSM   H13B11462   3.725   4.362  10.960 -2.5654  0.1531 -1.0491
  111OSM   H13C11463   3.736   4.246  10.820  0.7891  0.7084 -0.6132
  111OSM    C1211464   3.987   4.185  10.838  0.1863 -0.2522  0.4505
  111OSM   H12A11465   4.079   4.147  10.879 -0.3429 -3.2571 -0.8561
  111OSM   H12B11466   4.027   4.267  10.780 -0.8733 -1.1723 -1.7116
  111OSM    C1111467   3.926   4.084  10.733  0.0390 -0.6690  0.0080
  111OSM   H11A11468   3.996   4.073  10.646  1.1963 -0.3174  0.8664
  111OSM   H11B11469   3.843   4.128  10.675  0.1398  0.1032  0.4401
  111OSM      P11470   4.000   3.870  10.861 -0.1257  0.3216  0.0367
  111OSM    O1311471   4.102   3.949  10.935  0.0899  0.1175  0.1650
  111OSM    O1411472   3.933   3.754  10.934  0.3257  0.4114  0.2384
  111OSM    O1111473   4.067   3.814  10.729 -0.6310  0.1804 -0.1051
  111OSM    O1211474   3.894   3.962  10.796  0.0233  0.7702 -0.2018
  111OSM    C1S11475   4.201   3.769  10.717 -0.7987  0.3228  0.0479
  111OSM    H1S11476   4.220   3.690  10.792  1.6186 -1.4060 -2.2227
  111OSM    H1T11477   4.277   3.848  10.734 -0.3045 -0.5824  2.3168
  111OSM     NF11478   4.350   3.623  10.594 -0.3492 -0.4079  0.4451
  111OSM    HNF11479   4.438   3.670  10.595 -0.5536 -0.0268  0.8548
  111OSM    C2S11480   4.232   3.713  10.578 -0.4975 -0.4400 -0.1543
  111OSM    H2S11481   4.148   3.654  10.536  0.0910 -0.0120 -2.0210
  111OSM    C3S11482   4.244   3.830  10.477  0.0934  0.2680 -0.3342
  111OSM    H3S11483   4.331   3.897  10.495 -0.1281  1.0107 -1.9153
  111OSM     O311484   4.131   3.917  10.474 -0.3232  1.4021 -0.0419
  111OSM    HO311485   4.090   3.900  10.559 -1.7138 -0.6215 -1.0429
  111OSM    C4S11486   4.263   3.762  10.339 -0.0067 -0.5133 -0.0193
  111OSM    H4S11487   4.361   3.719  10.315 -0.3013 -0.6811 -0.9646
  111OSM    C5S11488   4.158   3.754  10.245  0.4109  0.1411 -0.1629
  111OSM    H5S11489   4.060   3.802  10.260  1.6506  2.9791 -0.3657
  111OSM    C6S11490   4.172   3.705  10.105 -0.7253  0.2004  0.3378
  111OSM    H6S11491   4.130   3.771  10.026  0.7499  1.6694  0.7145
  111OSM    H6T11492   4.097   3.624  10.098  0.1879 -0.7811  1.5911
  111OSM    C7S11493   4.311   3.652  10.058 -0.7162  0.0811  0.1946
  111OSM    H7S11494   4.356   3.595  10.142 -1.7699 -0.0371  0.6987
  111OSM    H7T11495   4.365   3.749  10.052 -1.2514  0.4353  0.9234
  111OSM    C8S11496   4.320   3.576   9.923 -0.4715 -0.8309 -0.0538
  111OSM    H8S11497   4.257   3.486   9.939 -0.8781 -0.6514 -0.6047
  111OSM    H8T11498   4.428   3.547   9.919  0.4636  2.3323 -3.2857
  111OSM    C9S11499   4.275   3.652   9.800 -0.3659  0.4059  0.3008
  111OSM    H9S11500   4.350   3.732   9.780 -0.6607  0.5728 -0.1514
  111OSM    H9T11501   4.174   3.697   9.812 -0.1046  0.7765  1.2429
  111OSM   C10S11502   4.300   3.558   9.682  0.4989 -0.0063  0.2484
  111OSM   H10S11503   4.275   3.451   9.698 -0.6107  0.1805 -0.1067
  111OSM   H10T11504   4.410   3.547   9.685  0.2180 -6.4769  0.6715
  111OSM   C11S11505   4.231   3.615   9.556 -0.4772  0.2829 -0.1931
  111OSM   H11S11506   4.307   3.630   9.477  0.8810  0.8166  1.1674
  111OSM   H11T11507   4.190   3.716   9.579  0.5542  0.4094  1.2594
  111OSM   C12S11508   4.128   3.527   9.486  0.1852  0.5014  0.2051
  111OSM   H12S11509   4.072   3.605   9.430 -1.3202  0.3107  1.3670
  111OSM   H12T11510   4.059   3.485   9.563  1.9689 -0.9991  1.0612
  111OSM   C13S11511   4.178   3.430   9.383 -0.0592  0.0134  0.2426
  111OSM   H13S11512   4.243   3.352   9.428  0.0557 -0.4938 -0.7659
  111OSM   H13T11513   4.242   3.477   9.305 -0.2838 -0.2702 -0.1159
  111OSM   C14S11514   4.082   3.340   9.302  0.2759 -0.0824  0.0979
  111OSM   H14S11515   3.993   3.388   9.255  0.0468 -1.9048 -1.4695
  111OSM   H14T11516   4.049   3.270   9.382  1.1189  0.1736  0.6802
  111OSM   C15S11517   4.150   3.239   9.216 -0.7930  0.4275  0.1387
  111OSM   H15S11518   4.232   3.200   9.280  0.7151  2.7293 -0.2944
  111OSM   H15T11519   4.178   3.277   9.115  0.2577  1.2560  0.7277
  111OSM   C16S11520   4.058   3.124   9.182  0.3422  0.6296 -0.7601
  111OSM   H16S11521   3.990   3.160   9.102 -0.3926 -1.3068 -1.0668
  111OSM   H16T11522   4.002   3.089   9.271  3.1605 -0.9178  0.5324
  111OSM   C17S11523   4.137   3.006   9.122 -0.5543  0.3261  0.1763
  111OSM   H17S11524   4.214   2.957   9.184  1.0903 -0.8642 -2.6172
  111OSM   H17T11525   4.188   3.053   9.035 -2.2720  0.8872 -0.5821
  111OSM   C18S11526   4.046   2.899   9.072  0.7722  0.5917 -0.1781
  111OSM   H18S11527   3.999   2.856   9.163 -0.7316  1.4559 -0.5103
  111OSM   H18T11528   4.094   2.821   9.009 -0.4320 -0.2987 -0.0231
  111OSM   H18U11529   3.960   2.943   9.018  1.4955  2.1758 -0.1191
  111OSM    C1F11530   4.346   3.496  10.631  0.2033  0.2988 -0.3462
  111OSM     OF11531   4.235   3.433  10.645 -0.5518 -0.4980  0.3086
  111OSM    C2F11532   4.479   3.428  10.656 -0.4422 -0.4576  0.2042
  111OSM    H2F11533   4.480   3.392  10.761  0.9516 -3.7591 -0.8109
  111OSM    H2G11534   4.556   3.507  10.639 -2.0192  1.1357  0.1242
  111OSM    C3F11535   4.518   3.309  10.578 -0.0263  0.0387  0.2240
  111OSM    H3F11536   4.448   3.225  10.592 -1.4650  1.1093 -0.2897
  111OSM    H3G11537   4.617   3.277  10.617  0.3321  1.4734  0.5616
  111OSM    C4F11538   4.536   3.347  10.430  0.2245  0.2177  1.3846
  111OSM    H4F11539   4.630   3.401  10.408  0.2257 -0.1372  0.4763
  111OSM    H4G11540   4.461   3.417  10.387 -1.6909 -1.5551  1.6245
  111OSM    C5F11541   4.515   3.220  10.334 -0.6774 -0.3542 -0.5833
  111OSM    H5F11542   4.411   3.181  10.342 -1.2912  1.1368 -0.9984
  111OSM    H5G11543   4.587   3.138  10.357 -1.7350 -0.8079  1.2704
  111OSM    C6F11544   4.544   3.258  10.184 -0.2616  0.3232 -0.4077
  111OSM    H6F11545   4.638   3.317  10.183 -0.6479  1.1356  2.4526
  111OSM    H6G11546   4.463   3.320  10.138  1.1571  1.8669 -0.9165
  111OSM    C7F11547   4.555   3.130  10.100  0.2835 -0.5968 -0.1084
  111OSM    H7F11548   4.465   3.068  10.124  0.1075 -1.8296 -3.3614
  111OSM    H7G11549   4.646   3.084  10.143 -0.4765 -0.7872  1.3657
  111OSM    C8F11550   4.572   3.151   9.952  0.0570 -0.3015 -0.0200
  111OSM    H8F11551   4.597   3.055   9.901 -1.1560  0.4424 -2.1407
  111OSM    H8G11552   4.653   3.225   9.934  0.3346 -0.7226 -0.5822
  111OSM    C9F11553   4.444   3.207   9.892  0.0571 -0.0390 -0.5094
  111OSM    H9F11554   4.404   3.298   9.940 -1.6249 -0.7837 -0.4028
  111OSM   C10F11555   4.385   3.153   9.785 -0.7026 -0.3705  0.7094
  111OSM   H10F11556   4.295   3.197   9.740  0.3895  0.8527 -0.3680
  111OSM   C11F11557   4.427   3.035   9.697 -0.0444  0.6050 -0.4234
  111OSM   H11F11558   4.351   2.955   9.710  1.9814 -1.0387  2.1353
  111OSM   H11G11559   4.515   2.982   9.738 -0.4070 -0.6714 -1.2610
  111OSM   C12F11560   4.449   3.073   9.552  0.2715 -0.6522  0.4007
  111OSM   H12F11561   4.519   3.159   9.554 -0.0849 -0.3600  1.1496
  111OSM   H12G11562   4.356   3.115   9.509  0.6811 -1.6384 -1.5171
  111OSM   C13F11563   4.490   2.945   9.462 -0.5491 -0.1893 -0.3195
  111OSM   H13F11564   4.412   2.868   9.483  0.0673 -0.5878  0.6127
  111OSM   H13G11565   4.589   2.910   9.498 -0.5590 -0.4982 -0.5854
  111OSM   C14F11566   4.499   2.979   9.314 -0.3189  0.0276 -0.0009
  111OSM   H14F11567   4.580   3.054   9.298  0.1503 -0.7160 -1.2935
  111OSM   H14G11568   4.403   3.025   9.281 -0.1581  0.5883  0.3064
  111OSM   C15F11569   4.532   2.868   9.216  0.6633  0.6670 -0.2449
  111OSM   H15F11570   4.449   2.795   9.203  1.1875 -0.1031  0.6288
  111OSM   H15G11571   4.621   2.810   9.247  0.1069  0.9785  2.1221
  111OSM   C16F11572   4.559   2.935   9.076 -0.2921  0.4905 -0.5389
  111OSM   H16F11573   4.642   3.006   9.098 -0.1010 -0.1311  0.8660
  111OSM   H16G11574   4.468   2.983   9.034 -0.8703 -0.6499 -0.6244
  111OSM   C17F11575   4.619   2.842   8.968 -0.3671  0.4096  0.2103
  111OSM   H17F11576   4.685   2.762   9.009 -0.3993  1.2282  1.9841
  111OSM   H17G11577   4.678   2.907   8.899  1.3005 -1.3593 -0.1312
  111OSM   C18F11578   4.510   2.777   8.887  0.0583 -0.0801 -1.0072
  111OSM   H18F11579   4.426   2.848   8.868 -0.0160  0.6443  1.6168
  111OSM   H18G11580   4.463   2.691   8.941  0.0973  1.5238  1.8014
  111OSM   H18H11581   4.544   2.735   8.790 -0.0850  1.0875 -1.5749
  112OSM      N11582   5.396   0.986  11.542  0.3175  0.0199  0.0531
  112OSM    C1511583   5.402   0.873  11.440  0.0954 -0.2572 -0.2132
  112OSM   H15A11584   5.452   0.903  11.349  0.3465  0.1151  0.0440
  112OSM   H15B11585   5.303   0.844  11.410  0.1964 -1.2840  0.4080
  112OSM   H15C11586   5.459   0.787  11.473  1.8780  1.5080  1.6844
  112OSM    C1411587   5.296   0.945  11.646  0.2437  0.1447 -0.0847
  112OSM   H14A11588   5.336   0.858  11.695  2.8727  1.4580  0.2819
  112OSM   H14B11589   5.201   0.918  11.601  0.7090  0.9674 -1.6230
  112OSM   H14C11590   5.287   1.026  11.717  1.2553 -0.6252  0.9481
  112OSM    C1311591   5.535   1.017  11.599  0.6387  0.2698 -0.6090
  112OSM   H13A11592   5.600   1.068  11.530  3.9356 -0.6194  1.6254
  112OSM   H13B11593   5.579   0.923  11.631 -0.2512 -0.1461 -0.5610
  112OSM   H13C11594   5.527   1.083  11.684 -1.8365  1.5622 -1.7469
  112OSM    C1211595   5.338   1.099  11.468  0.2799 -0.5623 -0.4810
  112OSM   H12A11596   5.320   1.177  11.540 -0.2506 -3.1783  2.4495
  112OSM   H12B11597   5.238   1.073  11.434  0.1391  1.1638 -1.5178
  112OSM    C1111598   5.415   1.167  11.357 -0.3914 -0.1195 -0.5312
  112OSM   H11A11599   5.520   1.168  11.393 -0.8996  0.9513  1.0395
  112OSM   H11B11600   5.383   1.273  11.343 -0.4207 -0.4589 -4.0273
  112OSM      P11601   5.269   1.113  11.146 -0.5496  0.0453 -0.2403
  112OSM    O1311602   5.277   1.009  11.042 -0.0786 -0.9571 -0.5631
  112OSM    O1411603   5.148   1.115  11.229 -0.1991 -0.3993 -0.2421
  112OSM    O1111604   5.286   1.260  11.085 -0.2116  0.1395 -0.2794
  112OSM    O1211605   5.399   1.084  11.238  0.3514  0.0737 -0.1584
  112OSM    C1S11606   5.407   1.289  11.009  0.5424  0.2231 -0.1093
  112OSM    H1S11607   5.500   1.260  11.061  0.6149  0.8520  0.1207
  112OSM    H1T11608   5.409   1.398  10.989  0.4344  0.1929 -0.2987
  112OSM     NF11609   5.527   1.267  10.800  0.1785  0.7966 -0.1624
  112OSM    HNF11610   5.532   1.348  10.743  0.0306  1.1852  0.3758
  112OSM    C2S11611   5.398   1.234  10.862 -0.2567 -0.3749 -0.3654
  112OSM    H2S11612   5.389   1.123  10.869 -1.7352 -0.1694  2.4803
  112OSM    C3S11613   5.273   1.287  10.787  0.0382 -0.2746 -0.1125
  112OSM    H3S11614   5.275   1.398  10.786  2.0113 -0.2678  0.6227
  112OSM     O311615   5.148   1.235  10.841 -0.3129  0.6961  0.0496
  112OSM    HO311616   5.193   1.194  10.915 -1.1652  1.0604  0.7826
  112OSM    C4S11617   5.283   1.222  10.649  0.0397 -0.3064  0.2019
  112OSM    H4S11618   5.234   1.124  10.638  0.4526 -0.4493 -0.3662
  112OSM    C5S11619   5.346   1.262  10.533  0.1856 -0.7135 -0.3423
  112OSM    H5S11620   5.395   1.361  10.528 -0.0254 -0.6296 -0.7119
  112OSM    C6S11621   5.340   1.185  10.401 -0.3341  0.0002  0.5475
  112OSM    H6S11622   5.410   1.234  10.331 -0.2861 -0.4511  0.2776
  112OSM    H6T11623   5.239   1.196  10.356  1.2163  0.5176 -3.1591
  112OSM    C7S11624   5.370   1.033  10.422 -0.4797 -0.1935  0.9275
  112OSM    H7S11625   5.286   0.998  10.486 -1.0695 -0.7294 -0.1003
  112OSM    H7T11626   5.470   1.028  10.469 -0.0626 -0.0984  0.0751
  112OSM    C8S11627   5.371   0.950  10.290 -0.0972 -0.6705 -0.2472
  112OSM    H8S11628   5.383   0.842  10.315 -1.4233 -0.5780  0.9736
  112OSM    H8T11629   5.462   0.978  10.234 -0.6566  2.5598  0.2564
  112OSM    C9S11630   5.254   0.960  10.196  0.1528 -0.1635 -0.0476
  112OSM    H9S11631   5.217   1.064  10.182  1.0126 -0.0819 -2.0027
  112OSM    H9T11632   5.164   0.910  10.238 -0.2493  1.2505  0.8708
  112OSM   C10S11633   5.291   0.896  10.061  0.1365 -0.0912 -0.6272
  112OSM   H10S11634   5.361   0.810  10.071 -1.1500 -1.2670 -1.3841
  112OSM   H10T11635   5.350   0.977  10.013  3.7503 -0.9180  1.9927
  112OSM   C11S11636   5.166   0.858   9.976  0.3085 -0.0378  0.4655
  112OSM   H11S11637   5.124   0.957   9.948  2.4363  0.6323 -0.5525
  112OSM   H11T11638   5.106   0.796  10.046  0.6146  1.2769  1.9519
  112OSM   C12S11639   5.202   0.784   9.846  0.4838 -0.4303 -0.9775
  112OSM   H12S11640   5.108   0.729   9.823  0.5166 -1.0034  0.1830
  112OSM   H12T11641   5.267   0.700   9.879 -0.8409 -1.1421 -0.0934
  112OSM   C13S11642   5.250   0.864   9.726  0.4707  0.0451  0.2095
  112OSM   H13S11643   5.347   0.914   9.746  0.2743  0.9458 -0.9551
  112OSM   H13T11644   5.179   0.946   9.702 -0.2874 -0.9522 -1.0392
  112OSM   C14S11645   5.263   0.773   9.608 -0.9921  0.5875  0.4020
  112OSM   H14S11646   5.195   0.686   9.613  2.0460 -1.9730  0.0734
  112OSM   H14T11647   5.369   0.743   9.620 -0.5926  1.9930  0.5346
  112OSM   C15S11648   5.262   0.855   9.476  0.0290  0.7507 -0.6406
  112OSM   H15S11649   5.316   0.950   9.496  2.5675 -1.1773  2.4824
  112OSM   H15T11650   5.154   0.876   9.456 -0.1244 -1.3414 -2.3800
  112OSM   C16S11651   5.316   0.794   9.347 -0.4129  0.6247  0.7324
  112OSM   H16S11652   5.255   0.702   9.337  0.3683  0.0831  0.8534
  112OSM   H16T11653   5.419   0.753   9.361 -0.8624 -0.5927  0.6170
  112OSM   C17S11654   5.303   0.887   9.222  0.0012  0.5492 -0.2656
  112OSM   H17S11655   5.376   0.846   9.149 -0.4232 -0.5693 -0.0799
  112OSM   H17T11656   5.331   0.993   9.241  2.4327 -0.4562  2.2550
  112OSM   C18S11657   5.162   0.887   9.160 -0.0954  0.4668 -0.7727
  112OSM   H18S11658   5.105   0.927   9.245  1.1812 -0.0710  0.3843
  112OSM   H18T11659   5.120   0.786   9.139  0.7716 -0.1490  0.3385
  112OSM   H18U11660   5.157   0.965   9.081  0.4144  0.8499 -0.4345
  112OSM    C1F11661   5.637   1.196  10.829  0.4473 -0.4396  0.6275
  112OSM     OF11662   5.637   1.101  10.906 -0.5103 -0.4634  0.2724
  112OSM    C2F11663   5.758   1.242  10.749  0.0176  0.2084  0.1868
  112OSM    H2F11664   5.816   1.313  10.813 -0.4803  1.4493 -0.7083
  112OSM    H2G11665   5.722   1.308  10.667  1.1223  2.1055  1.1359
  112OSM    C3F11666   5.855   1.129  10.699 -0.2098 -0.3135  0.2949
  112OSM    H3F11667   5.916   1.089  10.782  4.0554 -0.3587 -2.5406
  112OSM    H3G11668   5.929   1.174  10.628 -0.8983 -0.1619 -0.3477
  112OSM    C4F11669   5.782   1.018  10.619 -0.3639 -0.4384 -0.0233
  112OSM    H4F11670   5.693   1.072  10.582 -1.2040 -1.8640 -0.1252
  112OSM    H4G11671   5.748   0.935  10.684  0.4572 -1.3226 -0.7060
  112OSM    C5F11672   5.847   0.964  10.496 -0.3802  0.4648 -0.7889
  112OSM    H5F11673   5.946   0.920  10.522  0.0409  1.8999  0.1567
  112OSM    H5G11674   5.853   1.039  10.414 -1.4570  0.4971 -0.8472
  112OSM    C6F11675   5.749   0.857  10.435 -0.2210 -1.0374  0.2531
  112OSM    H6F11676   5.654   0.909  10.410 -0.3534 -1.4118 -0.0322
  112OSM    H6G11677   5.716   0.781  10.509 -1.0137 -1.8030 -0.8684
  112OSM    C7F11678   5.799   0.789  10.304  0.3291  0.3818  0.3663
  112OSM    H7F11679   5.767   0.683  10.293 -0.2945  0.6678 -0.7683
  112OSM    H7G11680   5.909   0.777  10.314  0.3002  0.8598  1.4195
  112OSM    C8F11681   5.777   0.883  10.180 -0.0700 -0.0990 -0.5245
  112OSM    H8F11682   5.832   0.977  10.197  0.4001 -0.5730  0.6833
  112OSM    H8G11683   5.672   0.920  10.182 -0.2590 -0.6544  0.1775
  112OSM    C9F11684   5.794   0.822  10.044 -0.2737 -0.1623 -0.7213
  112OSM    H9F11685   5.800   0.712  10.044  0.3482 -0.1348 -1.1455
  112OSM   C10F11686   5.797   0.887   9.927  0.9956 -0.8006  0.7526
  112OSM   H10F11687   5.800   0.824   9.836 -2.5371 -0.6126  0.3632
  112OSM   C11F11688   5.770   1.039   9.905 -0.0560 -0.0160 -0.3750
  112OSM   H11F11689   5.859   1.080   9.853 -1.0973  1.5733 -0.9752
  112OSM   H11G11690   5.750   1.088  10.003 -1.6414 -1.9754  0.3554
  112OSM   C12F11691   5.649   1.057   9.813 -0.0081 -0.5214 -0.3201
  112OSM   H12F11692   5.640   1.168   9.812  1.0188 -0.3642  2.1361
  112OSM   H12G11693   5.559   1.023   9.869 -0.9291  0.2902 -1.2682
  112OSM   C13F11694   5.647   1.001   9.676 -0.4322 -0.1049  0.4389
  112OSM   H13F11695   5.557   1.027   9.615  0.6901  1.9054 -0.4531
  112OSM   H13G11696   5.645   0.890   9.684 -1.2454 -0.2111 -0.8864
  112OSM   C14F11697   5.775   1.055   9.593 -0.3810 -0.4911 -0.2669
  112OSM   H14F11698   5.868   1.031   9.648 -1.0521 -0.8280  0.7547
  112OSM   H14G11699   5.770   1.166   9.595 -1.0994 -0.5350  0.9825
  112OSM   C15F11700   5.801   1.000   9.456  0.0261  0.5345  0.3854
  112OSM   H15F11701   5.801   0.889   9.462  1.1111  0.2729 -2.7444
  112OSM   H15G11702   5.899   1.031   9.414  0.3155 -2.1373 -1.1850
  112OSM   C16F11703   5.695   1.035   9.341  0.5168  0.3144 -0.5706
  112OSM   H16F11704   5.699   1.141   9.309  0.8514  1.1125  1.8984
  112OSM   H16G11705   5.593   1.023   9.384  1.8571 -1.9545  2.3528
  112OSM   C17F11706   5.692   0.959   9.207 -0.1375  0.4428  0.2100
  112OSM   H17F11707   5.611   0.992   9.139  0.8966  0.7744 -0.9093
  112OSM   H17G11708   5.673   0.851   9.227  0.9500 -0.1593 -1.7543
  112OSM   C18F11709   5.832   0.940   9.134  0.4277 -0.0921  0.1914
  112OSM   H18F11710   5.813   0.878   9.044 -0.7134  1.7682 -0.9163
  112OSM   H18G11711   5.900   0.879   9.197  2.6850  1.5703 -0.5178
  112OSM   H18H11712   5.887   1.030   9.100 -2.9477  1.2233 -2.3360
  113OSM      N11713   1.793   4.842  11.304 -0.1278  0.4148 -0.9265
  113OSM    C1511714   1.884   4.725  11.341 -0.2794 -0.0518  0.3190
  113OSM   H15A11715   1.979   4.741  11.293  0.7553 -0.1891  2.1894
  113OSM   H15B11716   1.836   4.633  11.310 -3.2207 -0.4319  4.9831
  113OSM   H15C11717   1.907   4.717  11.447 -0.1050  2.9821  0.5807
  113OSM    C1411718   1.660   4.815  11.360 -0.0120 -0.5790 -0.0599
  113OSM   H14A11719   1.672   4.815  11.467  0.2456 -1.9265 -0.0684
  113OSM   H14B11720   1.623   4.723  11.318  0.7965 -1.0243  0.1802
  113OSM   H14C11721   1.591   4.893  11.330  1.6020 -0.3595 -3.8021
  113OSM    C1311722   1.858   4.961  11.368 -0.1221 -0.8018 -0.3981
  113OSM   H13A11723   1.952   4.978  11.318  0.3403 -0.5176  0.5412
  113OSM   H13B11724   1.878   4.944  11.473 -1.1574  0.1164 -0.0269
  113OSM   H13C11725   1.779   5.035  11.361 -1.3698 -1.7911  1.8811
  113OSM    C1211726   1.795   4.866  11.155 -0.0999  0.0356  0.2696
  113OSM   H12A11727   1.776   4.972  11.146  0.0929  0.0948  0.5572
  113OSM   H12B11728   1.717   4.809  11.105 -0.3456  0.0333  0.6522
  113OSM    C1111729   1.932   4.849  11.075 -0.1001 -0.0956  0.0954
  113OSM   H11A11730   1.912   4.860  10.966  0.6106  4.6365  0.2677
  113OSM   H11B11731   1.964   4.744  11.094  0.5933  0.1685  0.4068
  113OSM      P11732   2.061   5.092  11.066  0.2232  0.4082 -0.1779
  113OSM    O1311733   1.936   5.155  11.045 -0.1589 -0.3805 -0.3097
  113OSM    O1411734   2.156   5.153  11.159  0.7143 -0.2224 -0.1678
  113OSM    O1111735   2.123   5.066  10.929  0.3604 -0.9747  0.3999
  113OSM    O1211736   2.036   4.943  11.111  0.0197 -0.4898  0.0980
  113OSM    C1S11737   2.256   5.015  10.910 -0.8940  0.4913  0.7477
  113OSM    H1S11738   2.256   4.907  10.935 -0.3354  0.1895 -0.4624
  113OSM    H1T11739   2.338   5.057  10.972  0.7234  2.4801 -2.4745
  113OSM     NF11740   2.427   4.952  10.723  0.0176 -0.5092 -0.1956
  113OSM    HNF11741   2.511   5.006  10.718  0.9671 -1.9640 -0.5328
  113OSM    C2S11742   2.304   5.027  10.758  0.3535  0.1489 -0.5055
  113OSM    H2S11743   2.223   4.976  10.702  0.2163 -1.1566  0.8088
  113OSM    C3S11744   2.302   5.170  10.706  0.4341  0.3628  0.4340
  113OSM    H3S11745   2.391   5.217  10.754  1.0574 -1.6517  1.4046
  113OSM     O311746   2.190   5.247  10.750 -0.4732  0.3407 -0.0398
  113OSM    HO311747   2.140   5.193  10.811 -0.4979 -0.6321 -0.9001
  113OSM    C4S11748   2.319   5.167  10.553 -0.6267 -0.3902  0.0197
  113OSM    H4S11749   2.423   5.145  10.526 -1.4183 -1.8825 -2.0300
  113OSM    C5S11750   2.228   5.206  10.463  0.0050 -0.0480  0.0966
  113OSM    H5S11751   2.126   5.231  10.496 -0.2395 -1.0438  0.1131
  113OSM    C6S11752   2.248   5.216  10.309  0.5547 -0.3899 -0.5396
  113OSM    H6S11753   2.256   5.322  10.275  2.1955  0.3186  1.8139
  113OSM    H6T11754   2.159   5.173  10.258  0.8563 -1.1977 -0.3976
  113OSM    C7S11755   2.361   5.130  10.250 -0.0115  0.5329 -0.6237
  113OSM    H7S11756   2.376   5.034  10.303  1.3107  0.4023 -1.1785
  113OSM    H7T11757   2.463   5.169  10.271  0.2915  0.1630 -1.3504
  113OSM    C8S11758   2.347   5.106  10.102 -0.1360 -0.6358  0.1788
  113OSM    H8S11759   2.246   5.067  10.079  0.3557 -1.9395  0.1932
  113OSM    H8T11760   2.417   5.032  10.059 -1.5909 -1.5349 -0.7089
  113OSM    C9S11761   2.361   5.243  10.029 -0.2508  0.9412  0.1798
  113OSM    H9S11762   2.449   5.296  10.070  0.8080 -0.3479 -0.3604
  113OSM    H9T11763   2.275   5.304  10.063 -2.1891 -0.5253 -1.7946
  113OSM   C10S11764   2.355   5.235   9.875  0.0826 -0.1217 -1.0462
  113OSM   H10S11765   2.246   5.227   9.855 -0.3277  0.8603  0.6278
  113OSM   H10T11766   2.408   5.142   9.845 -1.6836 -1.0493 -1.4133
  113OSM   C11S11767   2.401   5.364   9.804  0.4835  0.3059  0.0031
  113OSM   H11S11768   2.509   5.343   9.795  0.2856 -1.9382  1.7100
  113OSM   H11T11769   2.379   5.459   9.857  0.2016 -1.4059  3.2424
  113OSM   C12S11770   2.349   5.371   9.659 -0.1376  0.2727  0.0475
  113OSM   H12S11771   2.243   5.398   9.681  0.1145  0.9651  0.4321
  113OSM   H12T11772   2.362   5.277   9.600  3.9981  1.1572 -0.7095
  113OSM   C13S11773   2.422   5.472   9.565  0.5832 -0.0702  0.4310
  113OSM   H13S11774   2.533   5.463   9.569  0.7544  1.2444 -0.7727
  113OSM   H13T11775   2.398   5.576   9.593 -0.1753  0.6787 -2.6463
  113OSM   C14S11776   2.382   5.454   9.418  0.9124 -0.4061 -0.0920
  113OSM   H14S11777   2.418   5.527   9.343 -2.7936 -1.3955 -3.1859
  113OSM   H14T11778   2.271   5.450   9.410  0.6086 -2.9818  3.0929
  113OSM   C15S11779   2.428   5.320   9.367  0.4871 -0.3709  0.8425
  113OSM   H15S11780   2.342   5.253   9.385 -0.8928  0.9381 -0.5081
  113OSM   H15T11781   2.518   5.271   9.410 -0.6264 -2.7183  0.6148
  113OSM   C16S11782   2.456   5.313   9.217 -0.5455  0.0445  0.3443
  113OSM   H16S11783   2.477   5.208   9.185 -1.8889 -0.3277  0.6012
  113OSM   H16T11784   2.549   5.369   9.196  0.0316 -1.7876 -2.5298
  113OSM   C17S11785   2.352   5.383   9.116 -0.6135  0.5361  0.5877
  113OSM   H17S11786   2.393   5.358   9.015 -0.5812 -0.5141  0.8518
  113OSM   H17T11787   2.358   5.492   9.135 -2.3930  0.7143  0.2186
  113OSM   C18S11788   2.213   5.328   9.136  0.3452 -0.1063  0.6075
  113OSM   H18S11789   2.202   5.223   9.101 -2.3583 -0.2726  1.7323
  113OSM   H18T11790   2.140   5.380   9.071 -2.1006 -2.5622  1.2147
  113OSM   H18U11791   2.182   5.350   9.240 -0.2798  0.1975  0.3593
  113OSM    C1F11792   2.435   4.820  10.717 -0.8661  0.4708  0.1813
  113OSM     OF11793   2.342   4.748  10.753  0.0949  0.3519  0.2610
  113OSM    C2F11794   2.570   4.762  10.688  0.4145  0.3591  0.0414
  113OSM    H2F11795   2.613   4.693  10.765  0.5476  1.7273  1.2417
  113OSM    H2G11796   2.640   4.848  10.678  0.6881  0.0703 -0.6070
  113OSM    C3F11797   2.575   4.693  10.546 -0.2874 -0.4319 -0.0965
  113OSM    H3F11798   2.501   4.611  10.544 -0.4282 -0.3315  0.7064
  113OSM    H3G11799   2.672   4.639  10.535  0.4951  0.6414  1.2077
  113OSM    C4F11800   2.550   4.787  10.428 -0.0106 -0.7203  0.0254
  113OSM    H4F11801   2.574   4.892  10.454  0.8322 -0.8683 -0.1025
  113OSM    H4G11802   2.440   4.790  10.413 -0.4041  2.0660  2.5080
  113OSM    C5F11803   2.611   4.728  10.305 -0.2503  0.6161  0.1467
  113OSM    H5F11804   2.591   4.619  10.302  0.6261  0.3600  1.9870
  113OSM    H5G11805   2.719   4.738  10.331 -0.4347  3.9112  0.0780
  113OSM    C6F11806   2.580   4.780  10.165  0.6295  0.1942  1.0133
  113OSM    H6F11807   2.532   4.879  10.180  0.2178 -0.0070  1.0417
  113OSM    H6G11808   2.508   4.717  10.109  0.5964  1.3144 -0.2583
  113OSM    C7F11809   2.703   4.806  10.072 -0.0455  0.8718 -0.9214
  113OSM    H7F11810   2.768   4.716  10.069  0.5462  1.1943  0.9332
  113OSM    H7G11811   2.772   4.879  10.120  0.8317  0.7503 -1.9549
  113OSM    C8F11812   2.665   4.869   9.941 -0.2657 -0.0390  0.8275
  113OSM    H8F11813   2.753   4.911   9.887 -0.1572 -1.5537 -0.2310
  113OSM    H8G11814   2.587   4.946   9.956  1.0578  0.8825  3.7310
  113OSM    C9F11815   2.605   4.764   9.848 -0.0072  0.7621  0.2979
  113OSM    H9F11816   2.555   4.677   9.893  1.6459 -0.9699 -1.0611
  113OSM   C10F11817   2.607   4.766   9.713  0.3595 -0.2025 -0.3561
  113OSM   H10F11818   2.564   4.687   9.649  0.3782 -0.1831 -0.3934
  113OSM   C11F11819   2.659   4.863   9.622  0.4117 -0.0583 -0.3646
  113OSM   H11F11820   2.690   4.806   9.532 -0.6561  0.9779 -1.4284
  113OSM   H11G11821   2.756   4.915   9.641  0.9737 -0.8564 -0.9958
  113OSM   C12F11822   2.568   4.980   9.579  0.2727  0.4120  0.0016
  113OSM   H12F11823   2.625   5.034   9.501 -2.2790  0.7181 -1.7619
  113OSM   H12G11824   2.548   5.066   9.647  0.7569  1.4104 -1.0851
  113OSM   C13F11825   2.431   4.944   9.507 -0.3887  0.4458  0.5388
  113OSM   H13F11826   2.371   5.028   9.467 -3.8709 -1.2947  1.6863
  113OSM   H13G11827   2.365   4.902   9.586 -2.3694  0.2074 -1.1599
  113OSM   C14F11828   2.443   4.825   9.408  0.2144 -0.3190 -0.7330
  113OSM   H14F11829   2.482   4.735   9.460  1.9047  1.0570  0.4956
  113OSM   H14G11830   2.534   4.842   9.346  1.0565 -0.5099  0.4217
  113OSM   C15F11831   2.331   4.818   9.306  0.1240 -0.1814 -0.4648
  113OSM   H15F11832   2.245   4.808   9.375 -0.0081  0.9552 -0.4316
  113OSM   H15G11833   2.342   4.724   9.249  0.0355 -1.6642  1.8117
  113OSM   C16F11834   2.316   4.940   9.209 -1.0591  0.0736  0.1390
  113OSM   H16F11835   2.407   4.951   9.146 -1.8546  2.0142 -0.7352
  113OSM   H16G11836   2.305   5.030   9.274  1.7518 -0.5453  1.6349
  113OSM   C17F11837   2.202   4.926   9.105 -0.5973 -0.0338 -0.1384
  113OSM   H17F11838   2.204   5.013   9.037 -1.1711  0.5861  0.6148
  113OSM   H17G11839   2.104   4.928   9.158 -1.0323  2.1469 -0.9276
  113OSM   C18F11840   2.223   4.793   9.023  0.2106 -0.7254  0.1472
  113OSM   H18F11841   2.196   4.705   9.085 -0.3124  0.0469  1.0426
  113OSM   H18G11842   2.324   4.786   8.979  0.4141 -0.7037  0.6106
  113OSM   H18H11843   2.159   4.796   8.931  1.5557  3.0776 -0.8712
  114OSM      N11844   4.784   0.855  11.287 -0.5103 -0.1232  0.0557
  114OSM    C1511845   4.689   0.738  11.295 -0.6191 -0.4449  0.0561
  114OSM   H15A11846   4.652   0.724  11.195 -0.9024 -1.5769  0.3101
  114OSM   H15B11847   4.608   0.760  11.363 -0.9005 -3.3464  0.7588
  114OSM   H15C11848   4.747   0.653  11.327 -0.5850 -0.1867  0.7055
  114OSM    C1411849   4.843   0.866  11.425 -0.4394  0.5597  0.5533
  114OSM   H14A11850   4.773   0.890  11.504  1.5882  0.5377  2.4360
  114OSM   H14B11851   4.926   0.934  11.429  0.2279 -0.2345  0.3573
  114OSM   H14C11852   4.890   0.777  11.464 -0.4259  0.2480 -0.1482
  114OSM    C1311853   4.899   0.835  11.194 -0.1154  0.0929  0.1858
  114OSM   H13A11854   4.958   0.752  11.230  1.9380  2.3485  2.3833
  114OSM   H13B11855   4.972   0.915  11.197 -0.7542  0.7151 -0.4396
  114OSM   H13C11856   4.861   0.814  11.095 -1.5087 -0.3545  0.7990
  114OSM    C1211857   4.704   0.984  11.244  0.0125 -0.0595  0.5455
  114OSM   H12A11858   4.686   0.992  11.138  0.2633  2.1410  0.6240
  114OSM   H12B11859   4.777   1.063  11.255 -1.0852  1.0522  0.0225
  114OSM    C1111860   4.573   1.026  11.312  0.8397 -0.2321 -0.1484
  114OSM   H11A11861   4.560   1.135  11.296  2.0603 -0.0886 -0.2639
  114OSM   H11B11862   4.594   1.019  11.420  0.6525 -0.1946 -0.1097
  114OSM      P11863   4.397   0.994  11.127 -0.1282  0.5416 -0.3905
  114OSM    O1311864   4.299   0.894  11.082 -0.0591  0.0276  0.8418
  114OSM    O1411865   4.351   1.132  11.140  0.7068  0.1933 -0.0057
  114OSM    O1111866   4.523   0.991  11.031 -0.3733  0.4085  0.4237
  114OSM    O1211867   4.460   0.944  11.264 -0.8903 -0.4673  0.3525
  114OSM    C1S11868   4.533   0.875  10.946  0.0550 -0.0059  0.1473
  114OSM    H1S11869   4.440   0.824  10.913  1.0637 -1.0150 -1.2912
  114OSM    H1T11870   4.591   0.790  10.987  0.6876 -0.3126 -1.2959
  114OSM     NF11871   4.619   0.800  10.722  0.0084  0.1304 -0.4971
  114OSM    HNF11872   4.714   0.771  10.716  0.7374  1.7596  1.6634
  114OSM    C2S11873   4.592   0.916  10.805  0.0873  0.0750 -0.8293
  114OSM    H2S11874   4.524   0.985  10.750  0.3221  1.9028  1.0278
  114OSM    C3S11875   4.721   0.997  10.815  0.0797 -0.1181  0.0166
  114OSM    H3S11876   4.799   0.941  10.870  0.3545  0.4495  0.2140
  114OSM     O311877   4.700   1.116  10.892 -0.5335 -0.0588 -0.4077
  114OSM    HO311878   4.632   1.094  10.955  2.1742  1.1257  3.2750
  114OSM    C4S11879   4.770   1.039  10.673  0.0259 -0.5969  1.0654
  114OSM    H4S11880   4.704   1.090  10.602 -1.1837 -3.1272  0.2638
  114OSM    C5S11881   4.893   1.003  10.632  0.1190  0.3086 -0.6986
  114OSM    H5S11882   4.966   0.966  10.707  1.1018 -0.4811 -1.9936
  114OSM    C6S11883   4.950   1.023  10.491 -0.2274 -0.1818 -0.4285
  114OSM    H6S11884   4.993   0.926  10.460 -0.2993 -0.5091  0.4609
  114OSM    H6T11885   5.027   1.103  10.495 -0.8739  0.4999 -1.1352
  114OSM    C7S11886   4.843   1.050  10.387  0.1778  0.6292  0.2155
  114OSM    H7S11887   4.784   1.143  10.401 -0.1679  0.3994  0.3075
  114OSM    H7T11888   4.770   0.966  10.377 -0.4426  1.2499 -0.6075
  114OSM    C8S11889   4.904   1.075  10.245  0.0883 -0.3462  0.0798
  114OSM    H8S11890   4.979   0.996  10.224 -0.0569 -0.2627 -0.7937
  114OSM    H8T11891   4.959   1.172  10.241  1.1697 -0.9900 -1.1455
  114OSM    C9S11892   4.793   1.079  10.142  0.0121  0.2760 -0.3454
  114OSM    H9S11893   4.719   1.159  10.164 -2.1956 -1.5089 -0.9543
  114OSM    H9T11894   4.738   0.983  10.136  0.1804  0.1165  0.5403
  114OSM   C10S11895   4.849   1.104   9.999 -0.1915  0.7031 -0.0589
  114OSM   H10S11896   4.929   1.029   9.980 -0.7139 -0.0540  0.6593
  114OSM   H10T11897   4.885   1.207   9.977 -3.0256  0.9990 -4.4369
  114OSM   C11S11898   4.755   1.062   9.884 -0.2370  0.0052  0.0431
  114OSM   H11S11899   4.657   1.106   9.913  0.3435  0.3600  1.5336
  114OSM   H11T11900   4.748   0.951   9.882  2.3778 -0.2121 -0.0288
  114OSM   C12S11901   4.812   1.110   9.747  0.0962  0.4365  0.0657
  114OSM   H12S11902   4.908   1.166   9.747 -0.4598  1.4109 -0.5988
  114OSM   H12T11903   4.737   1.177   9.699 -0.4014 -2.0276 -2.8293
  114OSM   C13S11904   4.827   0.999   9.645  0.0941  0.5981  0.8790
  114OSM   H13S11905   4.723   0.971   9.617 -0.7178  2.9641  1.3364
  114OSM   H13T11906   4.890   0.916   9.684  2.8398  1.4865 -1.3406
  114OSM   C14S11907   4.881   1.050   9.515  0.0558  0.7574 -0.1754
  114OSM   H14S11908   4.984   1.089   9.528 -0.4463  1.7125  1.1060
  114OSM   H14T11909   4.808   1.125   9.476 -0.4598  0.7807  0.8031
  114OSM   C15S11910   4.885   0.942   9.396  0.4235  0.1881  0.1128
  114OSM   H15S11911   4.964   0.870   9.426  1.0985  0.7508 -0.2649
  114OSM   H15T11912   4.927   1.019   9.328  0.4865  0.3815  0.3703
  114OSM   C16S11913   4.746   0.908   9.338 -0.1272 -0.3832 -0.0124
  114OSM   H16S11914   4.687   1.002   9.337  1.8789  0.9482  0.7359
  114OSM   H16T11915   4.691   0.849   9.414 -1.4600  1.3586  0.4135
  114OSM   C17S11916   4.762   0.847   9.194 -0.0265  0.1430 -0.6074
  114OSM   H17S11917   4.808   0.929   9.134  2.6492  0.1423  1.2805
  114OSM   H17T11918   4.663   0.830   9.146  0.2686 -1.8789 -0.6096
  114OSM   C18S11919   4.830   0.712   9.186  0.3338  0.2532  0.0052
  114OSM   H18S11920   4.931   0.714   9.232 -0.1430  0.4501  1.0859
  114OSM   H18T11921   4.826   0.666   9.085 -3.4205  1.0130 -0.3152
  114OSM   H18U11922   4.772   0.647   9.256 -0.7020  1.8331  0.6656
  114OSM    C1F11923   4.516   0.724  10.682  0.4737  1.1809  0.6646
  114OSM     OF11924   4.397   0.749  10.698  0.1508  0.0326 -0.1409
  114OSM    C2F11925   4.557   0.603  10.596  0.1604 -0.7323 -0.0552
  114OSM    H2F11926   4.638   0.549  10.650 -1.2064 -0.9953  1.8403
  114OSM    H2G11927   4.604   0.653  10.509 -0.3140  1.8344  1.0439
  114OSM    C3F11928   4.445   0.504  10.581 -0.1365 -0.4269 -0.1152
  114OSM    H3F11929   4.357   0.549  10.529 -0.3332 -1.7374 -0.9697
  114OSM    H3G11930   4.405   0.474  10.681  0.1810  2.4996  1.0130
  114OSM    C4F11931   4.491   0.386  10.502  0.3182 -0.5073 -0.6238
  114OSM    H4F11932   4.421   0.302  10.519 -0.9701  0.1673 -2.2462
  114OSM    H4G11933   4.590   0.347  10.534 -0.3251  0.1465  2.3990
  114OSM    C5F11934   4.499   0.417  10.350 -0.5827  0.1477 -0.4669
  114OSM    H5F11935   4.581   0.485  10.318  0.0357 -0.4137 -0.0931
  114OSM    H5G11936   4.409   0.472  10.315  0.9234  2.6616 -0.6688
  114OSM    C6F11937   4.509   0.291  10.262 -0.6065 -0.1793 -0.8832
  114OSM    H6F11938   4.410   0.241  10.268 -0.2651 -0.9931 -1.8511
  114OSM    H6G11939   4.588   0.225  10.306 -1.1863 -0.4254 -0.1907
  114OSM    C7F11940   4.549   0.323  10.117 -0.3033  0.3978 -1.0826
  114OSM    H7F11941   4.635   0.392  10.113 -0.8255  1.2229  0.6607
  114OSM    H7G11942   4.470   0.374  10.059 -0.7555 -1.5402 -2.2807
  114OSM    C8F11943   4.589   0.195  10.034 -0.3186  0.4221  0.1771
  114OSM    H8F11944   4.679   0.142  10.074 -0.0207  0.6594 -0.1683
  114OSM    H8G11945   4.614   0.218   9.928  0.1232 -0.5365  0.0613
  114OSM    C9F11946   4.483   0.092  10.041  0.7559  0.1138  0.6356
  114OSM    H9F11947   4.429   0.083  10.136 -1.4269  1.1664 -0.4581
  114OSM   C10F11948   4.441   0.022   9.931 -0.3990 -0.4444  0.4935
  114OSM   H10F11949   4.356  -0.048   9.938  0.1979 -1.4056 -1.0807
  114OSM   C11F11950   4.487   0.021   9.791  0.4951  0.5181  0.6123
  114OSM   H11F11951   4.554  -0.068   9.786  0.4068  0.4958 -0.3411
  114OSM   H11G11952   4.545   0.110   9.758  1.1755 -0.0993  0.1051
  114OSM   C12F11953   4.368  -0.001   9.690  0.5376  0.2730 -0.4781
  114OSM   H12F11954   4.305   0.090   9.686 -1.4682 -0.7183  3.5120
  114OSM   H12G11955   4.300  -0.084   9.717 -0.5623  0.2562 -3.0188
  114OSM   C13F11956   4.416  -0.023   9.547 -0.5501 -0.7101  0.1082
  114OSM   H13F11957   4.326  -0.050   9.488 -0.5416  1.0723 -0.7700
  114OSM   H13G11958   4.489  -0.107   9.544 -0.0788 -0.2971 -0.2772
  114OSM   C14F11959   4.468   0.104   9.481  0.3649  0.2098 -0.1028
  114OSM   H14F11960   4.556   0.147   9.533  0.3693  0.1761 -0.0823
  114OSM   H14G11961   4.390   0.184   9.478 -0.8380 -0.7849  2.2259
  114OSM   C15F11962   4.522   0.092   9.334 -0.3575  0.0421 -0.2177
  114OSM   H15F11963   4.596   0.013   9.312 -0.4621  0.7994 -3.8594
  114OSM   H15G11964   4.576   0.181   9.295  2.3311 -1.3273  0.2008
  114OSM   C16F11965   4.407   0.054   9.241 -0.1084 -0.6148  0.3719
  114OSM   H16F11966   4.336   0.140   9.235  0.1480 -0.5180 -2.6947
  114OSM   H16G11967   4.358  -0.038   9.279  0.2308 -1.1561 -0.4879
  114OSM   C17F11968   4.457   0.013   9.100 -0.0679 -0.0999 -0.3778
  114OSM   H17F11969   4.532  -0.067   9.115  1.2596  0.9084 -1.3017
  114OSM   H17G11970   4.528   0.086   9.054 -1.2221  0.7340 -0.8885
  114OSM   C18F11971   4.344  -0.039   9.011 -0.1239 -0.3420  0.4240
  114OSM   H18F11972   4.382  -0.090   8.920  2.7390  1.0106  0.7426
  114OSM   H18G11973   4.277   0.045   8.983  0.4822  1.1716  3.1675
  114OSM   H18H11974   4.279  -0.114   9.061  0.7128 -0.0056  2.0960
  115OSM      N11975   1.074   0.724  11.229 -0.4654  0.1365  0.2741
  115OSM    C1511976   1.022   0.737  11.371 -0.0428  0.2046 -0.3839
  115OSM   H15A11977   0.914   0.748  11.371 -0.2241 -1.3359 -1.3892
  115OSM   H15B11978   1.078   0.809  11.428  0.0076 -0.7288  0.7657
  115OSM   H15C11979   1.041   0.642  11.417  0.0655 -0.5767 -1.9596
  115OSM    C1411980   1.044   0.849  11.160 -0.3598 -0.0202 -0.1048
  115OSM   H14A11981   1.094   0.940  11.190 -3.2134  2.0176 -1.1506
  115OSM   H14B11982   0.938   0.867  11.173 -0.0808  0.9248  1.0871
  115OSM   H14C11983   1.061   0.841  11.054 -1.3777  1.4490 -0.4012
  115OSM    C1311984   1.220   0.698  11.230 -0.5038  0.7222 -0.2522
  115OSM   H13A11985   1.252   0.615  11.291 -2.1735  0.8802  0.8927
  115OSM   H13B11986   1.269   0.788  11.266 -0.3599  0.6950 -0.3758
  115OSM   H13C11987   1.257   0.684  11.129  2.6145  4.3454  0.1350
  115OSM    C1211988   1.008   0.607  11.169  0.0530 -0.3831 -0.4621
  115OSM   H12A11989   1.047   0.518  11.218 -0.9517 -0.3883  0.3684
  115OSM   H12B11990   1.048   0.601  11.069  0.1057  0.4971 -0.5033
  115OSM    C1111991   0.858   0.594  11.180  0.3105 -0.8425 -0.3781
  115OSM   H11A11992   0.820   0.570  11.282 -1.6801  0.8767 -0.6606
  115OSM   H11B11993   0.833   0.505  11.119 -2.2080 -0.6893  0.3235
  115OSM      P11994   0.633   0.688  11.124 -0.0879  0.3991 -0.0212
  115OSM    O1311995   0.584   0.661  11.257  0.0071  0.2737 -0.7782
  115OSM    O1411996   0.578   0.804  11.048  0.0342  0.8996 -0.2429
  115OSM    O1111997   0.604   0.558  11.041 -0.2201  0.1371 -0.2516
  115OSM    O1211998   0.793   0.706  11.132 -0.2302 -0.2345 -0.2875
  115OSM    C1S11999   0.577   0.551  10.899 -0.3441  0.0158 -0.1720
  115OSM    H1S12000   0.574   0.647  10.843  1.9427 -0.2062 -0.7713
  115OSM    H1T12001   0.473   0.521  10.872  0.0190  1.1639 -3.3949
  115OSM     NF12002   0.664   0.514  10.678 -0.6026 -0.3475  0.5112
  115OSM    HNF12003   0.601   0.451  10.634 -1.0897 -0.0626  0.7935
  115OSM    C2S12004   0.687   0.477  10.820  0.2838 -0.2581 -0.1852
  115OSM    H2S12005   0.790   0.507  10.848  0.6907  0.4202 -2.2626
  115OSM    C3S12006   0.679   0.323  10.857 -0.3084  0.0622  1.0062
  115OSM    H3S12007   0.583   0.274  10.828 -0.4015  1.1344 -0.6034
  115OSM     O312008   0.696   0.292  11.000  0.6911 -0.3783 -0.6409
  115OSM    HO312009   0.681   0.376  11.043  0.3671 -0.6644 -0.1868
  115OSM    C4S12010   0.797   0.258  10.787  0.1173  0.3351 -0.4547
  115OSM    H4S12011   0.891   0.288  10.835 -0.3408 -1.6786  1.9043
  115OSM    C5S12012   0.803   0.161  10.692 -0.3303  1.1581  0.2086
  115OSM    H5S12013   0.712   0.106  10.664  0.3407 -1.0873  2.0916
  115OSM    C6S12014   0.927   0.096  10.638  0.5254  0.8408 -0.4960
  115OSM    H6S12015   0.945   0.007  10.702 -0.1835  1.4193  0.5487
  115OSM    H6T12016   1.025   0.146  10.652  1.2933 -1.2962  2.7342
  115OSM    C7S12017   0.923   0.046  10.494 -0.0041 -0.3548 -0.0769
  115OSM    H7S12018   1.021  -0.006  10.484 -0.4810 -1.1552 -0.7304
  115OSM    H7T12019   0.931   0.131  10.423 -2.7135 -1.4553 -1.8884
  115OSM    C8S12020   0.814  -0.055  10.467 -0.1867 -0.3975 -0.0954
  115OSM    H8S12021   0.713  -0.015  10.490  0.0920  0.6363 -0.6486
  115OSM    H8T12022   0.832  -0.131  10.546  1.1778  0.1179  0.1098
  115OSM    C9S12023   0.806  -0.118  10.328 -0.3313 -0.4798  0.2203
  115OSM    H9S12024   0.722  -0.190  10.316  0.6083 -1.8245  1.3593
  115OSM    H9T12025   0.900  -0.177  10.316 -0.1104 -0.0254 -0.3476
  115OSM   C10S12026   0.784  -0.017  10.216  0.8751  0.0406  0.3875
  115OSM   H10S12027   0.849   0.072  10.228  2.0110 -0.8042  0.7123
  115OSM   H10T12028   0.677   0.013  10.221  1.2028  1.5680 -0.9078
  115OSM   C11S12029   0.829  -0.080  10.079  0.6443 -0.1052 -0.1576
  115OSM   H11S12030   0.777  -0.176  10.059  2.1751 -0.7524 -1.2066
  115OSM   H11T12031   0.933  -0.112  10.059  0.2972 -1.4247  0.0388
  115OSM   C12S12032   0.798   0.010   9.963  0.1367  0.3366 -0.6393
  115OSM   H12S12033   0.852   0.107   9.971  2.0692 -0.4201 -3.0142
  115OSM   H12T12034   0.690   0.031   9.959 -0.2043 -1.4397 -2.4586
  115OSM   C13S12035   0.838  -0.053   9.830  0.6707  0.2437 -1.2761
  115OSM   H13S12036   0.789  -0.153   9.823 -0.2753  0.5383  0.5820
  115OSM   H13T12037   0.946  -0.070   9.816  0.4865 -0.6793 -1.6127
  115OSM   C14S12038   0.797   0.039   9.717 -0.0899  0.9570 -0.0921
  115OSM   H14S12039   0.856   0.133   9.725  1.5475 -0.0192 -0.2500
  115OSM   H14T12040   0.686   0.046   9.727  0.0417  0.5968  2.2836
  115OSM   C15S12041   0.838  -0.014   9.576 -0.6211  0.2333 -0.1974
  115OSM   H15S12042   0.772  -0.101   9.559 -0.8009 -0.2392  2.5445
  115OSM   H15T12043   0.946  -0.040   9.576 -0.8614 -0.8638 -1.5073
  115OSM   C16S12044   0.816   0.101   9.479 -0.1961  0.0747 -0.2051
  115OSM   H16S12045   0.885   0.187   9.497  0.3182 -0.3738 -0.0338
  115OSM   H16T12046   0.711   0.139   9.483 -0.2763  0.0737 -1.6652
  115OSM   C17S12047   0.826   0.062   9.328  0.2268  0.1106 -0.4106
  115OSM   H17S12048   0.747  -0.014   9.312  0.2828  0.4109 -2.4305
  115OSM   H17T12049   0.919   0.013   9.292 -1.0045 -0.4904 -3.0020
  115OSM   C18S12050   0.798   0.186   9.238 -0.1491 -0.3355  0.0077
  115OSM   H18S12051   0.804   0.151   9.133  1.5284  0.5545 -0.2269
  115OSM   H18T12052   0.874   0.266   9.254 -1.1302  0.9575 -1.4396
  115OSM   H18U12053   0.695   0.226   9.256 -0.0793  0.4801 -1.2698
  115OSM    C1F12054   0.703   0.638  10.630 -1.2317 -0.1568  0.6139
  115OSM     OF12055   0.754   0.715  10.705 -0.7265 -0.1819 -0.4846
  115OSM    C2F12056   0.688   0.672  10.485  0.2027  0.3306 -0.5406
  115OSM    H2F12057   0.627   0.764  10.471 -0.0186  0.2267 -0.2774
  115OSM    H2G12058   0.621   0.598  10.437  0.5424 -0.0633 -0.4164
  115OSM    C3F12059   0.820   0.683  10.408 -0.4772  0.6891  0.1935
  115OSM    H3F12060   0.897   0.746  10.457  0.0572 -0.7088  1.2174
  115OSM    H3G12061   0.791   0.727  10.311 -2.5865  0.1214  0.5141
  115OSM    C4F12062   0.886   0.539  10.398  0.3476 -1.0537  0.0961
  115OSM    H4F12063   0.821   0.469  10.341  0.7287 -1.1563 -0.2142
  115OSM    H4G12064   0.896   0.507  10.504 -2.3504 -1.5106  0.2916
  115OSM    C5F12065   1.026   0.529  10.334  0.2745  0.1246 -0.6445
  115OSM    H5F12066   1.067   0.427  10.349 -0.8115 -0.0882  1.2066
  115OSM    H5G12067   1.092   0.600  10.389  0.3036  1.0788 -1.8559
  115OSM    C6F12068   1.026   0.574  10.194  0.5453 -0.5998  0.6476
  115OSM    H6F12069   1.129   0.576  10.152 -0.4064 -0.5188 -1.8418
  115OSM    H6G12070   0.981   0.675  10.187  1.7912 -0.0186  0.9120
  115OSM    C7F12071   0.947   0.492  10.097 -0.1330  0.2266 -0.3821
  115OSM    H7F12072   0.845   0.499  10.141 -0.8453  1.2271 -2.0875
  115OSM    H7G12073   0.982   0.386  10.104 -3.0247 -0.7328  0.8298
  115OSM    C8F12074   0.952   0.543   9.954 -0.6099  0.4049 -0.6617
  115OSM    H8F12075   1.060   0.563   9.937 -0.3605 -1.2797 -1.2378
  115OSM    H8G12076   0.903   0.643   9.951 -1.2691  0.1414  0.5409
  115OSM    C9F12077   0.885   0.450   9.857  0.1275 -0.1823 -0.3611
  115OSM    H9F12078   0.787   0.418   9.896 -1.1370  3.2750 -0.3270
  115OSM   C10F12079   0.938   0.418   9.738 -0.2010 -0.0724 -0.0561
  115OSM   H10F12080   0.878   0.368   9.660 -2.5611  2.8438 -0.3005
  115OSM   C11F12081   1.072   0.454   9.682  0.0798  0.2901 -0.2005
  115OSM   H11F12082   1.107   0.375   9.612  0.6544  1.0806 -0.8277
  115OSM   H11G12083   1.145   0.467   9.765  0.2677 -1.1901 -0.1218
  115OSM   C12F12084   1.064   0.578   9.599  0.7522 -0.5563  0.5695
  115OSM   H12F12085   1.168   0.616   9.586 -0.0182  2.1042  1.4443
  115OSM   H12G12086   1.022   0.667   9.649 -1.7107 -1.3498  0.0474
  115OSM   C13F12087   0.981   0.570   9.469 -0.4457  0.4129  0.3857
  115OSM   H13F12088   0.875   0.593   9.491 -0.2843  1.0150  0.5677
  115OSM   H13G12089   0.986   0.466   9.431  2.5362  1.7236 -3.5641
  115OSM   C14F12090   1.037   0.646   9.354  0.6152 -0.1927  0.1835
  115OSM   H14F12091   1.141   0.608   9.350  0.7179 -0.2358  2.2543
  115OSM   H14G12092   1.058   0.748   9.392  1.5187 -1.1536  2.4238
  115OSM   C15F12093   0.954   0.635   9.227 -0.1479 -0.2295  0.3923
  115OSM   H15F12094   0.870   0.706   9.240 -0.2332 -0.3322  0.4114
  115OSM   H15G12095   0.919   0.530   9.212 -1.2170  0.0484  0.8763
  115OSM   C16F12096   1.027   0.687   9.098 -0.9530  0.7269 -0.0633
  115OSM   H16F12097   1.108   0.615   9.071 -0.8616  0.4817  0.8354
  115OSM   H16G12098   1.088   0.776   9.123  0.0118 -0.3344  1.5469
  115OSM   C17F12099   0.932   0.724   8.983 -0.6543  0.3445 -0.4444
  115OSM   H17F12100   0.985   0.760   8.893 -0.0610 -0.6562 -0.5050
  115OSM   H17G12101   0.859   0.800   9.018  0.6596  0.4679  2.3331
  115OSM   C18F12102   0.855   0.596   8.940  0.1613  0.4003 -0.2812
  115OSM   H18F12103   0.808   0.558   9.033  0.3061 -0.1984 -0.4449
  115OSM   H18G12104   0.921   0.518   8.896 -1.3629 -1.3954  0.4664
  115OSM   H18H12105   0.770   0.614   8.870  0.4141  0.6529 -0.5263
  116OSM      N12106   3.933   2.642  11.130  0.1914  1.0949  0.9268
  116OSM    C1512107   3.837   2.638  11.246 -0.2193  0.3137  0.0841
  116OSM   H15A12108   3.881   2.682  11.335  1.9156  0.5475 -1.0127
  116OSM   H15B12109   3.806   2.537  11.268  0.4926 -0.4775 -2.2412
  116OSM   H15C12110   3.748   2.697  11.232  1.1925  2.0497 -2.3161
  116OSM    C1412111   4.029   2.523  11.130  0.0744 -0.0422  0.1705
  116OSM   H14A12112   3.964   2.437  11.140 -3.7642  2.9116  3.7027
  116OSM   H14B12113   4.100   2.529  11.211 -0.7900 -1.1436  1.0547
  116OSM   H14C12114   4.078   2.525  11.034 -0.3552  2.4354 -0.0411
  116OSM    C1312115   3.852   2.630  11.002  0.1788 -0.1704 -0.3427
  116OSM   H13A12116   3.830   2.733  10.980  0.2723  0.4977  2.3491
  116OSM   H13B12117   3.758   2.581  11.021 -0.1693  1.1488  1.5667
  116OSM   H13C12118   3.907   2.590  10.917  1.4459  1.0675 -0.1423
  116OSM    C1212119   4.014   2.772  11.135  0.0573 -0.2386 -0.7420
  116OSM   H12A12120   4.070   2.772  11.043  0.7071 -0.2238 -0.3546
  116OSM   H12B12121   4.079   2.763  11.221 -1.8908 -1.4474  0.6737
  116OSM    C1112122   3.938   2.895  11.158  0.3698 -0.5352 -0.7408
  116OSM   H11A12123   3.883   2.896  11.254 -1.6489  1.0692 -1.8188
  116OSM   H11B12124   3.862   2.913  11.079  1.4112  1.4366 -1.3738
  116OSM      P12125   3.995   3.153  11.160 -0.0025 -0.1827 -0.0649
  116OSM    O1312126   3.907   3.187  11.269  0.9342  0.1434 -0.6287
  116OSM    O1412127   4.117   3.231  11.152  0.4645 -0.3486  0.2674
  116OSM    O1112128   3.918   3.167  11.019 -0.4606 -0.4758 -0.5709
  116OSM    O1212129   4.034   2.997  11.155 -0.2109  0.0685 -0.4402
  116OSM    C1S12130   3.999   3.175  10.898 -0.1641 -0.3444 -0.3867
  116OSM    H1S12131   4.036   3.080  10.852 -1.7402 -1.6133  0.8433
  116OSM    H1T12132   4.088   3.237  10.920  1.1140 -1.8930 -0.9731
  116OSM     NF12133   4.021   3.241  10.653  0.3423  0.5761 -0.0743
  116OSM    HNF12134   4.076   3.322  10.633  0.3968  0.0682 -2.2047
  116OSM    C2S12135   3.932   3.242  10.773 -0.7722  0.2352 -0.2023
  116OSM    H2S12136   3.839   3.192  10.740 -0.4143 -0.4736 -0.1625
  116OSM    C3S12137   3.891   3.394  10.798  0.4233 -0.4150  0.0529
  116OSM    H3S12138   3.981   3.456  10.816 -0.6795  1.1569  0.3609
  116OSM     O312139   3.804   3.405  10.908 -0.3185  0.0323  0.1512
  116OSM    HO312140   3.805   3.315  10.943 -0.8159 -0.0594 -0.0655
  116OSM    C4S12141   3.820   3.462  10.687  0.1798 -0.2389 -0.2192
  116OSM    H4S12142   3.733   3.406  10.649  1.6568 -1.1248 -2.4698
  116OSM    C5S12143   3.864   3.572  10.612 -0.6012  0.9733  0.2469
  116OSM    H5S12144   3.963   3.617  10.624 -1.2775  2.5742  0.1916
  116OSM    C6S12145   3.784   3.613  10.491 -0.7909 -0.3730 -0.3984
  116OSM    H6S12146   3.780   3.723  10.478 -0.7588 -0.3387 -0.1170
  116OSM    H6T12147   3.685   3.564  10.482 -0.5416 -0.7717 -1.0743
  116OSM    C7S12148   3.853   3.562  10.358 -0.1941  0.4513 -0.2544
  116OSM    H7S12149   3.882   3.455  10.363  0.7673  0.7377  0.6443
  116OSM    H7T12150   3.947   3.620  10.344  0.8614 -1.1857 -0.1959
  116OSM    C8S12151   3.751   3.604  10.249 -0.3314  0.1403  0.1418
  116OSM    H8S12152   3.726   3.711  10.270 -0.6647  0.2921 -0.9415
  116OSM    H8T12153   3.663   3.538  10.263 -1.3035  1.0822 -1.2855
  116OSM    C9S12154   3.820   3.607  10.118 -0.3012 -0.3426 -0.3601
  116OSM    H9S12155   3.870   3.510  10.099 -0.3463 -0.3254 -0.5734
  116OSM    H9T12156   3.903   3.679  10.134  1.4984 -2.3943  0.0066
  116OSM   C10S12157   3.729   3.664  10.013  0.4654 -0.0494  0.1306
  116OSM   H10S12158   3.720   3.771  10.040  3.1643 -0.1537  1.7850
  116OSM   H10T12159   3.638   3.601  10.008  0.3687  0.1473 -0.9074
  116OSM   C11S12160   3.794   3.664   9.871 -0.5975 -0.3177 -0.0225
  116OSM   H11S12161   3.855   3.571   9.864 -0.0648 -0.0467  0.8507
  116OSM   H11T12162   3.875   3.739   9.883 -0.4333 -0.6071  0.7600
  116OSM   C12S12163   3.696   3.681   9.757  0.3813  0.4283  0.1310
  116OSM   H12S12164   3.621   3.756   9.789 -0.7702 -0.2931 -0.8182
  116OSM   H12T12165   3.637   3.589   9.735  1.2354  0.3735 -2.1121
  116OSM   C13S12166   3.749   3.727   9.624  0.2314  0.2702 -0.3832
  116OSM   H13S12167   3.667   3.721   9.550 -0.8918 -0.2277  0.8699
  116OSM   H13T12168   3.826   3.657   9.583  0.4401  1.0316 -1.3144
  116OSM   C14S12169   3.797   3.871   9.628 -0.1815  0.3441 -0.3075
  116OSM   H14S12170   3.855   3.889   9.722 -1.5198  1.3465  0.3468
  116OSM   H14T12171   3.711   3.941   9.636 -0.4348 -0.0177  0.1979
  116OSM   C15S12172   3.892   3.900   9.505  0.2329 -0.5959 -0.9245
  116OSM   H15S12173   3.979   3.831   9.502 -1.2782 -2.8982  1.9882
  116OSM   H15T12174   3.921   4.006   9.525  0.9146 -1.0398  0.5795
  116OSM   C16S12175   3.815   3.891   9.373 -0.1850  0.2515 -0.1119
  116OSM   H16S12176   3.792   3.784   9.352  0.7137 -0.3545  1.7331
  116OSM   H16T12177   3.889   3.927   9.299 -0.4967 -1.2562 -1.2161
  116OSM   C17S12178   3.687   3.978   9.348 -0.9432  0.5830  0.1207
  116OSM   H17S12179   3.717   4.083   9.366 -2.0684  1.0998 -0.8659
  116OSM   H17T12180   3.603   3.953   9.416  0.1674  1.1488  1.7623
  116OSM   C18S12181   3.645   3.967   9.197 -0.1660 -0.0057 -0.8707
  116OSM   H18S12182   3.719   4.002   9.122 -0.0176 -0.0577 -0.7482
  116OSM   H18T12183   3.554   4.030   9.186  0.1296  0.8225  1.0918
  116OSM   H18U12184   3.627   3.860   9.171 -0.9822  0.0641 -0.6138
  116OSM    C1F12185   4.032   3.135  10.573 -0.6216 -0.4368  0.0052
  116OSM     OF12186   3.958   3.033  10.574  0.3332 -0.0513  0.3635
  116OSM    C2F12187   4.151   3.132  10.487 -0.0174  0.8754  0.1068
  116OSM    H2F12188   4.202   3.040  10.524 -1.6957  0.1563  0.7478
  116OSM    H2G12189   4.210   3.225  10.503  2.1278 -0.0376 -1.8505
  116OSM    C3F12190   4.121   3.128  10.340 -0.4388 -0.0790  0.4692
  116OSM    H3F12191   4.044   3.050  10.328 -0.9705  0.3656  0.9686
  116OSM    H3G12192   4.215   3.099  10.288  0.8126  2.8928  0.8766
  116OSM    C4F12193   4.065   3.269  10.298 -0.0782 -0.3762  0.0285
  116OSM    H4F12194   4.067   3.338  10.385  0.5200  3.1149 -2.5359
  116OSM    H4G12195   3.957   3.252  10.280 -0.2083 -1.4452  1.6112
  116OSM    C5F12196   4.134   3.326  10.175  0.0507 -0.3937  0.5220
  116OSM    H5F12197   4.239   3.339  10.209  0.4257 -1.9575  0.0469
  116OSM    H5G12198   4.089   3.424  10.147 -0.8289 -1.3272 -1.5266
  116OSM    C6F12199   4.134   3.230  10.059  0.7403  0.5217  0.4147
  116OSM    H6F12200   4.201   3.146  10.086  0.4653 -1.2603 -3.7084
  116OSM    H6G12201   4.186   3.279   9.974  1.6842  0.6220  1.0425
  116OSM    C7F12202   4.004   3.161  10.010  0.1818 -0.1740 -0.4510
  116OSM    H7F12203   3.947   3.248   9.972  1.7045  0.5924 -1.0350
  116OSM    H7G12204   3.948   3.119  10.097  1.5405 -1.3724 -0.1063
  116OSM    C8F12205   4.026   3.066   9.897  0.2849  0.3006  0.8381
  116OSM    H8F12206   3.923   3.026   9.893 -0.2933  1.8054 -0.2558
  116OSM    H8G12207   4.105   2.988   9.903  1.6251  1.5393  0.0707
  116OSM    C9F12208   4.045   3.140   9.766  0.5080 -0.5672  0.3718
  116OSM    H9F12209   4.042   3.248   9.784  0.7449 -0.3813 -0.6538
  116OSM   C10F12210   4.061   3.082   9.646  0.0576  0.4037  0.8474
  116OSM   H10F12211   4.059   3.136   9.550 -1.9071 -1.2722 -0.1200
  116OSM   C11F12212   4.063   2.929   9.623 -0.5539 -0.5528  0.1637
  116OSM   H11F12213   4.093   2.883   9.719 -1.1063 -0.1819  0.5255
  116OSM   H11G12214   4.138   2.905   9.545 -0.7857  0.4959 -0.4169
  116OSM   C12F12215   3.928   2.870   9.573  0.1286 -0.2358 -0.3042
  116OSM   H12F12216   3.893   2.926   9.485  0.8175 -2.3685 -2.0294
  116OSM   H12G12217   3.849   2.861   9.651  1.1263 -0.7740  0.6875
  116OSM   C13F12218   3.952   2.725   9.516  0.5654  0.0501 -0.2201
  116OSM   H13F12219   4.006   2.665   9.592  1.1694 -0.0022 -0.6772
  116OSM   H13G12220   4.002   2.715   9.417 -0.9627 -0.6954 -0.9451
  116OSM   C14F12221   3.813   2.656   9.497  0.1887 -0.0231  0.3250
  116OSM   H14F12222   3.738   2.722   9.447  0.2715  1.0045  1.5001
  116OSM   H14G12223   3.769   2.648   9.599  1.9026  0.0179  1.0956
  116OSM   C15F12224   3.824   2.527   9.412  0.7031 -0.4989  0.2536
  116OSM   H15F12225   3.719   2.495   9.397  1.2703 -2.0649 -0.6436
  116OSM   H15G12226   3.877   2.440   9.457 -1.6508 -1.6020  1.0446
  116OSM   C16F12227   3.866   2.553   9.264 -0.4789  0.6368 -0.2751
  116OSM   H16F12228   3.977   2.547   9.256 -0.5173  0.6336 -0.8502
  116OSM   H16G12229   3.827   2.653   9.236 -0.0383  1.1242  0.7682
  116OSM   C17F12230   3.814   2.447   9.167  0.1821 -0.2224  0.2030
  116OSM   H17F12231   3.705   2.432   9.185 -0.3251  0.1780 -2.1226
  116OSM   H17G12232   3.855   2.345   9.179  1.1122 -0.1645 -2.0468
  116OSM   C18F12233   3.833   2.480   9.021  0.1296  0.0827 -0.3686
  116OSM   H18F12234   3.776   2.414   8.952  1.6894 -0.8317 -0.8263
  116OSM   H18G12235   3.939   2.490   8.990 -0.1761  0.5539 -1.2825
  116OSM   H18H12236   3.797   2.581   8.995 -1.8683 -0.9654 -1.9717
  117OSM      N12237   3.280   4.671  11.314  0.6879  0.1744  0.0263
  117OSM    C1512238   3.184   4.661  11.429 -0.2667  0.4439  0.5835
  117OSM   H15A12239   3.240   4.650  11.520  0.4127 -1.6589 -0.0477
  117OSM   H15B12240   3.123   4.574  11.410 -0.6604  0.2771  2.4482
  117OSM   H15C12241   3.106   4.737  11.437 -0.8597 -0.1903  0.9276
  117OSM    C1412242   3.349   4.804  11.339  0.0974  0.0472  0.2279
  117OSM   H14A12243   3.398   4.840  11.250 -1.5194  0.8038 -0.4031
  117OSM   H14B12244   3.411   4.806  11.427  1.0237 -1.4260 -0.3655
  117OSM   H14C12245   3.265   4.872  11.344 -2.2429 -2.4411 -1.9390
  117OSM    C1312246   3.380   4.560  11.319 -0.0193 -0.2998  0.0493
  117OSM   H13A12247   3.333   4.463  11.309  1.9471 -1.2573 -0.5031
  117OSM   H13B12248   3.426   4.569  11.416 -1.6840  0.1565  0.8262
  117OSM   H13C12249   3.456   4.579  11.244 -0.5697  1.0966 -0.1729
  117OSM    C1212250   3.211   4.661  11.175 -0.4372 -0.2825  0.1785
  117OSM   H12A12251   3.283   4.679  11.097  0.3666  0.8737  1.1534
  117OSM   H12B12252   3.141   4.742  11.164  0.0985 -0.0814 -2.4713
  117OSM    C1112253   3.136   4.536  11.133  0.0485  0.1325  0.2439
  117OSM   H11A12254   3.202   4.447  11.133 -0.1658 -0.0292  0.2470
  117OSM   H11B12255   3.089   4.551  11.033  2.1897  0.7663 -0.7076
  117OSM      P12256   2.958   4.370  11.238  0.0207  0.0487 -0.0788
  117OSM    O1312257   3.049   4.265  11.288  0.3024 -0.2367  0.1715
  117OSM    O1412258   2.831   4.390  11.310 -0.3952 -0.1117 -0.2913
  117OSM    O1112259   2.931   4.323  11.086  0.0166  0.3813  0.2486
  117OSM    O1212260   3.027   4.508  11.215  0.1103 -0.4025  0.0954
  117OSM    C1S12261   2.868   4.202  11.046  0.0842 -0.5198 -0.0101
  117OSM    H1S12262   2.758   4.196  11.051  0.0988 -0.2676  0.6534
  117OSM    H1T12263   2.901   4.106  11.092 -0.5178 -1.1526 -0.8676
  117OSM     NF12264   2.824   4.087  10.830 -0.1281 -0.0015  0.1979
  117OSM    HNF12265   2.862   3.996  10.817 -1.6382 -1.0683  2.5534
  117OSM    C2S12266   2.906   4.189  10.894  0.4482  1.1880 -0.0970
  117OSM    H2S12267   2.901   4.284  10.837  3.5216  0.6844 -1.4518
  117OSM    C3S12268   3.060   4.163  10.890 -0.0048 -0.0767 -0.7908
  117OSM    H3S12269   3.078   4.068  10.945  3.0410  0.1193 -1.2443
  117OSM     O312270   3.135   4.269  10.949 -0.4333  0.1518 -0.0037
  117OSM    HO312271   3.067   4.316  10.996  1.1529  1.4782  1.0776
  117OSM    C4S12272   3.093   4.128  10.749 -0.9797  0.2910 -0.0701
  117OSM    H4S12273   3.131   4.025  10.739 -1.8472 -0.6704  4.2650
  117OSM    C5S12274   3.108   4.205  10.639 -0.0254 -0.5327 -0.2042
  117OSM    H5S12275   3.095   4.314  10.641 -0.0057 -0.5412  1.1397
  117OSM    C6S12276   3.148   4.160  10.506  0.4071 -0.8179  0.7821
  117OSM    H6S12277   3.257   4.180  10.496 -0.0700  0.9682 -1.8138
  117OSM    H6T12278   3.095   4.226  10.434  0.4075 -1.1326  0.4933
  117OSM    C7S12279   3.131   4.013  10.468  0.0934  0.1632 -0.0119
  117OSM    H7S12280   3.201   3.955  10.532 -0.2448  0.3494  0.5305
  117OSM    H7T12281   3.175   4.018  10.366  0.7638  3.9923  0.3360
  117OSM    C8S12282   2.989   3.952  10.450  0.3316  0.6512  0.3478
  117OSM    H8S12283   2.935   4.028  10.390 -0.2000 -0.6845 -0.9483
  117OSM    H8T12284   2.933   3.941  10.545  0.9750 -1.0899  0.5690
  117OSM    C9S12285   2.991   3.822  10.361  0.6634 -0.8573 -0.3786
  117OSM    H9S12286   3.038   3.734  10.410  2.5125 -0.2473 -0.9511
  117OSM    H9T12287   3.059   3.842  10.275 -0.6827 -1.9566 -1.7550
  117OSM   C10S12288   2.849   3.788  10.306 -0.3089 -0.2146 -0.0698
  117OSM   H10S12289   2.816   3.870  10.239 -2.9805  0.8496  2.3323
  117OSM   H10T12290   2.781   3.782  10.394  0.9783  1.5092  1.0952
  117OSM   C11S12291   2.853   3.657  10.231  0.1284  0.4115  0.2669
  117OSM   H11S12292   2.875   3.569  10.295 -0.9300 -0.8648 -1.0650
  117OSM   H11T12293   2.925   3.657  10.147 -2.3416 -0.8817 -2.0345
  117OSM   C12S12294   2.707   3.629  10.181  0.4976  0.6182  0.6422
  117OSM   H12S12295   2.687   3.719  10.119  1.5840  0.7775  0.5170
  117OSM   H12T12296   2.635   3.629  10.266 -0.7664  1.0794 -0.3921
  117OSM   C13S12297   2.693   3.500  10.103  0.5246  0.6614 -0.1780
  117OSM   H13S12298   2.723   3.419  10.174 -1.0310  0.1181 -0.1104
  117OSM   H13T12299   2.774   3.496  10.027 -0.1195 -1.1776 -0.8100
  117OSM   C14S12300   2.555   3.475  10.035  0.7121  0.4636 -0.0187
  117OSM   H14S12301   2.538   3.546   9.951 -1.3478 -1.2228 -1.1289
  117OSM   H14T12302   2.476   3.482  10.112  1.3434 -2.5926  1.0323
  117OSM   C15S12303   2.549   3.326   9.980 -0.2519 -0.7369 -0.5745
  117OSM   H15S12304   2.557   3.269  10.075  1.2770  1.2981  0.5839
  117OSM   H15T12305   2.637   3.309   9.914 -0.1448  3.6839 -1.8410
  117OSM   C16S12306   2.417   3.285   9.910 -0.3020  1.4293 -0.4247
  117OSM   H16S12307   2.398   3.358   9.828  1.6561  2.6269  0.1074
  117OSM   H16T12308   2.335   3.295   9.985 -1.0196 -0.0805 -0.9830
  117OSM   C17S12309   2.422   3.139   9.853 -0.0579  0.0984 -0.2664
  117OSM   H17S12310   2.423   3.064   9.935 -1.2960  0.0056 -0.3209
  117OSM   H17T12311   2.506   3.134   9.781 -0.4693  3.6189 -1.1859
  117OSM   C18S12312   2.300   3.096   9.771 -0.3824 -0.0109  0.0551
  117OSM   H18S12313   2.198   3.113   9.812 -0.6390  3.0753 -1.5996
  117OSM   H18T12314   2.304   2.988   9.744  0.9454  0.0803 -0.1402
  117OSM   H18U12315   2.296   3.153   9.676  1.3982 -1.0943 -0.7181
  117OSM    C1F12316   2.708   4.104  10.774 -0.5074  0.2276  0.3178
  117OSM     OF12317   2.664   4.217  10.781  0.1811 -0.2320 -0.6864
  117OSM    C2F12318   2.646   3.988  10.715  0.3416  0.0957  0.1533
  117OSM    H2F12319   2.608   3.909  10.783 -2.0335  0.1123 -1.0449
  117OSM    H2G12320   2.726   3.936  10.657  0.7894  0.5697  0.3362
  117OSM    C3F12321   2.529   4.023  10.624  0.6193 -0.1835  0.7502
  117OSM    H3F12322   2.544   4.113  10.560 -3.2738 -0.8120 -1.3613
  117OSM    H3G12323   2.436   4.053  10.677 -0.3869 -2.0485  0.1425
  117OSM    C4F12324   2.494   3.909  10.528  0.1490  0.4785 -0.2832
  117OSM    H4F12325   2.455   3.822  10.584  1.0425 -0.6777 -1.4102
  117OSM    H4G12326   2.585   3.886  10.469 -0.2969 -3.7094  0.3649
  117OSM    C5F12327   2.393   3.958  10.431  0.5520  0.0170  0.2539
  117OSM    H5F12328   2.423   4.058  10.393  2.0741 -0.9590 -1.2559
  117OSM    H5G12329   2.290   3.973  10.470  0.7875  0.3324  0.7649
  117OSM    C6F12330   2.376   3.860  10.314  0.0033 -0.0414 -0.0863
  117OSM    H6F12331   2.318   3.768  10.339 -0.3843  0.5290  1.2286
  117OSM    H6G12332   2.477   3.852  10.268  1.2580  2.1357  2.0358
  117OSM    C7F12333   2.291   3.922  10.202 -0.0256 -0.5474 -0.5560
  117OSM    H7F12334   2.317   4.027  10.177 -0.6703  0.6102  3.0629
  117OSM    H7G12335   2.195   3.943  10.253  0.4295 -1.4891  0.7522
  117OSM    C8F12336   2.243   3.830  10.090  0.2653  0.2778  0.3573
  117OSM    H8F12337   2.160   3.881  10.036  0.9152  0.8615 -0.1032
  117OSM    H8G12338   2.202   3.738  10.137  0.5207 -0.6511 -1.1772
  117OSM    C9F12339   2.348   3.796   9.992 -0.5283  0.0433  1.1170
  117OSM    H9F12340   2.452   3.780  10.026  1.2434 -0.5392 -3.7683
  117OSM   C10F12341   2.344   3.765   9.863  0.2749  0.0414 -0.4406
  117OSM   H10F12342   2.438   3.744   9.812 -0.2943 -1.3322 -0.9558
  117OSM   C11F12343   2.227   3.750   9.773  0.4546  0.0646  0.8975
  117OSM   H11F12344   2.133   3.789   9.818  0.6369 -0.4874  1.7827
  117OSM   H11G12345   2.217   3.648   9.730 -1.4771 -0.4612  2.4304
  117OSM   C12F12346   2.251   3.857   9.656  0.2936  1.5960  0.1235
  117OSM   H12F12347   2.279   3.948   9.712  0.6487  1.1191  0.7339
  117OSM   H12G12348   2.159   3.874   9.597  0.6777  1.0073 -0.6676
  117OSM   C13F12349   2.352   3.824   9.552  0.3228  0.1364 -0.3982
  117OSM   H13F12350   2.333   3.719   9.519  1.2635  0.7276 -3.1308
  117OSM   H13G12351   2.452   3.824   9.599 -1.0389 -1.0795  2.7629
  117OSM   C14F12352   2.356   3.923   9.432 -0.4757 -0.2325  0.5083
  117OSM   H14F12353   2.399   4.021   9.463 -0.7913  0.2174 -0.4484
  117OSM   H14G12354   2.250   3.939   9.402 -0.8115 -1.2409  1.0764
  117OSM   C15F12355   2.441   3.871   9.317 -0.0630  0.1443  0.5139
  117OSM   H15F12356   2.422   3.763   9.295  0.4989 -0.0845  1.1177
  117OSM   H15G12357   2.547   3.868   9.349  0.2621  0.8093 -0.4559
  117OSM   C16F12358   2.418   3.952   9.181 -0.0882 -0.2607 -0.2564
  117OSM   H16F12359   2.422   4.062   9.199  2.1523  0.3392 -3.5050
  117OSM   H16G12360   2.320   3.926   9.137 -0.4854 -1.1210  1.0850
  117OSM   C17F12361   2.518   3.914   9.071  0.3384  0.0409 -0.0922
  117OSM   H17F12362   2.513   3.814   9.023 -1.7405  0.4842 -0.9271
  117OSM   H17G12363   2.614   3.915   9.127  0.0752  3.1568  0.4778
  117OSM   C18F12364   2.517   4.018   8.952  1.0570  0.5636  0.1171
  117OSM   H18F12365   2.419   4.002   8.902  0.5252  2.2307  0.5842
  117OSM   H18G12366   2.600   3.990   8.883  3.1532  2.0331  1.9059
  117OSM   H18H12367   2.526   4.124   8.982  1.1395  0.4303  0.5807
  118OSM      N12368   2.622   4.663  11.254 -0.4330  0.4962 -0.0149
  118OSM    C1512369   2.563   4.587  11.367  0.4039  0.2063  0.0293
  118OSM   H15A12370   2.472   4.535  11.343 -1.5396  1.7879  3.2369
  118OSM   H15B12371   2.540   4.660  11.443 -1.2475  2.7865 -2.7479
  118OSM   H15C12372   2.630   4.507  11.393  1.5507  1.2650  0.4277
  118OSM    C1412373   2.751   4.724  11.304 -0.2029 -0.0558  0.6723
  118OSM   H14A12374   2.826   4.647  11.313  2.2323  2.0901 -0.2660
  118OSM   H14B12375   2.743   4.775  11.399  1.6086  0.3539  0.6391
  118OSM   H14C12376   2.791   4.791  11.230  2.6412 -1.0779  1.1518
  118OSM    C1312377   2.654   4.564  11.150 -0.1876  0.3238  0.0945
  118OSM   H13A12378   2.568   4.518  11.105  0.3744  0.3133 -0.9877
  118OSM   H13B12379   2.715   4.489  11.199 -0.9594 -0.6754 -0.4488
  118OSM   H13C12380   2.716   4.595  11.068 -0.6299  2.6941  0.5680
  118OSM    C1212381   2.536   4.773  11.199  0.3312 -0.0393 -0.2980
  118OSM   H12A12382   2.493   4.845  11.268  0.3718  0.3432 -0.6672
  118OSM   H12B12383   2.450   4.718  11.166 -0.2399  1.0119 -0.6064
  118OSM    C1112384   2.586   4.855  11.079 -0.0172 -0.8236  0.4170
  118OSM   H11A12385   2.508   4.900  11.015  0.1804 -0.1762  0.6285
  118OSM   H11B12386   2.636   4.777  11.017 -0.3764  0.3951 -1.4871
  118OSM      P12387   2.658   5.088  11.176  0.6018  0.0803  0.2048
  118OSM    O1312388   2.521   5.085  11.234  0.2022 -0.2049 -0.6253
  118OSM    O1412389   2.771   5.144  11.256  0.0944 -0.3772 -0.4311
  118OSM    O1112390   2.639   5.174  11.048 -0.0922 -0.7829 -0.0774
  118OSM    O1212391   2.689   4.943  11.118 -0.5304 -0.1581  0.1446
  118OSM    C1S12392   2.736   5.172  10.941 -0.4274  0.7152 -0.5189
  118OSM    H1S12393   2.727   5.075  10.889  0.3224  1.2480 -1.6769
  118OSM    H1T12394   2.838   5.167  10.986 -1.0415 -2.9511  0.8278
  118OSM     NF12395   2.777   5.252  10.719 -0.3665  0.0487  0.6343
  118OSM    HNF12396   2.848   5.313  10.686  0.1913 -0.7892  0.2587
  118OSM    C2S12397   2.706   5.285  10.839  0.3201  0.2403  0.4634
  118OSM    H2S12398   2.598   5.279  10.814  0.2448 -0.2261  0.8825
  118OSM    C3S12399   2.736   5.422  10.903 -0.5223 -0.2997  0.4546
  118OSM    H3S12400   2.844   5.427  10.928 -0.3679  1.9360 -0.4109
  118OSM     O312401   2.662   5.444  11.025  0.2713 -0.1710  0.3389
  118OSM    HO312402   2.613   5.361  11.022  1.8434 -1.1615  0.4371
  118OSM    C4S12403   2.699   5.523  10.798  0.1024 -0.5585 -0.0532
  118OSM    H4S12404   2.776   5.550  10.724 -2.1038  3.9832 -1.0542
  118OSM    C5S12405   2.584   5.586  10.788 -0.3627 -0.7577 -0.2700
  118OSM    H5S12406   2.512   5.589  10.871  0.0998  0.9686  0.0962
  118OSM    C6S12407   2.555   5.683  10.676  0.2692  0.1889 -0.3795
  118OSM    H6S12408   2.568   5.783  10.723 -0.0387 -0.4283  1.0756
  118OSM    H6T12409   2.445   5.681  10.659  0.0315 -2.0090  1.0308
  118OSM    C7S12410   2.626   5.674  10.543 -0.3942  0.4231  0.7444
  118OSM    H7S12411   2.737   5.676  10.548 -0.2537 -0.5087 -1.2349
  118OSM    H7T12412   2.598   5.763  10.483 -0.7071 -0.1731 -0.0137
  118OSM    C8S12413   2.595   5.548  10.462  0.2293  0.9868 -0.8384
  118OSM    H8S12414   2.503   5.499  10.501  1.1586 -0.9333 -0.9225
  118OSM    H8T12415   2.674   5.474  10.485 -1.7244 -0.4125  1.9767
  118OSM    C9S12416   2.589   5.568  10.310  0.1557 -0.1222 -0.0482
  118OSM    H9S12417   2.497   5.627  10.291 -0.0371 -0.9842 -2.0196
  118OSM    H9T12418   2.567   5.467  10.271  0.8136 -0.8248  1.3360
  118OSM   C10S12419   2.708   5.633  10.245 -0.4050  0.0869  0.5200
  118OSM   H10S12420   2.802   5.581  10.272 -0.9140 -1.9322 -1.3148
  118OSM   H10T12421   2.713   5.743  10.262 -2.1038  0.6577 -2.0875
  118OSM   C11S12422   2.701   5.629  10.090 -0.1003  0.2282  0.6201
  118OSM   H11S12423   2.611   5.687  10.060 -0.0831  0.0587  0.2320
  118OSM   H11T12424   2.673   5.526  10.057 -3.2662  1.3516 -0.5974
  118OSM   C12S12425   2.830   5.679  10.022 -0.2332 -0.7704  0.3707
  118OSM   H12S12426   2.908   5.603  10.046 -0.5393 -0.4902  2.4690
  118OSM   H12T12427   2.863   5.769  10.078  0.7384 -0.5168 -0.5947
  118OSM   C13S12428   2.801   5.703   9.875 -0.1758  0.3730 -0.3992
  118OSM   H13S12429   2.730   5.789   9.868  0.5828  0.9861 -0.6571
  118OSM   H13T12430   2.749   5.616   9.829 -0.4131  0.5894 -0.5404
  118OSM   C14S12431   2.917   5.740   9.788 -0.6248 -0.5623 -0.6055
  118OSM   H14S12432   3.000   5.667   9.789  1.1472  1.3064  2.2118
  118OSM   H14T12433   2.961   5.829   9.838  2.4707 -1.8130 -0.9319
  118OSM   C15S12434   2.890   5.780   9.640 -0.0513  0.3269 -0.1462
  118OSM   H15S12435   2.807   5.853   9.625  1.5279  2.0572 -0.8890
  118OSM   H15T12436   2.872   5.688   9.580  0.0970  1.0739 -1.3744
  118OSM   C16S12437   3.014   5.832   9.572 -0.0660 -0.2758 -0.0922
  118OSM   H16S12438   3.102   5.764   9.571  0.9880  1.0043  1.3779
  118OSM   H16T12439   3.045   5.925   9.623  0.5400  0.4380 -1.7026
  118OSM   C17S12440   2.986   5.886   9.432 -0.3311 -0.7425 -0.3883
  118OSM   H17S12441   3.078   5.947   9.415 -0.8139  0.6929  1.6910
  118OSM   H17T12442   2.896   5.951   9.426  0.8393  0.8462 -2.0740
  118OSM   C18S12443   2.976   5.783   9.327  0.2523 -0.3763  0.5826
  118OSM   H18S12444   2.880   5.727   9.329 -1.0862  1.8253  0.7900
  118OSM   H18T12445   3.052   5.702   9.339  0.3322 -0.4772 -0.4870
  118OSM   H18U12446   2.973   5.841   9.232 -0.6129  3.8395  2.9267
  118OSM    C1F12447   2.744   5.161  10.624 -0.2901  1.3192  0.7900
  118OSM     OF12448   2.645   5.089  10.640  0.1034 -0.0088 -0.0414
  118OSM    C2F12449   2.833   5.151  10.507  0.3151 -0.6186  0.3855
  118OSM    H2F12450   2.875   5.048  10.494 -1.6043 -1.5099  0.9887
  118OSM    H2G12451   2.918   5.222  10.517  2.7565 -3.3302  0.4837
  118OSM    C3F12452   2.760   5.179  10.370 -0.1150  0.3379 -0.9198
  118OSM    H3F12453   2.698   5.271  10.374 -1.0336 -0.2404 -1.3639
  118OSM    H3G12454   2.701   5.087  10.351 -0.8122  0.6325 -0.2413
  118OSM    C4F12455   2.855   5.203  10.249 -0.1680  0.0342  0.5630
  118OSM    H4F12456   2.927   5.119  10.254 -0.8602 -0.7500 -1.5417
  118OSM    H4G12457   2.907   5.301  10.249 -0.7024  0.3440 -0.7972
  118OSM    C5F12458   2.777   5.205  10.114  0.4131 -0.4020 -0.5120
  118OSM    H5F12459   2.708   5.292  10.110  1.3062  0.3122 -0.9126
  118OSM    H5G12460   2.711   5.116  10.112 -3.4316  2.1191  1.2063
  118OSM    C6F12461   2.872   5.205   9.997 -0.3598 -0.3562  0.0909
  118OSM    H6F12462   2.934   5.113  10.005  1.9736  0.9869 -1.3256
  118OSM    H6G12463   2.937   5.295   9.995 -0.9012  0.0301 -0.2828
  118OSM    C7F12464   2.796   5.204   9.860 -0.9755  0.8267  0.1325
  118OSM    H7F12465   2.741   5.300   9.845 -3.2766 -0.8419 -3.2277
  118OSM    H7G12466   2.712   5.131   9.860  0.6663 -1.2109 -2.0897
  118OSM    C8F12467   2.866   5.171   9.719  0.3494 -0.3757 -0.6622
  118OSM    H8F12468   2.782   5.166   9.647  2.3584 -0.6293 -3.1041
  118OSM    H8G12469   2.922   5.079   9.744 -0.2208 -0.4021  0.6229
  118OSM    C9F12470   2.956   5.291   9.676  0.1484 -0.6356  0.6349
  118OSM    H9F12471   3.031   5.328   9.747  0.1217 -2.1289  1.4730
  118OSM   C10F12472   2.949   5.364   9.565  0.9498 -0.2596  0.8722
  118OSM   H10F12473   3.026   5.436   9.533 -1.3720  2.0916  0.1655
  118OSM   C11F12474   2.854   5.341   9.449  0.4889 -0.4752  0.0421
  118OSM   H11F12475   2.828   5.439   9.403  2.5691 -0.2984 -0.8552
  118OSM   H11G12476   2.761   5.316   9.505  0.3499  2.2919  1.2462
  118OSM   C12F12477   2.877   5.248   9.331  0.0174 -0.8514  0.2363
  118OSM   H12F12478   2.784   5.241   9.270 -1.0656  2.7168  1.2507
  118OSM   H12G12479   2.898   5.145   9.367  0.4949 -0.5162  0.9353
  118OSM   C13F12480   2.977   5.293   9.234 -0.0668  0.4582  0.5207
  118OSM   H13F12481   3.079   5.299   9.278 -0.1995 -0.2418  0.9234
  118OSM   H13G12482   2.949   5.395   9.200  0.2699  0.3829  0.0083
  118OSM   C14F12483   2.981   5.204   9.107 -0.6419 -0.0024 -0.1941
  118OSM   H14F12484   2.883   5.214   9.056 -0.0509  1.8243 -1.0343
  118OSM   H14G12485   2.987   5.097   9.137  2.3255 -1.0792 -3.9247
  118OSM   C15F12486   3.094   5.235   9.009  0.5178 -0.1025 -0.4767
  118OSM   H15F12487   3.090   5.342   8.979 -0.6331  0.7443  2.3686
  118OSM   H15G12488   3.096   5.165   8.923  0.8040 -1.8756  0.8893
  118OSM   C16F12489   3.235   5.204   9.065  0.0736 -0.1362 -0.3650
  118OSM   H16F12490   3.231   5.111   9.126 -1.8600 -2.2970 -3.5161
  118OSM   H16G12491   3.273   5.283   9.133 -0.6124  0.4465 -0.6471
  118OSM   C17F12492   3.337   5.179   8.952  0.9693  0.7654 -0.3488
  118OSM   H17F12493   3.278   5.100   8.900  0.1011 -0.4884  2.3761
  118OSM   H17G12494   3.426   5.138   9.003  0.5304 -0.1894 -0.3238
  118OSM   C18F12495   3.384   5.291   8.858 -0.5942  0.4356 -0.1618
  118OSM   H18F12496   3.444   5.358   8.922 -0.8464  0.3470  0.1704
  118OSM   H18G12497   3.294   5.344   8.819 -0.9847  0.0112  0.1563
  118OSM   H18H12498   3.452   5.244   8.784  0.8581  1.0503  0.7419
  119OSM      N12499   4.109   5.196  11.578  0.3327 -0.3694 -0.5646
  119OSM    C1512500   4.206   5.294  11.638 -0.0303  0.8453 -0.5126
  119OSM   H15A12501   4.235   5.266  11.738  0.4972 -0.8198 -1.1074
  119OSM   H15B12502   4.158   5.391  11.638 -1.4215  0.2604  2.4595
  119OSM   H15C12503   4.293   5.315  11.577 -1.5134 -0.2851 -3.1881
  119OSM    C1412504   4.174   5.057  11.566 -0.0900  0.1221 -0.3166
  119OSM   H14A12505   4.106   4.991  11.514 -1.0233 -0.4122  1.4871
  119OSM   H14B12506   4.196   5.028  11.668  1.5291  0.8388 -0.4331
  119OSM   H14C12507   4.272   5.056  11.521  0.7513 -1.3654  1.4200
  119OSM    C1312508   3.988   5.190  11.666 -0.0707  0.0784 -0.4379
  119OSM   H13A12509   3.960   5.285  11.707 -1.2437 -0.9835  1.3512
  119OSM   H13B12510   4.019   5.136  11.754  0.7750  1.8694  0.4254
  119OSM   H13C12511   3.905   5.140  11.618  0.3464 -1.6802  0.5760
  119OSM    C1212512   4.067   5.246  11.443  0.0640  0.2242  0.3060
  119OSM   H12A12513   4.004   5.331  11.463 -3.2684 -1.6323 -1.4268
  119OSM   H12B12514   4.007   5.169  11.396  0.7906 -0.1335 -0.0641
  119OSM    C1112515   4.175   5.297  11.342  0.3126 -0.4995 -0.4763
  119OSM   H11A12516   4.232   5.387  11.374  1.0365 -0.7547 -1.0138
  119OSM   H11B12517   4.124   5.340  11.254  0.7506  1.3761  0.1489
  119OSM      P12518   4.219   5.093  11.174 -0.1253 -0.3216 -0.0280
  119OSM    O1312519   4.301   4.972  11.189  0.2452 -0.6359 -0.1024
  119OSM    O1412520   4.069   5.089  11.173  0.3214  0.4543 -0.1968
  119OSM    O1112521   4.261   5.179  11.049  0.1751  0.0425 -0.2284
  119OSM    O1212522   4.255   5.189  11.291 -0.4140 -0.7359 -0.6863
  119OSM    C1S12523   4.282   5.109  10.924  0.6442  0.4388  0.4656
  119OSM    H1S12524   4.221   5.017  10.916  1.1251 -0.4913  5.0268
  119OSM    H1T12525   4.388   5.086  10.899  0.2518  0.7150 -1.6893
  119OSM     NF12526   4.243   5.123  10.679  0.1908 -0.0125 -0.3802
  119OSM    HNF12527   4.330   5.126  10.630  0.7973  1.1960  0.7127
  119OSM    C2S12528   4.233   5.201  10.802  0.7140 -0.1288  0.1805
  119OSM    H2S12529   4.126   5.233  10.801  0.8298  0.2501 -0.1315
  119OSM    C3S12530   4.319   5.332  10.799 -0.2800  0.7661  0.2082
  119OSM    H3S12531   4.423   5.298  10.778 -0.3961  0.4224  0.1773
  119OSM     O312532   4.318   5.416  10.910 -0.3772  0.0196 -0.5773
  119OSM    HO312533   4.292   5.359  10.982  0.7415  0.4363  0.1717
  119OSM    C4S12534   4.279   5.408  10.678 -0.4216  0.9931  0.5888
  119OSM    H4S12535   4.173   5.437  10.675 -1.3230 -1.9753  0.7882
  119OSM    C5S12536   4.356   5.425  10.570  0.3523  0.1015 -0.2527
  119OSM    H5S12537   4.461   5.394  10.566  1.3363  3.2399 -1.6186
  119OSM    C6S12538   4.308   5.505  10.449 -0.6840  0.4534  0.1559
  119OSM    H6S12539   4.376   5.592  10.442  0.0527 -0.0553  0.8629
  119OSM    H6T12540   4.203   5.541  10.460 -1.3626 -1.4845  0.4378
  119OSM    C7S12541   4.313   5.422  10.317 -0.7474 -0.0915 -0.3706
  119OSM    H7S12542   4.241   5.340  10.336  0.6479 -0.6487  3.3406
  119OSM    H7T12543   4.416   5.384  10.309 -0.5507  0.6542 -1.6300
  119OSM    C8S12544   4.271   5.498  10.192  0.6241 -0.6751 -0.3076
  119OSM    H8S12545   4.341   5.578  10.158 -1.0583  0.6000 -0.9065
  119OSM    H8T12546   4.170   5.539  10.213  0.8816  1.4757 -2.7199
  119OSM    C9S12547   4.264   5.415  10.065 -0.6841  0.9953 -0.3718
  119OSM    H9S12548   4.171   5.355  10.058 -0.2773  0.4171 -0.8911
  119OSM    H9T12549   4.344   5.338  10.061 -2.0699 -0.4650 -1.6015
  119OSM   C10S12550   4.250   5.502   9.944 -0.3581  0.0941 -0.2987
  119OSM   H10S12551   4.339   5.567   9.937  1.7562 -2.6539 -0.4540
  119OSM   H10T12552   4.174   5.583   9.954  1.4584  2.1380 -1.9807
  119OSM   C11S12553   4.253   5.432   9.808  0.1658  0.9683 -0.2283
  119OSM   H11S12554   4.317   5.342   9.815 -0.6279  0.3868 -0.2716
  119OSM   H11T12555   4.298   5.496   9.730 -2.0659  2.2893 -0.5303
  119OSM   C12S12556   4.106   5.394   9.773 -0.0648 -0.5357 -0.3758
  119OSM   H12S12557   4.030   5.473   9.789 -1.3871 -1.8495  0.1623
  119OSM   H12T12558   4.080   5.310   9.842  0.4635 -0.6205 -0.2763
  119OSM   C13S12559   4.088   5.343   9.626 -0.3099 -0.1591 -0.4875
  119OSM   H13S12560   3.984   5.306   9.622 -0.5878  0.2610  1.5306
  119OSM   H13T12561   4.161   5.261   9.614  1.5014  0.9504  1.9804
  119OSM   C14S12562   4.113   5.468   9.529  0.5869 -0.5658 -0.0767
  119OSM   H14S12563   4.217   5.502   9.549  0.2490  0.0913  0.6458
  119OSM   H14T12564   4.040   5.543   9.565  2.6294  0.5728  1.9332
  119OSM   C15S12565   4.096   5.435   9.383  0.3984 -0.2714  0.6712
  119OSM   H15S12566   3.994   5.393   9.373  0.2083  0.2264  0.4807
  119OSM   H15T12567   4.170   5.362   9.345  1.3347  1.1762 -0.4171
  119OSM   C16S12568   4.105   5.559   9.297  0.5841 -0.2157 -0.4456
  119OSM   H16S12569   4.201   5.614   9.303  0.0806  0.7376 -0.8798
  119OSM   H16T12570   4.019   5.624   9.325 -0.8577 -1.0361 -2.7247
  119OSM   C17S12571   4.095   5.533   9.145  0.2698  0.2064  0.2371
  119OSM   H17S12572   4.089   5.631   9.092 -0.3949  0.1978  0.2913
  119OSM   H17T12573   3.997   5.485   9.127  0.5869 -0.7231  0.9114
  119OSM   C18S12574   4.202   5.451   9.075 -0.0889  0.0418  0.1380
  119OSM   H18S12575   4.293   5.511   9.097 -0.0023 -1.1040  3.4962
  119OSM   H18T12576   4.190   5.445   8.965  2.3980 -2.7703 -0.0977
  119OSM   H18U12577   4.207   5.352   9.124  2.9506  0.2703  0.4813
  119OSM    C1F12578   4.158   5.023  10.653 -0.5874 -0.5019 -0.0308
  119OSM     OF12579   4.060   5.009  10.730  0.2977  0.1748  0.3670
  119OSM    C2F12580   4.193   4.925  10.551 -0.3136  0.0702  0.4880
  119OSM    H2F12581   4.195   4.821  10.589  2.5270  0.5888  2.0831
  119OSM    H2G12582   4.298   4.939  10.520  0.5295 -0.7830  2.7369
  119OSM    C3F12583   4.080   4.936  10.442 -0.7133 -0.2197 -0.3872
  119OSM    H3F12584   3.975   4.919  10.475 -1.1517 -2.3391 -2.5759
  119OSM    H3G12585   4.102   4.851  10.373  0.3145 -0.4772  0.2442
  119OSM    C4F12586   4.090   5.074  10.366 -0.4028  0.7663  0.8652
  119OSM    H4F12587   4.101   5.167  10.425  1.3514  1.0023  0.2422
  119OSM    H4G12588   3.989   5.089  10.322 -0.6457  2.8504  2.0275
  119OSM    C5F12589   4.208   5.081  10.270 -0.4112  0.2813  0.6084
  119OSM    H5F12590   4.303   5.089  10.327  1.2147 -1.4455 -1.6746
  119OSM    H5G12591   4.199   5.180  10.220 -0.2282  0.0188  0.0451
  119OSM    C6F12592   4.225   4.975  10.157 -0.6615 -0.0880 -0.2954
  119OSM    H6F12593   4.236   4.876  10.207  0.6345  0.1812 -0.0014
  119OSM    H6G12594   4.314   5.005  10.097 -0.6961  1.3426  0.3280
  119OSM    C7F12595   4.099   4.964  10.072  0.0346 -0.1359 -0.3286
  119OSM    H7F12596   4.075   5.056  10.014 -0.8985  0.0567  0.3393
  119OSM    H7G12597   4.012   4.946  10.139  0.1237 -1.2923 -0.4975
  119OSM    C8F12598   4.131   4.855   9.973  0.4620  0.3655  0.1221
  119OSM    H8F12599   4.173   4.771  10.032  2.9371  0.1518 -1.7677
  119OSM    H8G12600   4.213   4.877   9.901  0.4490  0.0260 -0.0003
  119OSM    C9F12601   4.000   4.812   9.901 -0.2332  0.5568  0.2131
  119OSM    H9F12602   3.916   4.783   9.966 -0.8661 -1.5245 -1.4096
  119OSM   C10F12603   3.982   4.817   9.770  0.8983 -0.1740 -0.3529
  119OSM   H10F12604   3.890   4.789   9.716  0.9409 -0.4948 -0.2607
  119OSM   C11F12605   4.083   4.861   9.671 -0.3469  0.4891  0.6618
  119OSM   H11F12606   4.124   4.762   9.640 -2.0750 -0.3190  0.7978
  119OSM   H11G12607   4.161   4.923   9.719 -1.9610  2.3023  1.0697
  119OSM   C12F12608   4.038   4.926   9.541 -0.1483 -0.1692 -0.0317
  119OSM   H12F12609   4.001   5.027   9.568 -3.0123 -0.0349 -3.6177
  119OSM   H12G12610   3.956   4.862   9.502  0.7727 -0.5407 -1.4212
  119OSM   C13F12611   4.143   4.949   9.438  0.0528 -0.2908  0.1694
  119OSM   H13F12612   4.188   4.847   9.430 -1.3839 -0.8774 -0.9588
  119OSM   H13G12613   4.216   5.027   9.467 -1.4482  1.5785 -0.8841
  119OSM   C14F12614   4.092   4.997   9.298 -0.8685  0.0160 -0.1221
  119OSM   H14F12615   4.053   5.098   9.325 -0.4510  0.0242  0.4708
  119OSM   H14G12616   4.014   4.935   9.249 -1.5954  1.5932 -1.0694
  119OSM   C15F12617   4.204   5.014   9.187  0.7167 -0.1010  1.0438
  119OSM   H15F12618   4.280   5.079   9.234  1.3245  0.8434 -1.1168
  119OSM   H15G12619   4.148   5.068   9.107  1.8821  1.5672  1.3115
  119OSM   C16F12620   4.260   4.880   9.139 -0.3443  0.0794 -0.6028
  119OSM   H16F12621   4.175   4.815   9.109  0.4485 -0.8365 -0.9180
  119OSM   H16G12622   4.296   4.838   9.236 -0.4379  0.4443 -0.4092
  119OSM   C17F12623   4.376   4.873   9.039 -0.1911 -0.2759 -0.7871
  119OSM   H17F12624   4.340   4.911   8.941 -0.0112 -2.9311 -1.9752
  119OSM   H17G12625   4.389   4.763   9.031 -1.1576 -0.4291 -0.3776
  119OSM   C18F12626   4.507   4.934   9.088 -0.3504 -0.5456 -0.8528
  119OSM   H18F12627   4.551   4.897   9.184  1.9397  2.2293 -0.6994
  119OSM   H18G12628   4.469   5.034   9.117 -0.2970 -1.1306  1.4481
  119OSM   H18H12629   4.581   4.933   9.005 -0.2306  1.1085 -0.7963
  120OSM      N12630   2.386   0.841  10.999  0.3410  0.2895 -0.3055
  120OSM    C1512631   2.518   0.904  11.015 -0.4400  0.3045  0.0286
  120OSM   H15A12632   2.562   0.884  11.112  1.0172  3.0573  0.0391
  120OSM   H15B12633   2.513   1.011  11.000 -0.0042  0.3935  0.4560
  120OSM   H15C12634   2.593   0.869  10.946  0.0348 -1.8537  1.5294
  120OSM    C1412635   2.279   0.911  11.083 -0.5596 -0.0331 -1.1479
  120OSM   H14A12636   2.301   0.905  11.188 -0.0827 -1.9492 -1.3007
  120OSM   H14B12637   2.180   0.871  11.066 -0.6267 -0.1549 -0.4654
  120OSM   H14C12638   2.278   1.013  11.049 -4.0117 -0.7221 -3.7503
  120OSM    C1312639   2.342   0.851  10.855 -0.3455 -0.1917 -0.4364
  120OSM   H13A12640   2.409   0.798  10.789  0.4451 -1.3708  1.2342
  120OSM   H13B12641   2.329   0.955  10.828 -0.2633 -0.2489 -0.6971
  120OSM   H13C12642   2.246   0.802  10.854  0.3530 -1.5880 -1.6133
  120OSM    C1212643   2.393   0.690  11.041  0.0517 -0.4727  0.2622
  120OSM   H12A12644   2.424   0.679  11.144 -1.4968  0.0505  0.8199
  120OSM   H12B12645   2.471   0.652  10.976 -0.1721  1.5017 -1.2834
  120OSM    C1112646   2.272   0.598  11.021 -0.0139 -0.0969  0.3141
  120OSM   H11A12647   2.183   0.648  11.064 -0.6556 -1.2409  0.3584
  120OSM   H11B12648   2.290   0.502  11.074  0.9397 -0.3121 -0.3617
  120OSM      P12649   2.331   0.481  10.796 -0.1139  0.7270 -0.1962
  120OSM    O1312650   2.306   0.502  10.653 -0.5427 -0.5861  0.0840
  120OSM    O1412651   2.472   0.496  10.842  0.1035  0.0928  0.1829
  120OSM    O1112652   2.292   0.336  10.837  0.0319 -0.5770 -0.6645
  120OSM    O1212653   2.242   0.569  10.885  0.0207 -0.1425  0.9257
  120OSM    C1S12654   2.350   0.208  10.795 -0.0516 -0.6576  0.3888
  120OSM    H1S12655   2.461   0.208  10.800  0.1402 -0.3426 -2.3417
  120OSM    H1T12656   2.316   0.178  10.693  2.9207  1.3598 -1.3589
  120OSM     NF12657   2.381  -0.018  10.870  0.4633  0.0330 -0.0471
  120OSM    HNF12658   2.340  -0.086  10.810  0.9106  0.4928 -0.9185
  120OSM    C2S12659   2.305   0.102  10.893  0.6505 -0.6724 -0.2398
  120OSM    H2S12660   2.308   0.139  10.997  1.0089  0.0329 -0.4983
  120OSM    C3S12661   2.152   0.083  10.877 -0.3608  0.7318 -0.3191
  120OSM    H3S12662   2.134   0.055  10.772 -0.8822 -0.6669  0.1237
  120OSM     O312663   2.063   0.198  10.902  0.3459  0.5821  0.4192
  120OSM    HO312664   2.130   0.267  10.905 -0.0209  0.9887 -0.3802
  120OSM    C4S12665   2.111  -0.040  10.962 -0.2758  0.5226 -0.0780
  120OSM    H4S12666   2.125  -0.130  10.900 -2.3790  0.6308 -0.8066
  120OSM    C5S12667   2.074  -0.054  11.093 -0.2762 -0.6206 -0.2038
  120OSM    H5S12668   2.076   0.033  11.161 -0.2214 -1.4672  0.9027
  120OSM    C6S12669   2.033  -0.175  11.166 -0.2003  0.2241  0.2638
  120OSM    H6S12670   1.941  -0.155  11.225 -0.6470 -0.8175 -0.0533
  120OSM    H6T12671   2.111  -0.206  11.239 -1.0458  1.8456  1.9297
  120OSM    C7S12672   2.002  -0.303  11.087  0.9101  0.9379 -0.2343
  120OSM    H7S12673   1.984  -0.377  11.168 -0.5090  0.5863 -0.8364
  120OSM    H7T12674   2.084  -0.330  11.018  0.6113  1.4406 -0.7953
  120OSM    C8S12675   1.865  -0.298  11.020 -0.1028 -0.0758  0.3771
  120OSM    H8S12676   1.858  -0.211  10.951  1.3309 -2.3075 -2.8492
  120OSM    H8T12677   1.793  -0.275  11.101  1.6774  1.8026  1.5142
  120OSM    C9S12678   1.819  -0.432  10.954  0.1390  0.9266 -0.7100
  120OSM    H9S12679   1.809  -0.510  11.032  0.3689  0.1577 -1.4282
  120OSM    H9T12680   1.903  -0.465  10.888  0.2212 -0.6341  0.1360
  120OSM   C10S12681   1.689  -0.428  10.880 -0.9613  0.0709  0.1779
  120OSM   H10S12682   1.699  -0.359  10.793 -0.5919 -0.5075 -0.2466
  120OSM   H10T12683   1.610  -0.399  10.952 -0.5213 -1.7146  1.4545
  120OSM   C11S12684   1.645  -0.556  10.804 -0.0631  0.6807 -0.3561
  120OSM   H11S12685   1.643  -0.634  10.883  0.2226 -0.8171 -1.7751
  120OSM   H11T12686   1.724  -0.578  10.730  0.2163  0.8054 -0.0964
  120OSM   C12S12687   1.503  -0.560  10.744  0.1588  0.5594  0.2844
  120OSM   H12S12688   1.503  -0.494  10.655  0.8739 -0.1846 -0.2837
  120OSM   H12T12689   1.432  -0.527  10.823 -0.8498  1.1235 -0.8180
  120OSM   C13S12690   1.460  -0.702  10.702 -0.0596  0.4324 -0.1936
  120OSM   H13S12691   1.471  -0.769  10.790  0.7700  1.2056  0.3084
  120OSM   H13T12692   1.513  -0.729  10.608  0.6668  0.4118  0.2151
  120OSM   C14S12693   1.308  -0.704  10.665 -0.1091  0.9100  0.0550
  120OSM   H14S12694   1.278  -0.624  10.594  0.0710  1.3386  0.4530
  120OSM   H14T12695   1.247  -0.673  10.753  0.6661  3.1833 -0.1443
  120OSM   C15S12696   1.273  -0.852  10.620  0.6374 -0.2907 -0.6769
  120OSM   H15S12697   1.164  -0.866  10.636  1.2828 -4.3973  1.1782
  120OSM   H15T12698   1.320  -0.924  10.691  0.2274 -0.0400 -0.1432
  120OSM   C16S12699   1.307  -0.875  10.475  0.1976 -0.2076 -0.3872
  120OSM   H16S12700   1.336  -0.980  10.455  0.8748 -0.2303  0.6864
  120OSM   H16T12701   1.400  -0.819  10.451  0.5538 -0.3573  0.5927
  120OSM   C17S12702   1.195  -0.822  10.390  0.4835  0.7351  0.8744
  120OSM   H17S12703   1.187  -0.712  10.403  0.7955  0.7140  1.2536
  120OSM   H17T12704   1.100  -0.869  10.424  0.9654  0.6331  2.1455
  120OSM   C18S12705   1.208  -0.859  10.244  0.2997  0.7837 -0.4507
  120OSM   H18S12706   1.201  -0.970  10.231  1.2951  0.2300  2.8013
  120OSM   H18T12707   1.308  -0.833  10.202  0.4122 -1.1055 -1.4891
  120OSM   H18U12708   1.138  -0.795  10.186 -2.0759 -1.2653 -0.0703
  120OSM    C1F12709   2.508  -0.027  10.900 -0.6354 -0.1204 -0.2347
  120OSM     OF12710   2.566   0.058  10.966 -0.0359 -0.2007 -0.9892
  120OSM    C2F12711   2.577  -0.161  10.874 -0.0515  0.4387 -0.1111
  120OSM    H2F12712   2.511  -0.225  10.812  0.3309  1.7284 -1.9103
  120OSM    H2G12713   2.578  -0.203  10.977  0.8665 -0.6828 -0.5513
  120OSM    C3F12714   2.718  -0.153  10.809  0.2590 -0.4815 -0.0703
  120OSM    H3F12715   2.778  -0.100  10.887  0.5714 -0.0089 -0.6314
  120OSM    H3G12716   2.713  -0.091  10.718  0.9964  1.2045  0.9799
  120OSM    C4F12717   2.794  -0.287  10.796  0.0781 -0.0180  0.2587
  120OSM    H4F12718   2.786  -0.343  10.892  0.6312 -1.3376 -0.4434
  120OSM    H4G12719   2.897  -0.259  10.764 -1.5138  1.8259 -3.9134
  120OSM    C5F12720   2.753  -0.381  10.678  0.2047 -0.3107 -0.0741
  120OSM    H5F12721   2.644  -0.401  10.687  0.0936 -0.5280 -1.7194
  120OSM    H5G12722   2.818  -0.470  10.689  2.5620  1.5233  2.4932
  120OSM    C6F12723   2.761  -0.320  10.536 -0.0487 -0.2234 -0.2089
  120OSM    H6F12724   2.717  -0.218  10.532  0.2195 -0.1259 -0.9827
  120OSM    H6G12725   2.689  -0.368  10.466 -0.1738 -0.2385 -0.0706
  120OSM    C7F12726   2.895  -0.313  10.464 -0.6250  0.4502 -0.4162
  120OSM    H7F12727   2.935  -0.415  10.448  1.0849  1.0585 -0.1737
  120OSM    H7G12728   2.958  -0.275  10.547 -0.6391  0.6562 -0.4973
  120OSM    C8F12729   2.902  -0.240  10.331 -0.0759  0.1169  0.1839
  120OSM    H8F12730   2.852  -0.302  10.254 -1.2387  0.0591  0.9642
  120OSM    H8G12731   3.008  -0.232  10.297 -0.3335 -2.3676 -1.4855
  120OSM    C9F12732   2.835  -0.104  10.336  0.8730  0.6374 -0.4480
  120OSM    H9F12733   2.869  -0.054  10.427 -1.3203 -0.0940  0.8509
  120OSM   C10F12734   2.762  -0.041  10.247  0.3539  0.6240  0.2061
  120OSM   H10F12735   2.737   0.065  10.266  1.3732  0.7227  1.1238
  120OSM   C11F12736   2.729  -0.096  10.110 -0.2098 -0.9204 -0.2000
  120OSM   H11F12737   2.629  -0.069  10.069 -0.0411  0.6089  0.3379
  120OSM   H11G12738   2.744  -0.206  10.103 -0.5204 -0.9890  0.1871
  120OSM   C12F12739   2.835  -0.056   9.997 -0.2866 -0.3707 -0.6853
  120OSM   H12F12740   2.941  -0.060  10.030 -1.2344  0.6657  2.8873
  120OSM   H12G12741   2.805   0.049   9.978  1.2492  0.8652  2.8102
  120OSM   C13F12742   2.812  -0.134   9.864  0.2090  0.1715  0.2783
  120OSM   H13F12743   2.704  -0.122   9.839 -0.5037 -0.3658  2.8652
  120OSM   H13G12744   2.825  -0.242   9.887 -3.2123 -0.5967 -0.8065
  120OSM   C14F12745   2.893  -0.076   9.746 -0.6995  0.7908  0.6436
  120OSM   H14F12746   2.896  -0.149   9.663 -0.6422  1.4768  0.0345
  120OSM   H14G12747   2.999  -0.068   9.779 -1.0453  0.7505  1.8277
  120OSM   C15F12748   2.847   0.058   9.683  0.4775  0.2454  0.3004
  120OSM   H15F12749   2.880   0.143   9.746 -1.9376  1.2493  0.3128
  120OSM   H15G12750   2.736   0.057   9.670  0.5575  1.6483 -0.7301
  120OSM   C16F12751   2.914   0.082   9.550 -0.0218  0.1563  0.1301
  120OSM   H16F12752   3.024   0.086   9.562 -0.0644  2.6629  0.0647
  120OSM   H16G12753   2.881   0.180   9.509 -0.5877 -0.7856 -1.8345
  120OSM   C17F12754   2.890  -0.020   9.433  0.8547  0.2300 -0.6544
  120OSM   H17F12755   2.923  -0.121   9.464  1.4652  0.7577  0.4928
  120OSM   H17G12756   2.948   0.005   9.341  0.6990  0.5627 -0.6643
  120OSM   C18F12757   2.741  -0.030   9.386 -0.2131  0.1886  0.0386
  120OSM   H18F12758   2.692   0.069   9.377 -2.2768 -0.5324  2.2111
  120OSM   H18G12759   2.677  -0.094   9.450 -0.8788 -2.0717 -2.6679
  120OSM   H18H12760   2.748  -0.078   9.285  2.2367  0.4166  0.0376
  121OSM      N12761   1.717   3.905  10.887 -0.2758 -0.4521  0.1354
  121OSM    C1512762   1.619   4.018  10.916  0.1814  0.3570 -0.1075
  121OSM   H15A12763   1.662   4.115  10.897  0.1824  0.5389  0.7661
  121OSM   H15B12764   1.575   4.017  11.015  1.3754  2.4391  0.4988
  121OSM   H15C12765   1.538   4.010  10.846 -0.7102  3.4962  0.4423
  121OSM    C1412766   1.646   3.778  10.908  0.1027 -0.2512  0.6523
  121OSM   H14A12767   1.563   3.766  10.839 -0.6489  0.4871  1.4041
  121OSM   H14B12768   1.591   3.781  11.000 -0.4014 -1.9045  0.4383
  121OSM   H14C12769   1.704   3.688  10.920 -2.0108 -1.5418  1.7050
  121OSM    C1312770   1.773   3.903  10.748  0.3168  0.0436  0.6069
  121OSM   H13A12771   1.845   3.824  10.735 -0.6508 -0.8362  0.3980
  121OSM   H13B12772   1.824   3.994  10.721 -1.4748  0.5841 -1.2954
  121OSM   H13C12773   1.689   3.893  10.680  1.0260  0.6777 -0.3891
  121OSM    C1212774   1.837   3.916  10.981  0.1459 -0.3708 -0.1728
  121OSM   H12A12775   1.906   3.833  10.971 -0.4149 -0.9575  0.7320
  121OSM   H12B12776   1.805   3.911  11.083  0.1538 -0.2338 -0.1628
  121OSM    C1112777   1.920   4.049  10.959 -0.0803 -0.3677 -0.2017
  121OSM   H11A12778   1.863   4.143  10.971  2.0212  1.1365 -1.4211
  121OSM   H11B12779   1.952   4.058  10.854  0.2478 -0.3642 -0.1012
  121OSM      P12780   2.047   4.149  11.171 -0.3598  0.4044  0.5182
  121OSM    O1312781   1.916   4.150  11.244  0.4056  0.5747  0.5399
  121OSM    O1412782   2.170   4.120  11.252  0.1385  0.3205  0.3961
  121OSM    O1112783   2.060   4.288  11.102 -0.0043 -0.4457 -0.5579
  121OSM    O1212784   2.040   4.055  11.042  0.0444 -0.4741  0.3386
  121OSM    C1S12785   2.146   4.314  10.995  0.7179 -0.9215  0.1294
  121OSM    H1S12786   2.199   4.225  10.954 -1.3039 -0.9930 -2.6057
  121OSM    H1T12787   2.216   4.397  11.019 -0.6627  0.2255  0.3238
  121OSM     NF12788   2.158   4.404  10.771  0.2662 -0.2434 -0.3038
  121OSM    HNF12789   2.194   4.497  10.778  1.5310 -0.5493 -2.1280
  121OSM    C2S12790   2.064   4.370  10.873  0.1559  0.6131  0.0649
  121OSM    H2S12791   1.997   4.292  10.831 -0.7097  2.2493 -1.7953
  121OSM    C3S12792   1.973   4.486  10.919  0.8999 -0.8632 -0.5594
  121OSM    H3S12793   2.042   4.564  10.959 -1.2386  0.8953 -0.1119
  121OSM     O312794   1.885   4.458  11.028  0.9561 -0.0217 -0.1366
  121OSM    HO312795   1.941   4.422  11.097 -0.1667 -1.8471 -0.1287
  121OSM    C4S12796   1.901   4.541  10.794 -0.2207 -0.1430 -0.5043
  121OSM    H4S12797   1.839   4.473  10.734 -0.1279 -0.4951 -0.2030
  121OSM    C5S12798   1.914   4.673  10.760  0.0644  0.4531  0.8761
  121OSM    H5S12799   1.985   4.745  10.803  1.0643  1.9993 -2.9149
  121OSM    C6S12800   1.850   4.730  10.638 -0.5641 -0.3552  0.2468
  121OSM    H6S12801   1.806   4.827  10.668  0.5882 -0.2989  1.9457
  121OSM    H6T12802   1.760   4.668  10.618 -0.0845 -0.5974 -1.2709
  121OSM    C7S12803   1.925   4.740  10.509  0.3260  0.1593 -0.4535
  121OSM    H7S12804   1.867   4.801  10.436 -0.7437 -0.9890 -0.5925
  121OSM    H7T12805   1.931   4.640  10.461  0.4616  0.3454 -0.8325
  121OSM    C8S12806   2.068   4.782  10.528  0.4901  0.5964  0.3251
  121OSM    H8S12807   2.123   4.698  10.576  0.7375  1.2440  1.2031
  121OSM    H8T12808   2.064   4.876  10.587 -1.9207  1.7157 -1.4511
  121OSM    C9S12809   2.136   4.838  10.403 -0.0499 -0.3115  0.0408
  121OSM    H9S12810   2.240   4.865  10.434  1.0505 -1.8458 -2.0588
  121OSM    H9T12811   2.072   4.920  10.365 -0.1350 -1.5766 -2.8133
  121OSM   C10S12812   2.152   4.740  10.281 -0.0508 -0.0197 -0.6695
  121OSM   H10S12813   2.049   4.724  10.244  0.0466 -2.5090 -0.0275
  121OSM   H10T12814   2.195   4.641  10.308 -1.3274 -0.3694  0.1553
  121OSM   C11S12815   2.202   4.813  10.154 -0.3116  0.0926 -0.0533
  121OSM   H11S12816   2.310   4.829  10.176 -0.5615  0.4410  0.9776
  121OSM   H11T12817   2.146   4.908  10.146 -1.2986 -0.3966  0.7709
  121OSM   C12S12818   2.207   4.721  10.027  0.7466  0.1201  0.0147
  121OSM   H12S12819   2.110   4.666  10.027 -0.1385  1.6216  1.2346
  121OSM   H12T12820   2.286   4.643  10.034 -0.1333 -0.6342  3.0311
  121OSM   C13S12821   2.212   4.801   9.896 -0.0391 -0.3621 -0.6481
  121OSM   H13S12822   2.320   4.815   9.878 -0.3563  3.5315 -0.2360
  121OSM   H13T12823   2.159   4.896   9.916  0.6684  0.0143 -0.5413
  121OSM   C14S12824   2.162   4.729   9.774  0.0970 -0.5625  0.3741
  121OSM   H14S12825   2.095   4.645   9.802 -1.5259  1.4519  2.8915
  121OSM   H14T12826   2.253   4.693   9.720  0.2498  2.5535 -1.6500
  121OSM   C15S12827   2.076   4.806   9.669  0.0903 -0.4022 -0.2937
  121OSM   H15S12828   2.132   4.888   9.621 -0.5216  0.4991  0.5063
  121OSM   H15T12829   1.985   4.854   9.712 -0.3583 -0.9898 -0.5563
  121OSM   C16S12830   2.030   4.705   9.561 -0.5271 -0.0389 -0.0066
  121OSM   H16S12831   1.987   4.618   9.616 -0.8296  0.0718 -0.0661
  121OSM   H16T12832   2.121   4.669   9.508 -0.9473  0.2683 -0.9530
  121OSM   C17S12833   1.933   4.763   9.451  0.1379 -0.1489 -0.3386
  121OSM   H17S12834   1.896   4.678   9.390 -1.2012 -0.1423  0.4167
  121OSM   H17T12835   1.993   4.824   9.381  1.9723 -0.4622  0.8714
  121OSM   C18S12836   1.804   4.822   9.506 -0.3938  0.4286 -0.3944
  121OSM   H18S12837   1.717   4.823   9.436 -0.6788  2.0292 -0.0648
  121OSM   H18T12838   1.824   4.927   9.537  0.8891 -0.4047  1.8633
  121OSM   H18U12839   1.779   4.754   9.590 -2.0071  0.8445 -0.5021
  121OSM    C1F12840   2.215   4.322  10.690 -0.0548 -0.3171  0.0467
  121OSM     OF12841   2.175   4.206  10.684  0.8827  0.1780  0.0970
  121OSM    C2F12842   2.326   4.369  10.610 -0.6869  0.1060  0.4731
  121OSM    H2F12843   2.423   4.325  10.641  1.6087  1.6805 -3.5973
  121OSM    H2G12844   2.337   4.479  10.604  0.1294 -0.0167 -3.5936
  121OSM    C3F12845   2.297   4.345  10.457  0.2946  0.1804 -0.5466
  121OSM    H3F12846   2.192   4.368  10.426 -0.1143 -0.2366  0.4795
  121OSM    H3G12847   2.316   4.235  10.452  4.0160  0.7071 -0.2968
  121OSM    C4F12848   2.393   4.416  10.354 -0.0141  0.2913  0.7053
  121OSM    H4F12849   2.496   4.385  10.383  0.6784  0.9204 -0.9682
  121OSM    H4G12850   2.393   4.527  10.360 -1.6573  0.5632 -2.2938
  121OSM    C5F12851   2.376   4.353  10.209 -0.6066 -0.5797  0.7638
  121OSM    H5F12852   2.278   4.393  10.174  0.5387  0.9602 -0.8937
  121OSM    H5G12853   2.365   4.243  10.216 -0.7254 -0.6617 -0.4671
  121OSM    C6F12854   2.496   4.375  10.110 -0.1870 -0.1733  0.2197
  121OSM    H6F12855   2.594   4.368  10.161 -0.5544  1.8859  1.3280
  121OSM    H6G12856   2.494   4.474  10.058 -0.6452 -0.9550 -1.3250
  121OSM    C7F12857   2.513   4.267   9.997 -0.2186  0.1377  0.3366
  121OSM    H7F12858   2.535   4.177  10.058 -1.5340  0.6775  1.6797
  121OSM    H7G12859   2.598   4.310   9.939 -1.1240 -0.0504 -1.1786
  121OSM    C8F12860   2.388   4.260   9.909  0.4589  0.1659  0.4637
  121OSM    H8F12861   2.353   4.364   9.892  1.6066  0.0937 -3.2032
  121OSM    H8G12862   2.319   4.198   9.971  3.4334 -0.1573  3.7948
  121OSM    C9F12863   2.437   4.200   9.778  0.5988 -0.9259  1.1283
  121OSM    H9F12864   2.437   4.090   9.773  0.7011 -0.8825 -0.1876
  121OSM   C10F12865   2.463   4.265   9.662  0.2144 -0.4106 -0.7362
  121OSM   H10F12866   2.486   4.204   9.574  1.7843 -1.8911  0.6413
  121OSM   C11F12867   2.448   4.420   9.645 -0.1583 -0.2307  0.5228
  121OSM   H11F12868   2.531   4.447   9.577 -1.2434 -0.5313 -0.9573
  121OSM   H11G12869   2.452   4.470   9.744 -1.7257  0.2438  0.3623
  121OSM   C12F12870   2.320   4.448   9.570  0.1192  0.4750  0.4427
  121OSM   H12F12871   2.320   4.558   9.559  0.9145  0.3759 -0.6530
  121OSM   H12G12872   2.230   4.417   9.629  0.2935 -0.4402  0.2401
  121OSM   C13F12873   2.304   4.374   9.433 -0.1598  0.4575 -0.3364
  121OSM   H13F12874   2.303   4.265   9.453  3.3636  0.5001  0.8355
  121OSM   H13G12875   2.402   4.397   9.386 -0.3257  2.8683  0.3486
  121OSM   C14F12876   2.182   4.418   9.348 -0.3754 -0.0335  0.8462
  121OSM   H14F12877   2.180   4.527   9.331  1.1921 -0.1707 -0.5475
  121OSM   H14G12878   2.089   4.381   9.397  0.1611 -1.6919  0.6721
  121OSM   C15F12879   2.182   4.351   9.207 -0.8529 -0.1520  0.5637
  121OSM   H15F12880   2.081   4.376   9.168  0.7199  0.7951 -3.4312
  121OSM   H15G12881   2.189   4.241   9.213  2.2652 -0.0219  1.1764
  121OSM   C16F12882   2.294   4.396   9.118 -0.3750  0.3973 -0.7225
  121OSM   H16F12883   2.393   4.372   9.161 -0.5653  1.3581  0.3099
  121OSM   H16G12884   2.299   4.507   9.119  0.4498  0.3828  1.0850
  121OSM   C17F12885   2.282   4.354   8.976  0.9790  0.5502 -0.8979
  121OSM   H17F12886   2.200   4.401   8.919  0.4957 -1.8989 -2.3608
  121OSM   H17G12887   2.257   4.246   8.972 -2.8034  1.2882 -0.8368
  121OSM   C18F12888   2.405   4.382   8.889 -0.1514  0.2885 -0.4189
  121OSM   H18F12889   2.389   4.347   8.785  1.5183 -2.0207  0.0214
  121OSM   H18G12890   2.485   4.318   8.932 -1.6372 -1.8902 -0.7283
  121OSM   H18H12891   2.430   4.490   8.887  0.4315  0.3627  3.1829
  122OSM      N12892   1.453   1.562  11.005  0.5548 -0.5384  0.0998
  122OSM    C1512893   1.516   1.606  10.872  0.0063  0.5966 -0.2100
  122OSM   H15A12894   1.584   1.689  10.888 -0.9250  1.2829  0.3364
  122OSM   H15B12895   1.431   1.651  10.823 -0.7376  1.1563  1.4955
  122OSM   H15C12896   1.557   1.527  10.812  0.1438  0.8453 -0.4503
  122OSM    C1412897   1.550   1.478  11.076  0.4900 -0.2100  0.1525
  122OSM   H14A12898   1.512   1.437  11.168 -1.9177  1.4376 -0.0066
  122OSM   H14B12899   1.632   1.546  11.097  0.2338 -0.1223  0.8972
  122OSM   H14C12900   1.593   1.394  11.024 -2.2822 -1.9258  0.4187
  122OSM    C1312901   1.427   1.688  11.087 -1.0135  0.6129  0.6712
  122OSM   H13A12902   1.517   1.740  11.112 -0.8002  0.1476  0.8935
  122OSM   H13B12903   1.380   1.648  11.176 -3.3951 -2.3638 -1.6820
  122OSM   H13C12904   1.355   1.751  11.037 -0.7812 -0.3821 -1.0236
  122OSM    C1212905   1.326   1.490  10.972 -0.3089  0.2638 -0.6216
  122OSM   H12A12906   1.297   1.445  11.066  3.0252  1.0447  0.9322
  122OSM   H12B12907   1.356   1.422  10.895  1.8271  0.8683 -0.3810
  122OSM    C1112908   1.206   1.568  10.922 -0.8864  0.3994  0.0981
  122OSM   H11A12909   1.157   1.620  11.006  1.0424  0.2841  1.3597
  122OSM   H11B12910   1.137   1.485  10.896 -0.2682 -0.4280  1.0210
  122OSM      P12911   1.109   1.740  10.757  0.0006  0.0367  0.0731
  122OSM    O1312912   0.989   1.723  10.845  0.0157 -0.8474 -0.1662
  122OSM    O1412913   1.161   1.884  10.738  1.1659  0.4635 -0.1565
  122OSM    O1112914   1.061   1.683  10.625  0.6825 -0.6640 -0.9539
  122OSM    O1212915   1.229   1.649  10.801 -1.2014  0.0314  0.2858
  122OSM    C1S12916   1.030   1.541  10.609 -0.1803  0.1039 -0.4636
  122OSM    H1S12917   0.933   1.518  10.658 -0.1949  0.5989 -0.2506
  122OSM    H1T12918   1.107   1.474  10.655 -1.9539 -0.6952  1.4757
  122OSM     NF12919   0.985   1.356  10.463 -0.3202  0.6869  0.4792
  122OSM    HNF12920   1.058   1.293  10.439 -0.2026  1.6146 -1.8454
  122OSM    C2S12921   1.012   1.499  10.462 -1.1599 -0.9966  0.2129
  122OSM    H2S12922   0.931   1.558  10.414  0.6707  0.0290 -1.7735
  122OSM    C3S12923   1.137   1.539  10.381 -0.9566 -0.2068 -0.0471
  122OSM    H3S12924   1.224   1.513  10.445 -2.2132 -1.2300  1.3054
  122OSM     O312925   1.161   1.679  10.365 -0.0445  0.0389 -0.0926
  122OSM    HO312926   1.081   1.722  10.396 -0.9444 -0.7967 -1.1605
  122OSM    C4S12927   1.132   1.471  10.240 -0.5337  0.0338 -0.2224
  122OSM    H4S12928   1.178   1.372  10.248  2.7140  1.4836  0.6498
  122OSM    C5S12929   1.079   1.518  10.127  0.0086  0.1578  0.2895
  122OSM    H5S12930   1.033   1.617  10.130 -1.5185 -0.5170 -0.1115
  122OSM    C6S12931   1.087   1.451   9.991  0.5522  0.9435 -0.3950
  122OSM    H6S12932   0.993   1.403   9.957  0.9320 -1.2595  1.4002
  122OSM    H6T12933   1.161   1.368   9.995 -2.1771 -1.6485  0.6353
  122OSM    C7S12934   1.138   1.556   9.893  0.3172 -0.7059 -0.8189
  122OSM    H7S12935   1.245   1.582   9.909  0.0881  1.8573 -2.7990
  122OSM    H7T12936   1.078   1.649   9.903 -1.7453 -1.9589 -0.9549
  122OSM    C8S12937   1.130   1.519   9.741  0.5912  0.5218 -0.5494
  122OSM    H8S12938   1.028   1.556   9.720  0.0016 -0.1401  0.9489
  122OSM    H8T12939   1.132   1.408   9.730  1.2834  0.5207 -0.4746
  122OSM    C9S12940   1.232   1.587   9.658  0.2420 -0.4767 -0.1261
  122OSM    H9S12941   1.328   1.567   9.710  0.6164  1.5372  0.0197
  122OSM    H9T12942   1.208   1.694   9.677 -3.3645 -1.6333  3.1578
  122OSM   C10S12943   1.235   1.543   9.514  0.2808 -0.0760  0.0030
  122OSM   H10S12944   1.259   1.434   9.512 -0.8042 -0.3207 -0.6182
  122OSM   H10T12945   1.323   1.589   9.464 -0.2061 -0.8040 -1.6251
  122OSM   C11S12946   1.110   1.582   9.432  0.3293  0.4312 -0.1935
  122OSM   H11S12947   1.079   1.688   9.450 -1.8970 -0.5551  2.5346
  122OSM   H11T12948   1.030   1.532   9.491 -0.2593  0.6826 -0.7644
  122OSM   C12S12949   1.104   1.536   9.285 -0.0521 -0.3962 -0.4806
  122OSM   H12S12950   1.014   1.575   9.233 -0.8448 -0.8481  0.5174
  122OSM   H12T12951   1.091   1.426   9.277  1.3123 -0.5820 -0.5274
  122OSM   C13S12952   1.227   1.567   9.194  0.0897  0.0510 -0.2064
  122OSM   H13S12953   1.311   1.501   9.224  0.9932  0.6327 -1.3737
  122OSM   H13T12954   1.266   1.671   9.195 -0.2590  0.2041 -1.3492
  122OSM   C14S12955   1.192   1.526   9.045 -1.3179  0.1250  0.2063
  122OSM   H14S12956   1.111   1.586   8.998  0.9782  2.9417 -0.4693
  122OSM   H14T12957   1.165   1.420   9.065  0.9184 -0.5930 -0.3345
  122OSM   C15S12958   1.313   1.544   8.955  0.2807 -0.3431 -0.1013
  122OSM   H15S12959   1.404   1.502   9.001  1.3343  0.5641 -1.2766
  122OSM   H15T12960   1.362   1.643   8.956  0.1857 -0.2454  2.9179
  122OSM   C16S12961   1.291   1.483   8.815 -0.1643 -0.1397 -0.0848
  122OSM   H16S12962   1.382   1.479   8.752 -0.0591 -1.6311  0.1291
  122OSM   H16T12963   1.216   1.546   8.763  0.2864  1.5456  1.2071
  122OSM   C17S12964   1.238   1.332   8.817 -0.2105 -0.0966 -0.2202
  122OSM   H17S12965   1.220   1.294   8.714 -2.0877  1.5230 -0.5560
  122OSM   H17T12966   1.134   1.325   8.856 -0.1449  3.8937  1.1979
  122OSM   C18S12967   1.325   1.242   8.908 -0.4978 -0.0944  0.2491
  122OSM   H18S12968   1.327   1.263   9.017  0.8524  1.4699 -0.0404
  122OSM   H18T12969   1.429   1.261   8.874 -0.0572 -1.3440  0.7908
  122OSM   H18U12970   1.303   1.135   8.887 -0.2760 -0.7258  2.8281
  122OSM    C1F12971   0.880   1.293  10.509 -0.3658 -0.7397  0.2135
  122OSM     OF12972   0.784   1.358  10.546  0.1666 -0.1603  0.6587
  122OSM    C2F12973   0.884   1.145  10.523  0.0024 -0.3259 -0.2290
  122OSM    H2F12974   0.924   1.125  10.624 -0.1696  0.2718 -0.0331
  122OSM    H2G12975   0.960   1.099  10.457 -2.6183 -2.0274 -2.2654
  122OSM    C3F12976   0.752   1.067  10.496  0.5909 -0.6461 -0.3782
  122OSM    H3F12977   0.671   1.077  10.571  0.2410  0.3695 -0.8643
  122OSM    H3G12978   0.780   0.960  10.505  1.1256 -0.5212 -0.5137
  122OSM    C4F12979   0.693   1.103  10.359 -0.6181  0.7712  0.0673
  122OSM    H4F12980   0.671   1.212  10.360 -0.5541  0.7965  1.7883
  122OSM    H4G12981   0.600   1.044  10.346 -1.3022  1.6510  0.8782
  122OSM    C5F12982   0.787   1.070  10.237  0.0103 -0.7753 -0.2940
  122OSM    H5F12983   0.790   0.960  10.222 -2.0800 -1.1307  1.3626
  122OSM    H5G12984   0.894   1.100  10.243 -0.3815  0.6972 -0.1842
  122OSM    C6F12985   0.725   1.126  10.108 -0.9499 -0.1288 -0.0776
  122OSM    H6F12986   0.680   1.226  10.126 -0.8705 -0.3755  1.6253
  122OSM    H6G12987   0.643   1.055  10.086  0.6616 -2.2031  0.3402
  122OSM    C7F12988   0.815   1.128   9.987  0.0406  0.0129  0.2293
  122OSM    H7F12989   0.813   1.026   9.945  1.7026 -0.2557  0.7068
  122OSM    H7G12990   0.919   1.125  10.026 -0.0456 -2.2653  0.3931
  122OSM    C8F12991   0.784   1.225   9.872 -0.6999 -0.3127 -0.5465
  122OSM    H8F12992   0.788   1.330   9.909  2.1828 -0.1384 -1.1133
  122OSM    H8G12993   0.679   1.220   9.836 -0.3721  0.6072 -1.6993
  122OSM    C9F12994   0.888   1.221   9.761  0.6086 -0.8466 -0.1842
  122OSM    H9F12995   0.991   1.202   9.792  1.8352  2.9054 -1.4208
  122OSM   C10F12996   0.862   1.226   9.629  0.2149  0.3954  0.5260
  122OSM   H10F12997   0.949   1.213   9.564 -0.0064 -0.7894  0.4485
  122OSM   C11F12998   0.739   1.248   9.548 -0.2449 -0.4698  0.3780
  122OSM   H11F12999   0.725   1.358   9.541 -1.2415 -0.4960  1.5385
  122OSM   H11G13000   0.646   1.198   9.585 -0.5377 -0.5792 -0.4809
  122OSM   C12F13001   0.753   1.180   9.415 -0.4472 -0.0425  0.5368
  122OSM   H12F13002   0.647   1.178   9.382 -0.9185  1.5943  1.8009
  122OSM   H12G13003   0.777   1.072   9.417 -4.6514 -1.1428  1.7357
  122OSM   C13F13004   0.831   1.247   9.296 -0.2038 -0.0387 -0.0780
  122OSM   H13F13005   0.934   1.248   9.339 -0.3392  1.6146  0.2488
  122OSM   H13G13006   0.792   1.351   9.293  0.7194  0.4742  2.6111
  122OSM   C14F13007   0.833   1.176   9.160  0.3678  0.2239 -0.8102
  122OSM   H14F13008   0.779   1.082   9.182  2.1450 -0.7448 -0.3622
  122OSM   H14G13009   0.933   1.142   9.127  1.2454 -0.0719  1.8693
  122OSM   C15F13010   0.774   1.260   9.045  0.5731  0.8224  0.0066
  122OSM   H15F13011   0.784   1.366   9.074 -0.1989  1.6409 -2.4565
  122OSM   H15G13012   0.664   1.249   9.038  0.3157  1.7846  1.9078
  122OSM   C16F13013   0.840   1.239   8.914 -0.6294 -0.1923 -0.3440
  122OSM   H16F13014   0.947   1.265   8.925  0.0322 -3.3503  1.9076
  122OSM   H16G13015   0.788   1.304   8.840 -1.0516  1.2777  1.1940
  122OSM   C17F13016   0.855   1.104   8.857  0.1459  0.0400  0.3525
  122OSM   H17F13017   0.940   1.061   8.914  0.1777 -1.3141 -0.6677
  122OSM   H17G13018   0.893   1.106   8.753 -0.3573 -0.9809  0.1405
  122OSM   C18F13019   0.725   1.016   8.866 -0.0436  0.6272  0.6068
  122OSM   H18F13020   0.741   0.914   8.823  0.1572  0.3944  1.2207
  122OSM   H18G13021   0.647   1.062   8.802  0.4088  1.8910  0.9316
  122OSM   H18H13022   0.685   1.003   8.969  1.7683  1.5605  1.4765
  123OSM      N13023   6.562   0.600   5.902 -0.2047  0.2080 -0.4681
  123OSM    C1513024   6.669   0.576   6.013  0.1202 -0.1464 -0.3507
  123OSM   H15A13025   6.640   0.495   6.078  0.9111 -1.1911 -1.2594
  123OSM   H15B13026   6.681   0.660   6.079  2.7192 -1.4159  0.9527
  123OSM   H15C13027   6.770   0.560   5.979  0.9636 -0.6077  2.1835
  123OSM    C1413028   6.610   0.708   5.814  0.6796 -0.4768  0.2895
  123OSM   H14A13029   6.713   0.685   5.788  0.6857 -1.8057  1.3616
  123OSM   H14B13030   6.619   0.801   5.867  3.6822 -0.3951 -0.1707
  123OSM   H14C13031   6.542   0.714   5.731 -1.2403 -0.8465  1.7661
  123OSM    C1313032   6.566   0.475   5.825 -0.1019  0.6666  0.5864
  123OSM   H13A13033   6.546   0.388   5.886 -1.0894  1.4241  1.3784
  123OSM   H13B13034   6.668   0.455   5.795 -0.1602 -1.0194  1.3996
  123OSM   H13C13035   6.494   0.485   5.745 -1.8780 -1.2566  1.8338
  123OSM    C1213036   6.422   0.621   5.966 -0.0777  0.2394 -0.0376
  123OSM   H12A13037   6.349   0.602   5.889 -0.2737 -1.5456  0.5625
  123OSM   H12B13038   6.406   0.725   5.992 -2.5779  0.2941 -1.4356
  123OSM    C1113039   6.378   0.530   6.090 -0.2555  0.0193  0.0993
  123OSM   H11A13040   6.272   0.561   6.105 -0.3787 -1.3520  2.6661
  123OSM   H11B13041   6.447   0.561   6.172 -1.4731  1.9326  0.4714
  123OSM      P13042   6.422   0.280   6.152 -0.0404 -0.1323 -0.0911
  123OSM    O1313043   6.388   0.149   6.088  0.5917 -0.3802 -0.4146
  123OSM    O1413044   6.566   0.287   6.198  0.0575 -0.6462  0.1654
  123OSM    O1113045   6.324   0.314   6.276 -0.5790 -0.2728  0.3653
  123OSM    O1213046   6.391   0.394   6.051 -0.0637  0.5765  0.5577
  123OSM    C1S13047   6.342   0.229   6.388 -1.0513 -0.1021  0.0947
  123OSM    H1S13048   6.392   0.131   6.369  0.2068  0.4348  0.4846
  123OSM    H1T13049   6.244   0.212   6.436 -0.6115  1.7418  1.7867
  123OSM     NF13050   6.448   0.194   6.613 -0.0872 -0.1381 -0.6261
  123OSM    HNF13051   6.399   0.217   6.697 -0.0528  1.9472 -1.1327
  123OSM    C2S13052   6.421   0.296   6.508  0.2605  0.6048 -0.1787
  123OSM    H2S13053   6.524   0.318   6.474  0.7186 -1.7972 -0.5523
  123OSM    C3S13054   6.348   0.428   6.556  0.1582  0.0910  0.5803
  123OSM    H3S13055   6.247   0.403   6.596 -0.6361 -2.8758 -2.7812
  123OSM     O313056   6.339   0.527   6.455  0.1966 -0.2050 -0.0034
  123OSM    HO313057   6.348   0.470   6.378  0.1361 -0.4212  0.1476
  123OSM    C4S13058   6.436   0.486   6.666  0.8215 -0.4103  0.4446
  123OSM    H4S13059   6.389   0.478   6.765  2.7110  0.2277  1.4454
  123OSM    C5S13060   6.542   0.564   6.669  0.0532 -0.3509  0.4459
  123OSM    H5S13061   6.582   0.610   6.577  1.6565  0.3652  1.4519
  123OSM    C6S13062   6.606   0.627   6.787 -0.6979 -0.0283  0.7836
  123OSM    H6S13063   6.598   0.737   6.776 -0.0830 -0.2642 -5.0405
  123OSM    H6T13064   6.714   0.604   6.780 -0.2016  1.8555  1.5951
  123OSM    C7S13065   6.555   0.581   6.922 -0.1974  0.2732 -0.3991
  123OSM    H7S13066   6.563   0.471   6.919  1.0011  0.3742 -2.4425
  123OSM    H7T13067   6.446   0.600   6.936  0.2564  2.7923  0.3215
  123OSM    C8S13068   6.624   0.638   7.041 -0.0529 -0.2450 -0.5603
  123OSM    H8S13069   6.615   0.748   7.031 -1.7581 -0.3044 -0.0304
  123OSM    H8T13070   6.735   0.640   7.036 -0.0584  0.1649 -0.5952
  123OSM    C9S13071   6.577   0.587   7.170 -0.1760 -0.2209 -0.0215
  123OSM    H9S13072   6.625   0.488   7.183 -0.4226 -0.3449 -0.0608
  123OSM    H9T13073   6.467   0.571   7.169 -0.0329 -1.2612 -0.0680
  123OSM   C10S13074   6.595   0.675   7.291  0.1724  0.3315  0.4777
  123OSM   H10S13075   6.515   0.751   7.290 -0.6665 -0.4349 -3.0800
  123OSM   H10T13076   6.701   0.710   7.284 -0.1399  1.1447 -0.4690
  123OSM   C11S13077   6.573   0.589   7.420 -0.7835  0.3170  0.1027
  123OSM   H11S13078   6.659   0.520   7.435 -0.9262  0.4385  1.7669
  123OSM   H11T13079   6.476   0.535   7.423 -0.8849  0.5048  0.2599
  123OSM   C12S13080   6.582   0.664   7.557 -0.5307  0.7042  0.1199
  123OSM   H12S13081   6.520   0.756   7.551  0.4813  1.3644 -0.6709
  123OSM   H12T13082   6.689   0.691   7.569  0.1556 -1.5170 -0.4979
  123OSM   C13S13083   6.545   0.564   7.674  0.2166  0.2909  1.4239
  123OSM   H13S13084   6.629   0.494   7.693  0.9050  0.3633 -1.0253
  123OSM   H13T13085   6.461   0.494   7.653  1.0486 -0.0884 -0.9689
  123OSM   C14S13086   6.535   0.632   7.808 -0.5743 -0.0920 -0.0075
  123OSM   H14S13087   6.446   0.699   7.811 -0.8734 -0.5302  1.9226
  123OSM   H14T13088   6.619   0.705   7.815 -1.1424  0.4565  1.3310
  123OSM   C15S13089   6.551   0.530   7.927 -0.1229 -0.0536  0.2481
  123OSM   H15S13090   6.644   0.471   7.908  0.6953  1.4386 -0.6020
  123OSM   H15T13091   6.471   0.455   7.908 -0.6037  0.8242 -1.3838
  123OSM   C16S13092   6.555   0.593   8.064 -0.6342 -1.0702 -0.9437
  123OSM   H16S13093   6.454   0.639   8.066 -0.3511 -0.4615  0.2745
  123OSM   H16T13094   6.619   0.683   8.076 -2.0274  0.2242 -2.5934
  123OSM   C17S13095   6.577   0.494   8.174 -0.4793 -0.0852  0.2771
  123OSM   H17S13096   6.683   0.460   8.171  0.4124  2.4148  0.8823
  123OSM   H17T13097   6.507   0.411   8.151 -0.5138 -0.2197  0.8649
  123OSM   C18S13098   6.560   0.551   8.311  0.1593 -0.4180 -0.1452
  123OSM   H18S13099   6.566   0.479   8.395  2.2987 -0.8693 -0.6130
  123OSM   H18T13100   6.464   0.602   8.333  0.1061 -0.1170 -1.0171
  123OSM   H18U13101   6.625   0.637   8.338  0.1010 -0.9998  2.0379
  123OSM    C1F13102   6.527   0.087   6.600 -0.4183 -0.1312  0.1316
  123OSM     OF13103   6.585   0.056   6.502  0.3008 -0.2221  0.3208
  123OSM    C2F13104   6.542  -0.001   6.719 -0.3492  0.1235 -0.0492
  123OSM    H2F13105   6.441  -0.036   6.748  0.0689 -0.8296  0.2862
  123OSM    H2G13106   6.586   0.067   6.795 -2.5616  1.5456  0.0599
  123OSM    C3F13107   6.639  -0.117   6.695 -0.0454 -0.0950  0.5374
  123OSM    H3F13108   6.732  -0.095   6.639 -0.8779 -1.0998 -1.3305
  123OSM    H3G13109   6.582  -0.176   6.620 -2.7013  4.0966 -1.0627
  123OSM    C4F13110   6.669  -0.203   6.818  0.0650  0.4331 -0.0327
  123OSM    H4F13111   6.712  -0.300   6.786 -1.0959  0.6180 -2.3987
  123OSM    H4G13112   6.578  -0.218   6.881  1.7420 -3.0203  1.8111
  123OSM    C5F13113   6.778  -0.127   6.900  0.7848 -0.5343 -0.5909
  123OSM    H5F13114   6.722  -0.037   6.934  2.6285  1.1385 -1.7764
  123OSM    H5G13115   6.856  -0.079   6.837  2.2151  1.6921  2.5840
  123OSM    C6F13116   6.836  -0.207   7.011  0.8957  0.4690 -0.3290
  123OSM    H6F13117   6.894  -0.141   7.079 -2.7279  1.6691  1.9279
  123OSM    H6G13118   6.895  -0.290   6.967 -0.6502 -0.5644 -0.5406
  123OSM    C7F13119   6.728  -0.258   7.106  0.1404 -0.1223 -0.8311
  123OSM    H7F13120   6.664  -0.327   7.047  1.7991 -1.8333 -0.7267
  123OSM    H7G13121   6.661  -0.179   7.147  1.2455  0.6402 -0.4376
  123OSM    C8F13122   6.787  -0.329   7.228  0.0221  0.0583 -0.7062
  123OSM    H8F13123   6.849  -0.261   7.290 -1.0102  0.1508  0.2588
  123OSM    H8G13124   6.850  -0.415   7.200  0.5688 -0.1952  1.1416
  123OSM    C9F13125   6.668  -0.385   7.306  0.1175 -0.4667 -0.0073
  123OSM    H9F13126   6.572  -0.390   7.252 -2.0541  1.9360  3.2056
  123OSM   C10F13127   6.680  -0.424   7.437 -0.1279 -0.5100  0.3766
  123OSM   H10F13128   6.586  -0.461   7.481 -1.0554 -0.3304 -1.3536
  123OSM   C11F13129   6.808  -0.420   7.512  0.8143  0.7950 -0.1311
  123OSM   H11F13130   6.892  -0.438   7.442  0.2123 -0.8144 -0.4829
  123OSM   H11G13131   6.797  -0.498   7.591  1.3920  1.9229  1.1090
  123OSM   C12F13132   6.826  -0.283   7.581 -0.0404 -0.2763  0.5494
  123OSM   H12F13133   6.773  -0.274   7.678  0.9364 -3.9637  1.5760
  123OSM   H12G13134   6.769  -0.208   7.523 -0.6439  0.9049  2.5861
  123OSM   C13F13135   6.969  -0.241   7.597  0.1011 -0.2263  0.8481
  123OSM   H13F13136   6.977  -0.131   7.611  1.7466 -0.3683  1.2630
  123OSM   H13G13137   7.024  -0.281   7.510 -3.6372 -2.4984 -0.6796
  123OSM   C14F13138   7.051  -0.302   7.716  0.0584 -0.1235  0.6016
  123OSM   H14F13139   7.140  -0.236   7.725 -1.1674  1.3642  2.7107
  123OSM   H14G13140   7.098  -0.403   7.710 -4.1252 -2.3466  1.3451
  123OSM   C15F13141   6.978  -0.295   7.851 -0.0827  0.1444  0.3767
  123OSM   H15F13142   6.893  -0.365   7.837  1.8245 -2.6087  1.5979
  123OSM   H15G13143   6.951  -0.191   7.876 -0.5423 -0.0587  0.7491
  123OSM   C16F13144   7.070  -0.335   7.969 -0.0315 -0.2086 -0.3015
  123OSM   H16F13145   7.151  -0.259   7.964 -0.2832  0.0175 -0.9309
  123OSM   H16G13146   7.113  -0.434   7.942 -0.0044 -0.6933  1.3973
  123OSM   C17F13147   7.002  -0.352   8.102 -1.0370  0.0084  0.1542
  123OSM   H17F13148   7.063  -0.403   8.179  1.8141  0.5769 -1.5800
  123OSM   H17G13149   6.909  -0.406   8.075 -1.6093  1.4309 -0.8385
  123OSM   C18F13150   6.965  -0.219   8.171 -0.3244  0.2827  0.2873
  123OSM   H18F13151   6.908  -0.239   8.265 -0.5130  0.6133  0.2430
  123OSM   H18G13152   6.889  -0.156   8.120 -1.9369 -0.9233  1.1030
  123OSM   H18H13153   7.052  -0.157   8.200 -1.7599  2.0433  1.0450
  124OSM      N13154   1.813   5.318   6.395 -0.2688 -0.5633  0.2632
  124OSM    C1513155   1.762   5.178   6.405  0.6817 -0.0811  0.0131
  124OSM   H15A13156   1.798   5.132   6.496 -2.1608 -1.0008  0.8011
  124OSM   H15B13157   1.786   5.116   6.319 -0.9230 -2.6912  1.2975
  124OSM   H15C13158   1.654   5.172   6.409  0.6783  0.3715  0.6517
  124OSM    C1413159   1.944   5.319   6.320  0.5121 -0.2286 -0.5128
  124OSM   H14A13160   1.988   5.222   6.338 -2.0220 -1.2708  0.5176
  124OSM   H14B13161   2.013   5.397   6.349 -0.6394  0.9544 -0.8867
  124OSM   H14C13162   1.935   5.337   6.214  0.5526 -0.2245 -0.5156
  124OSM    C1313163   1.719   5.415   6.326  0.1862 -0.3187  0.8009
  124OSM   H13A13164   1.627   5.431   6.380 -0.2187  0.7708 -0.1657
  124OSM   H13B13165   1.697   5.382   6.225  0.7460 -0.9302  0.8727
  124OSM   H13C13166   1.764   5.513   6.329  0.3212 -0.4045  2.7390
  124OSM    C1213167   1.844   5.369   6.533 -0.1021 -0.1312 -0.1465
  124OSM   H12A13168   1.763   5.352   6.603  1.7590 -2.1701  1.6879
  124OSM   H12B13169   1.853   5.476   6.531 -0.6639 -0.0588  0.6185
  124OSM    C1113170   1.970   5.310   6.608  0.4803  0.0499 -0.6874
  124OSM   H11A13171   1.964   5.344   6.714 -2.1426 -2.1813  0.0209
  124OSM   H11B13172   2.062   5.352   6.563  0.3309  1.1141 -0.0354
  124OSM      P13173   2.106   5.096   6.568 -0.1460  0.1333  0.2125
  124OSM    O1313174   2.091   4.949   6.572  0.1246  0.3769  0.0784
  124OSM    O1413175   2.151   5.153   6.439  0.0680 -0.2461 -0.0994
  124OSM    O1113176   2.214   5.139   6.680 -0.0198  0.3288  0.4440
  124OSM    O1213177   1.973   5.167   6.607  0.7744 -0.0369 -0.4180
  124OSM    C1S13178   2.185   5.101   6.811 -0.5751  0.2918 -0.3893
  124OSM    H1S13179   2.204   4.993   6.831  1.1741  0.7220  0.4609
  124OSM    H1T13180   2.085   5.138   6.841 -0.9835 -1.2043  0.2100
  124OSM     NF13181   2.262   5.117   7.040 -0.4768  0.6849  0.1862
  124OSM    HNF13182   2.188   5.153   7.097 -0.2499 -0.0921  0.9803
  124OSM    C2S13183   2.285   5.172   6.912 -0.2231  0.0155  0.3938
  124OSM    H2S13184   2.382   5.138   6.871  0.1011  0.1624  1.0274
  124OSM    C3S13185   2.283   5.332   6.901  0.0167 -0.1422  0.2208
  124OSM    H3S13186   2.185   5.364   6.943  1.8042  2.0890  3.1543
  124OSM     O313187   2.290   5.378   6.767 -0.0081 -0.2671  0.4099
  124OSM    HO313188   2.257   5.306   6.712  0.4542  0.0497 -0.2888
  124OSM    C4S13189   2.376   5.402   6.990  0.0295 -0.3826 -0.0288
  124OSM    H4S13190   2.478   5.423   6.956 -0.7791  3.1089 -0.7055
  124OSM    C5S13191   2.335   5.466   7.104  0.3561  0.1830  0.0492
  124OSM    H5S13192   2.229   5.492   7.114  0.7858  1.8259  0.8113
  124OSM    C6S13193   2.430   5.533   7.200  0.5495 -0.5196 -0.3666
  124OSM    H6S13194   2.414   5.643   7.206  3.5598 -0.0736  2.4695
  124OSM    H6T13195   2.538   5.530   7.172  0.6743  2.6517 -0.6146
  124OSM    C7S13196   2.396   5.492   7.349 -0.0457  0.1637 -0.2413
  124OSM    H7S13197   2.288   5.493   7.376  0.3766  0.8116  1.5430
  124OSM    H7T13198   2.449   5.566   7.413 -2.5446  0.0911  2.0750
  124OSM    C8S13199   2.456   5.355   7.387  0.0571 -0.2472 -0.3237
  124OSM    H8S13200   2.566   5.358   7.370  0.8578 -1.2211  3.6450
  124OSM    H8T13201   2.406   5.279   7.323 -1.1973 -2.6872  3.1964
  124OSM    C9S13202   2.431   5.318   7.532  0.0371 -0.4113 -0.3322
  124OSM    H9S13203   2.460   5.212   7.547  0.9047 -0.1173  0.1710
  124OSM    H9T13204   2.324   5.333   7.558 -0.2981  0.1558 -1.9407
  124OSM   C10S13205   2.521   5.397   7.635 -0.1462 -0.1331 -1.0458
  124OSM   H10S13206   2.495   5.503   7.614  1.1317  0.1369 -1.3300
  124OSM   H10T13207   2.628   5.385   7.610  0.3585  1.2375  0.2526
  124OSM   C11S13208   2.492   5.362   7.783  0.2954 -0.0276  0.2827
  124OSM   H11S13209   2.479   5.252   7.777 -4.1836  0.2996  0.5740
  124OSM   H11T13210   2.398   5.415   7.808  0.8631  2.7783 -2.7502
  124OSM   C12S13211   2.601   5.402   7.881  0.3327 -0.6993 -0.5276
  124OSM   H12S13212   2.551   5.490   7.927  0.9106 -0.0302 -1.1552
  124OSM   H12T13213   2.695   5.444   7.839  0.9234  0.0188  1.4059
  124OSM   C13S13214   2.630   5.297   7.989  0.4107  0.3291 -0.2838
  124OSM   H13S13215   2.530   5.269   8.029  1.2655 -2.5869  0.0051
  124OSM   H13T13216   2.680   5.344   8.077 -0.7508 -0.1156  0.6455
  124OSM   C14S13217   2.711   5.181   7.935  0.2497 -0.8045 -0.3596
  124OSM   H14S13218   2.819   5.208   7.936  0.4568 -1.5566  0.8387
  124OSM   H14T13219   2.695   5.171   7.826  1.6984 -1.0716 -0.5668
  124OSM   C15S13220   2.700   5.046   8.009 -0.1004 -0.9993  0.0317
  124OSM   H15S13221   2.601   5.000   7.987 -2.2987  2.5678  1.6345
  124OSM   H15T13222   2.698   5.071   8.117 -0.0272  3.2889 -0.7627
  124OSM   C16S13223   2.811   4.953   7.972 -0.7336  0.5204  0.1691
  124OSM   H16S13224   2.903   4.996   8.017 -1.5301  2.0028  0.4413
  124OSM   H16T13225   2.828   4.953   7.862  1.8970  3.2716  0.4701
  124OSM   C17S13226   2.782   4.813   8.020  0.3116 -0.4792  0.1107
  124OSM   H17S13227   2.680   4.793   7.980  0.7154  2.1612 -2.6838
  124OSM   H17T13228   2.780   4.816   8.131  1.2419 -0.3103  0.1319
  124OSM   C18S13229   2.879   4.711   7.979 -0.5463  0.2214  0.2016
  124OSM   H18S13230   2.983   4.741   8.006 -0.5883 -0.3414  1.0240
  124OSM   H18T13231   2.883   4.698   7.869  0.5557  1.5103  0.0717
  124OSM   H18U13232   2.863   4.610   8.024 -1.1410  0.7147  1.1250
  124OSM    C1F13233   2.315   5.004   7.079 -0.0905 -0.6728 -0.1765
  124OSM     OF13234   2.382   4.939   7.004 -0.1035 -0.0199 -0.6495
  124OSM    C2F13235   2.285   4.950   7.214 -0.2228  0.2272 -0.2007
  124OSM    H2F13236   2.233   4.852   7.210 -1.4416  0.8710 -1.0567
  124OSM    H2G13237   2.207   5.007   7.269 -1.3378 -0.4433 -1.0352
  124OSM    C3F13238   2.415   4.939   7.306  0.1172 -0.1352 -0.1795
  124OSM    H3F13239   2.462   5.035   7.334  1.1970 -0.9166  0.8015
  124OSM    H3G13240   2.485   4.884   7.240  0.9998  1.8751 -0.9864
  124OSM    C4F13241   2.381   4.855   7.427  0.7445 -0.4376  0.2842
  124OSM    H4F13242   2.337   4.756   7.403 -0.7861 -0.0934  1.5284
  124OSM    H4G13243   2.317   4.925   7.485  2.0471  1.5579 -0.5704
  124OSM    C5F13244   2.500   4.822   7.525  0.7300  0.3288 -0.3549
  124OSM    H5F13245   2.452   4.800   7.623  0.8865  0.2857 -0.2871
  124OSM    H5G13246   2.561   4.914   7.540  0.0725  0.5079  1.5693
  124OSM    C6F13247   2.581   4.695   7.500  0.8363 -0.4385 -0.2472
  124OSM    H6F13248   2.595   4.698   7.390  0.9280  2.8083 -0.2490
  124OSM    H6G13249   2.539   4.595   7.525  2.3372 -0.7668  1.1221
  124OSM    C7F13250   2.722   4.713   7.553 -0.2200 -0.6851 -0.0494
  124OSM    H7F13251   2.720   4.776   7.644  1.4910  0.1129 -0.5158
  124OSM    H7G13252   2.778   4.768   7.474 -1.3957  1.5698  0.6112
  124OSM    C8F13253   2.802   4.586   7.565 -0.1805 -0.5878 -0.5897
  124OSM    H8F13254   2.910   4.606   7.580  0.5354 -3.0934 -1.8772
  124OSM    H8G13255   2.792   4.521   7.475  0.3267 -1.3653 -0.0944
  124OSM    C9F13256   2.762   4.504   7.681 -0.0297 -0.4857 -0.5474
  124OSM    H9F13257   2.655   4.495   7.706 -0.1607  2.2877  0.3099
  124OSM   C10F13258   2.841   4.424   7.757  0.1357 -0.0128 -0.4833
  124OSM   H10F13259   2.793   4.375   7.843  0.3128 -2.0674 -1.4973
  124OSM   C11F13260   2.992   4.403   7.754  0.8508 -0.8683  0.0031
  124OSM   H11F13261   3.037   4.495   7.799 -2.3103 -0.4118  2.6733
  124OSM   H11G13262   3.025   4.399   7.649 -1.3539 -1.5969 -0.7135
  124OSM   C12F13263   3.048   4.277   7.833 -0.2172 -0.3609 -0.1534
  124OSM   H12F13264   3.159   4.288   7.834 -0.1749 -0.7714  0.7103
  124OSM   H12G13265   3.016   4.176   7.800  2.6922 -1.8190  1.0838
  124OSM   C13F13266   3.003   4.281   7.988  0.1488  0.5643 -0.2678
  124OSM   H13F13267   2.899   4.241   7.985  0.2676  0.3044 -1.5405
  124OSM   H13G13268   2.996   4.381   8.036 -3.1033 -1.1911  3.4490
  124OSM   C14F13269   3.088   4.192   8.084 -0.1346  0.2260 -0.3739
  124OSM   H14F13270   3.031   4.202   8.179 -2.3765 -0.5334 -1.5833
  124OSM   H14G13271   3.185   4.247   8.081  0.4894 -0.8799 -2.0295
  124OSM   C15F13272   3.116   4.055   8.036  0.3311 -0.4553  0.4648
  124OSM   H15F13273   3.155   4.057   7.932 -2.8529  1.8336 -0.8644
  124OSM   H15G13274   3.018   4.002   8.034 -0.7316  1.4064  0.6787
  124OSM   C16F13275   3.209   3.975   8.122 -0.5890  0.3489  0.1306
  124OSM   H16F13276   3.305   4.030   8.110  0.3033 -1.5294 -1.9517
  124OSM   H16G13277   3.231   3.876   8.076 -1.3540  0.7126 -1.0556
  124OSM   C17F13278   3.170   3.958   8.266 -0.0210  0.0454 -0.6181
  124OSM   H17F13279   3.163   4.059   8.310  1.0130  0.0858 -0.5434
  124OSM   H17G13280   3.253   3.904   8.315  0.1169  1.7604  1.1254
  124OSM   C18F13281   3.033   3.896   8.284 -0.2465 -0.5792  0.0068
  124OSM   H18F13282   3.050   3.802   8.229 -1.0531 -0.4459 -0.4756
  124OSM   H18G13283   2.959   3.962   8.234 -0.1714 -0.8904 -0.5198
  124OSM   H18H13284   3.013   3.882   8.393  1.8711 -2.6483  0.1969
  125OSM      N13285   1.982   6.395   6.227 -0.2590 -0.4120  0.0944
  125OSM    C1513286   2.038   6.515   6.300  1.0361  0.6629  0.6427
  125OSM   H15A13287   2.145   6.518   6.286  1.0129 -3.9055 -2.8502
  125OSM   H15B13288   2.032   6.499   6.407 -0.4329 -0.7654  0.3912
  125OSM   H15C13289   1.989   6.606   6.269  0.2388  1.2139  3.2803
  125OSM    C1413290   1.843   6.372   6.282  0.3673  0.5135  0.1378
  125OSM   H14A13291   1.778   6.451   6.248  1.5510  2.1048  1.3827
  125OSM   H14B13292   1.841   6.366   6.390 -0.4308 -1.3846  0.0414
  125OSM   H14C13293   1.802   6.281   6.241  1.1800  1.1644 -2.3235
  125OSM    C1313294   1.968   6.435   6.089  0.3995  0.2232  0.1240
  125OSM   H13A13295   2.064   6.436   6.038  0.6203  0.1397  0.5343
  125OSM   H13B13296   1.922   6.532   6.078 -0.8596 -0.6023 -3.0944
  125OSM   H13C13297   1.904   6.369   6.033  0.1416  2.2115 -2.1014
  125OSM    C1213298   2.073   6.269   6.239  0.0430  0.1734 -0.4031
  125OSM   H12A13299   2.041   6.191   6.171 -0.5515  1.0298 -1.1386
  125OSM   H12B13300   2.081   6.241   6.343 -0.7535  0.8640 -0.1437
  125OSM    C1113301   2.221   6.294   6.177 -0.3405  0.4825  0.0192
  125OSM   H11A13302   2.215   6.331   6.072 -0.1898 -0.3281 -0.2893
  125OSM   H11B13303   2.280   6.201   6.161  2.4750  2.1344  0.1981
  125OSM      P13304   2.404   6.336   6.353 -0.2169 -0.1459 -0.1243
  125OSM    O1313305   2.341   6.251   6.459 -0.2039  0.1814  0.2201
  125OSM    O1413306   2.510   6.277   6.266  0.2575 -0.3846  0.1894
  125OSM    O1113307   2.451   6.472   6.415  0.1683  0.0621  0.0700
  125OSM    O1213308   2.301   6.388   6.251  0.7561 -0.2185  0.1077
  125OSM    C1S13309   2.367   6.576   6.457  0.3400  0.4432 -0.2707
  125OSM    H1S13310   2.260   6.564   6.427 -0.1870 -0.8809  1.9504
  125OSM    H1T13311   2.395   6.681   6.434  1.9396 -0.2834 -1.9593
  125OSM     NF13312   2.285   6.678   6.667 -0.1179  0.0208  0.5047
  125OSM    HNF13313   2.323   6.756   6.715  2.3206  0.5887 -2.0527
  125OSM    C2S13314   2.382   6.581   6.607  0.1961  0.0302 -0.0042
  125OSM    H2S13315   2.352   6.485   6.655 -1.8256  1.2302  1.3165
  125OSM    C3S13316   2.522   6.611   6.663 -0.3520  0.4356 -0.2023
  125OSM    H3S13317   2.542   6.715   6.630 -1.4040  0.1503 -1.8475
  125OSM     O313318   2.624   6.534   6.607  0.0123 -0.4717  0.8264
  125OSM    HO313319   2.587   6.505   6.524  0.0715  1.1973  0.1795
  125OSM    C4S13320   2.511   6.580   6.811 -0.3196 -0.1555 -0.2120
  125OSM    H4S13321   2.463   6.656   6.874  1.3206 -0.2587  1.2385
  125OSM    C5S13322   2.545   6.466   6.884 -0.0194 -1.0287 -0.0221
  125OSM    H5S13323   2.576   6.376   6.830 -3.2593 -2.0861 -0.3032
  125OSM    C6S13324   2.521   6.449   7.030 -0.6691  0.7529  0.6395
  125OSM    H6S13325   2.602   6.384   7.071 -1.0949  1.2896  2.4185
  125OSM    H6T13326   2.425   6.394   7.031 -1.1556  1.5291 -0.8527
  125OSM    C7S13327   2.519   6.572   7.121  0.3676 -0.3748  0.0335
  125OSM    H7S13328   2.419   6.618   7.106  0.2318 -1.1905 -1.8715
  125OSM    H7T13329   2.590   6.650   7.085 -0.4382  0.4939  0.2992
  125OSM    C8S13330   2.534   6.546   7.276 -0.3490  0.2267 -0.5313
  125OSM    H8S13331   2.624   6.481   7.283  0.2188  1.1565  2.6796
  125OSM    H8T13332   2.450   6.485   7.315  0.9491 -1.5437 -0.4235
  125OSM    C9S13333   2.548   6.668   7.358  0.6235  0.9850  0.1063
  125OSM    H9S13334   2.471   6.746   7.338 -0.2204  0.5270  1.3701
  125OSM    H9T13335   2.638   6.719   7.320  0.7683  0.5456 -0.1480
  125OSM   C10S13336   2.574   6.650   7.503  0.2844 -0.2287 -0.6160
  125OSM   H10S13337   2.585   6.748   7.555  1.4691 -0.6701  0.0108
  125OSM   H10T13338   2.672   6.600   7.520  1.0925  1.3151 -0.5367
  125OSM   C11S13339   2.458   6.578   7.574 -0.2100 -0.2665 -0.3138
  125OSM   H11S13340   2.422   6.490   7.516 -1.3756 -0.2415  0.3479
  125OSM   H11T13341   2.366   6.640   7.583  0.7555  1.1084  0.3756
  125OSM   C12S13342   2.493   6.532   7.718  0.2947  0.5975  0.4505
  125OSM   H12S13343   2.583   6.467   7.713  0.9732  0.9221  4.6909
  125OSM   H12T13344   2.417   6.454   7.739  0.5647 -0.1604 -1.2297
  125OSM   C13S13345   2.503   6.647   7.816 -0.1799 -0.2229 -0.9357
  125OSM   H13S13346   2.407   6.703   7.830 -0.1668  0.1813 -2.3149
  125OSM   H13T13347   2.581   6.721   7.787 -0.8667 -0.1074 -2.6389
  125OSM   C14S13348   2.532   6.587   7.959  0.2814  0.2060 -0.1492
  125OSM   H14S13349   2.630   6.535   7.966  0.2695 -0.0951 -1.8090
  125OSM   H14T13350   2.455   6.507   7.963  0.7805 -0.4524 -2.2632
  125OSM   C15S13351   2.515   6.697   8.065  0.2325 -0.3129  0.1572
  125OSM   H15S13352   2.419   6.754   8.056 -0.0199 -0.8396 -0.5383
  125OSM   H15T13353   2.608   6.755   8.048 -0.0439 -0.2984 -1.4456
  125OSM   C16S13354   2.501   6.628   8.202 -0.0391  0.2293 -0.3195
  125OSM   H16S13355   2.572   6.544   8.216 -1.2872 -0.9471 -0.7310
  125OSM   H16T13356   2.404   6.574   8.205  1.7145 -3.2195 -0.6942
  125OSM   C17S13357   2.508   6.726   8.318 -0.0212 -0.3169 -0.2451
  125OSM   H17S13358   2.502   6.673   8.416 -2.2413  0.7644  0.2641
  125OSM   H17T13359   2.436   6.811   8.318  2.2301  1.7201 -1.7324
  125OSM   C18S13360   2.640   6.800   8.319 -0.0985 -0.5424 -0.6277
  125OSM   H18S13361   2.643   6.873   8.235 -3.4692 -0.4741 -0.8331
  125OSM   H18T13362   2.717   6.725   8.292 -1.8899 -2.1755 -1.4460
  125OSM   H18U13363   2.664   6.843   8.418  0.1855 -0.6637 -0.6427
  125OSM    C1F13364   2.151   6.661   6.675  0.3142  0.2676 -0.7118
  125OSM     OF13365   2.110   6.546   6.643  0.2957 -1.2591  0.1579
  125OSM    C2F13366   2.058   6.782   6.721 -0.6710  0.4920 -0.2201
  125OSM    H2F13367   2.011   6.827   6.632 -0.1973  0.5558 -0.4422
  125OSM    H2G13368   2.125   6.850   6.778 -0.7842  0.2248  0.2391
  125OSM    C3F13369   1.944   6.738   6.813 -0.5039 -0.0701  0.3350
  125OSM    H3F13370   1.881   6.671   6.752 -0.6852 -1.6390  2.1533
  125OSM    H3G13371   1.871   6.822   6.818  1.0474  1.2865  0.9525
  125OSM    C4F13372   1.978   6.682   6.944 -0.1033  0.0813  0.4872
  125OSM    H4F13373   2.049   6.598   6.932  0.9457  1.0276 -0.1037
  125OSM    H4G13374   1.885   6.638   6.986  0.5618  0.6216  2.6970
  125OSM    C5F13375   2.040   6.782   7.042 -0.1591 -0.7555  0.4049
  125OSM    H5F13376   1.975   6.872   7.051 -0.1452 -0.8221  1.2005
  125OSM    H5G13377   2.139   6.811   7.001 -0.9437 -1.6676 -2.3948
  125OSM    C6F13378   2.052   6.737   7.189  0.2264 -0.3910 -0.4071
  125OSM    H6F13379   2.105   6.639   7.187  0.2406 -0.4417  1.1571
  125OSM    H6G13380   1.959   6.717   7.246  0.4847  0.7132  0.4238
  125OSM    C7F13381   2.123   6.844   7.280  0.6355 -0.6852 -0.1352
  125OSM    H7F13382   2.061   6.936   7.275 -0.4544 -1.4502 -2.9867
  125OSM    H7G13383   2.224   6.871   7.243  1.1482  1.5535  2.6318
  125OSM    C8F13384   2.138   6.804   7.428  0.6802 -0.3092  0.0053
  125OSM    H8F13385   2.179   6.700   7.425  0.5535 -0.3722  0.4166
  125OSM    H8G13386   2.034   6.791   7.466  0.5596 -0.5410 -0.3971
  125OSM    C9F13387   2.224   6.888   7.514 -0.5636  0.2459 -0.2048
  125OSM    H9F13388   2.330   6.858   7.514 -0.8084 -1.1432  3.4485
  125OSM   C10F13389   2.194   7.003   7.577 -0.0167  0.0103  0.5296
  125OSM   H10F13390   2.280   7.049   7.628  1.2932  1.5899 -2.8082
  125OSM   C11F13391   2.052   7.066   7.589 -0.7133  0.6312 -0.1398
  125OSM   H11F13392   1.997   7.056   7.493  1.9390 -0.9755 -1.5967
  125OSM   H11G13393   2.058   7.177   7.602  0.4892  0.5665 -0.0460
  125OSM   C12F13394   1.976   7.005   7.711  0.6642  0.5840 -0.3861
  125OSM   H12F13395   1.967   6.894   7.703 -0.9603  0.6321  0.4128
  125OSM   H12G13396   1.880   7.058   7.730  0.5984  0.4765 -0.4175
  125OSM   C13F13397   2.046   7.031   7.849 -0.6659  0.0609 -0.1134
  125OSM   H13F13398   2.154   7.005   7.849 -0.9519 -1.2382 -1.2512
  125OSM   H13G13399   1.997   6.967   7.925 -1.0321  1.2676  0.7119
  125OSM   C14F13400   2.019   7.171   7.898 -0.0949 -0.2989  0.5110
  125OSM   H14F13401   1.911   7.198   7.889 -0.6816 -2.4963  0.3151
  125OSM   H14G13402   2.078   7.238   7.831 -0.6793 -0.5289 -0.2471
  125OSM   C15F13403   2.072   7.212   8.032 -0.7204  1.1909 -0.0874
  125OSM   H15F13404   2.069   7.323   8.042  1.8206  1.3208 -0.1778
  125OSM   H15G13405   2.180   7.189   8.039 -0.7483  1.5580  3.4969
  125OSM   C16F13406   1.994   7.137   8.144 -0.5873  0.2708 -0.2462
  125OSM   H16F13407   1.998   7.029   8.120  2.1111  0.3420 -0.4419
  125OSM   H16G13408   1.889   7.174   8.147 -1.1556 -1.2528 -0.5855
  125OSM   C17F13409   2.054   7.164   8.279  0.3011 -0.1476 -0.6352
  125OSM   H17F13410   2.070   7.274   8.287  1.1635 -0.3202  0.1652
  125OSM   H17G13411   2.150   7.111   8.299 -0.1136 -0.5946  0.1988
  125OSM   C18F13412   1.953   7.126   8.383 -0.0488  0.0506  0.8633
  125OSM   H18F13413   1.990   7.151   8.485 -3.0072 -3.0237  2.9258
  125OSM   H18G13414   1.938   7.016   8.379  1.2598 -0.1015 -0.4885
  125OSM   H18H13415   1.855   7.177   8.368 -0.0096 -0.5563 -2.0139
  126OSM      N13416   5.364   5.194   6.683  0.1769  0.4396  0.2394
  126OSM    C1513417   5.266   5.123   6.776  0.0189  0.3440 -0.3689
  126OSM   H15A13418   5.170   5.170   6.789 -0.9633 -1.3489 -1.1061
  126OSM   H15B13419   5.299   5.110   6.878  2.1065  0.3951 -0.9926
  126OSM   H15C13420   5.243   5.026   6.733  1.0107  0.3339 -0.9194
  126OSM    C1413421   5.464   5.102   6.640  0.1565  0.2201 -0.0416
  126OSM   H14A13422   5.551   5.152   6.602  0.3656  0.5751  0.8661
  126OSM   H14B13423   5.431   5.059   6.547 -3.5089 -0.0794  1.2115
  126OSM   H14C13424   5.506   5.035   6.714  1.2650  0.3911 -0.5005
  126OSM    C1313425   5.273   5.235   6.572 -0.0778 -0.0180 -0.0618
  126OSM   H13A13426   5.322   5.275   6.484 -0.8141 -1.5586 -1.2169
  126OSM   H13B13427   5.201   5.311   6.601  1.0903  1.0052  0.2641
  126OSM   H13C13428   5.215   5.152   6.534 -0.1553  0.9587 -2.2594
  126OSM    C1213429   5.419   5.321   6.759 -0.1894 -0.2398  0.3784
  126OSM   H12A13430   5.487   5.297   6.839  1.2245 -0.8132 -0.9462
  126OSM   H12B13431   5.330   5.375   6.788  0.8937  0.9227  1.6591
  126OSM    C1113432   5.499   5.418   6.661  0.1005 -0.4625  0.3758
  126OSM   H11A13433   5.520   5.498   6.734 -1.4924 -2.7714  3.5911
  126OSM   H11B13434   5.436   5.450   6.575  0.1532 -3.0143 -0.7196
  126OSM      P13435   5.766   5.411   6.637 -0.1694 -0.3934  0.1493
  126OSM    O1313436   5.866   5.304   6.617  0.6579 -0.3952  0.6881
  126OSM    O1413437   5.779   5.528   6.548 -0.1586  0.9417  0.9191
  126OSM    O1113438   5.774   5.456   6.789  0.4400  0.4036  0.4212
  126OSM    O1213439   5.622   5.359   6.611 -0.6319 -0.0559  0.0592
  126OSM    C1S13440   5.837   5.589   6.807 -0.1266 -0.0911 -0.3137
  126OSM    H1S13441   5.765   5.667   6.772 -1.2017 -1.0228 -0.2611
  126OSM    H1T13442   5.939   5.609   6.769  0.0780  0.6880  0.6082
  126OSM     NF13443   5.912   5.746   6.974  0.1270  0.1214  0.3688
  126OSM    HNF13444   6.009   5.737   6.993 -0.0898 -0.0228  1.4767
  126OSM    C2S13445   5.841   5.620   6.956 -0.9928  0.4075 -0.3368
  126OSM    H2S13446   5.737   5.626   6.996 -0.6330 -1.6823  1.0756
  126OSM    C3S13447   5.911   5.505   7.036  0.1478  0.0926  0.7815
  126OSM    H3S13448   6.016   5.496   7.000 -0.3069 -2.0585 -0.2198
  126OSM     O313449   5.844   5.376   7.011 -0.7170  0.2816  0.7545
  126OSM    HO313450   5.812   5.377   6.920 -2.8669  0.0960  1.4366
  126OSM    C4S13451   5.899   5.532   7.185  0.2838 -0.5155  0.2336
  126OSM    H4S13452   5.801   5.516   7.231  1.1441 -2.1057  1.5894
  126OSM    C5S13453   5.999   5.581   7.266  0.4061  0.7374  0.0113
  126OSM    H5S13454   6.097   5.609   7.224  1.2093  2.0276  2.5211
  126OSM    C6S13455   5.986   5.608   7.412 -0.1232 -0.1452  0.5404
  126OSM    H6S13456   6.001   5.718   7.421 -0.7407 -0.2265  4.0194
  126OSM    H6T13457   6.071   5.557   7.461 -0.3449 -0.1417  0.9302
  126OSM    C7S13458   5.846   5.554   7.473 -0.1334 -0.4544  0.8756
  126OSM    H7S13459   5.819   5.456   7.428 -0.2857 -0.9396  2.0128
  126OSM    H7T13460   5.765   5.628   7.458  0.4410  0.3485  1.6070
  126OSM    C8S13461   5.861   5.533   7.624  0.2804  0.2573  0.1819
  126OSM    H8S13462   5.870   5.627   7.683  2.8325  0.9094 -1.1039
  126OSM    H8T13463   5.955   5.475   7.635 -0.0587 -0.3247  0.0475
  126OSM    C9S13464   5.743   5.446   7.684 -0.0407  0.1363  0.3441
  126OSM    H9S13465   5.728   5.361   7.614  0.7593  0.2773 -0.0102
  126OSM    H9T13466   5.651   5.508   7.686  0.6139  1.1342  0.2394
  126OSM   C10S13467   5.777   5.404   7.825 -0.6922  0.8289 -0.6434
  126OSM   H10S13468   5.800   5.493   7.887  0.3104 -1.8894  3.2632
  126OSM   H10T13469   5.865   5.337   7.834  1.0108  3.0869  0.6082
  126OSM   C11S13470   5.658   5.335   7.892  0.5490  0.1102 -0.8547
  126OSM   H11S13471   5.641   5.231   7.857  1.0216  0.1116 -1.1005
  126OSM   H11T13472   5.566   5.385   7.854  0.1540  1.0604  1.2190
  126OSM   C12S13473   5.654   5.361   8.041 -1.1210 -0.0606 -0.2732
  126OSM   H12S13474   5.675   5.468   8.063 -0.2923 -0.4619  0.9951
  126OSM   H12T13475   5.745   5.308   8.076 -0.2581  1.2342 -0.4690
  126OSM   C13S13476   5.527   5.317   8.109  0.1049  0.4868  0.2212
  126OSM   H13S13477   5.499   5.211   8.092 -1.0115  0.5486  1.5203
  126OSM   H13T13478   5.438   5.371   8.072  1.0376  0.4249 -2.2738
  126OSM   C14S13479   5.535   5.351   8.253  0.6416  0.2461 -0.4784
  126OSM   H14S13480   5.531   5.461   8.264  1.0387  0.1590  0.6830
  126OSM   H14T13481   5.629   5.303   8.290 -0.9557 -1.3022  1.8371
  126OSM   C15S13482   5.424   5.293   8.342 -0.4424  0.0762 -0.1903
  126OSM   H15S13483   5.421   5.183   8.352 -0.9828  0.1697  0.7780
  126OSM   H15T13484   5.322   5.317   8.302 -0.7059  1.7623  1.3461
  126OSM   C16S13485   5.429   5.348   8.488  0.4628  0.1129 -0.5348
  126OSM   H16S13486   5.452   5.456   8.502  0.1562 -0.1230  2.4033
  126OSM   H16T13487   5.521   5.304   8.532  0.5151  0.6765 -0.0767
  126OSM   C17S13488   5.311   5.331   8.573  0.2893 -0.3952 -0.1477
  126OSM   H17S13489   5.273   5.228   8.556  0.6882 -0.6220  0.3133
  126OSM   H17T13490   5.232   5.407   8.552  0.5757 -0.0186  0.1163
  126OSM   C18S13491   5.342   5.349   8.720 -0.3548 -0.6047 -0.4031
  126OSM   H18S13492   5.425   5.287   8.760  0.4337 -0.6464 -2.0123
  126OSM   H18T13493   5.251   5.334   8.782  1.3199 -0.0926  2.3622
  126OSM   H18U13494   5.367   5.455   8.741 -3.7275 -0.1589  2.2714
  126OSM    C1F13495   5.851   5.865   6.959  0.2357  0.4017  0.4162
  126OSM     OF13496   5.731   5.873   6.939 -0.3281 -0.3446  0.5577
  126OSM    C2F13497   5.941   5.980   6.981  0.2639  0.4149  0.0372
  126OSM    H2F13498   5.872   6.066   6.968 -0.0552  0.5318  2.1577
  126OSM    H2G13499   6.024   5.995   6.908 -0.5050  0.8668 -0.7596
  126OSM    C3F13500   5.991   5.996   7.132 -1.4291 -0.0001  0.6948
  126OSM    H3F13501   6.026   6.101   7.137 -0.9604 -0.1125 -0.1230
  126OSM    H3G13502   6.062   5.917   7.164 -1.3797 -0.9563 -1.6082
  126OSM    C4F13503   5.873   5.989   7.230 -0.6527  0.2632  0.5568
  126OSM    H4F13504   5.836   5.884   7.233  2.2063 -0.8430  0.2877
  126OSM    H4G13505   5.788   6.051   7.196 -0.3714 -0.2131 -1.0945
  126OSM    C5F13506   5.922   6.028   7.372 -0.3334  0.0540 -0.3594
  126OSM    H5F13507   5.951   6.135   7.380  0.7477 -0.1745 -1.0582
  126OSM    H5G13508   6.005   5.960   7.401  0.1785  1.2383  1.1063
  126OSM    C6F13509   5.801   6.000   7.463  0.2887 -0.3641 -0.8081
  126OSM    H6F13510   5.767   5.894   7.463 -0.7758 -0.0432  0.1953
  126OSM    H6G13511   5.719   6.063   7.424 -0.5751 -1.3327 -0.6115
  126OSM    C7F13512   5.814   6.042   7.607  0.9947  0.6371  0.2950
  126OSM    H7F13513   5.717   6.028   7.660  1.2810 -3.2388  0.1174
  126OSM    H7G13514   5.830   6.151   7.616 -2.2360  1.2480 -0.0718
  126OSM    C8F13515   5.919   5.965   7.681  0.3515  0.4369 -0.3142
  126OSM    H8F13516   6.016   5.989   7.633  0.3831  0.1915 -0.3784
  126OSM    H8G13517   5.898   5.855   7.676  2.5365 -0.1524  1.7449
  126OSM    C9F13518   5.916   6.026   7.818 -0.4134  0.1199 -0.1001
  126OSM    H9F13519   5.911   6.136   7.819 -1.5147  0.1252 -1.9138
  126OSM   C10F13520   5.947   5.952   7.927 -0.0477  0.2092 -0.1244
  126OSM   H10F13521   5.957   6.008   8.021  0.1196 -0.5784  0.3386
  126OSM   C11F13522   5.994   5.810   7.939  0.0641 -0.5772  0.3569
  126OSM   H11F13523   5.986   5.754   7.843 -1.6553 -0.1839  0.2316
  126OSM   H11G13524   5.918   5.758   8.001 -1.7796  2.4057  0.8215
  126OSM   C12F13525   6.135   5.789   7.994 -0.6581  0.5966 -0.0505
  126OSM   H12F13526   6.161   5.682   8.003  1.2991  0.9042 -1.4210
  126OSM   H12G13527   6.153   5.843   8.090 -1.2231  0.7117 -0.0071
  126OSM   C13F13528   6.241   5.842   7.890 -0.3840 -0.0477 -0.0228
  126OSM   H13F13529   6.216   5.936   7.837  0.4302  0.0587 -0.2308
  126OSM   H13G13530   6.242   5.764   7.811  0.3116 -1.4274  1.2903
  126OSM   C14F13531   6.382   5.849   7.953 -0.3000  0.5216 -0.3749
  126OSM   H14F13532   6.419   5.754   7.997  0.6687  1.0191 -0.0974
  126OSM   H14G13533   6.388   5.917   8.041  0.8239  0.1424 -0.1390
  126OSM   C15F13534   6.488   5.904   7.857  0.3908 -0.7413  0.5567
  126OSM   H15F13535   6.480   5.841   7.766 -1.4572 -0.8670  0.7686
  126OSM   H15G13536   6.588   5.893   7.903  0.1377 -1.3599  0.9708
  126OSM   C16F13537   6.463   6.052   7.823 -0.0765  0.2166 -0.3066
  126OSM   H16F13538   6.423   6.115   7.906  4.6882  0.7596  1.9131
  126OSM   H16G13539   6.385   6.055   7.744 -0.1284  2.8759 -0.2464
  126OSM   C17F13540   6.583   6.128   7.772 -0.3445  0.1584  0.5882
  126OSM   H17F13541   6.544   6.205   7.703  1.0409 -1.3911 -2.1126
  126OSM   H17G13542   6.648   6.063   7.709 -0.5863 -0.3046  0.8125
  126OSM   C18F13543   6.665   6.194   7.888 -0.1521 -0.4802  0.0470
  126OSM   H18F13544   6.755   6.245   7.846  0.0226  1.9109  2.9641
  126OSM   H18G13545   6.690   6.120   7.967  1.0745  0.8364  0.9551
  126OSM   H18H13546   6.603   6.275   7.933 -0.1429 -1.2253  1.4768
  127OSM      N13547   0.793   4.639   5.932  0.3176  0.4547  0.0342
  127OSM    C1513548   0.853   4.515   5.866 -0.5109  0.0187  0.3522
  127OSM   H15A13549   0.960   4.530   5.864 -0.6515  1.2937  1.0766
  127OSM   H15B13550   0.831   4.506   5.761  0.9082  0.2984 -0.0016
  127OSM   H15C13551   0.826   4.423   5.914 -1.7230 -0.7519 -1.6736
  127OSM    C1413552   0.847   4.758   5.858 -0.3630  0.7828  0.1948
  127OSM   H14A13553   0.833   4.747   5.752 -2.4511 -1.0470  0.5939
  127OSM   H14B13554   0.951   4.778   5.881  0.3238  0.2171 -2.2071
  127OSM   H14C13555   0.782   4.839   5.888 -0.6269 -0.0681  2.0742
  127OSM    C1313556   0.643   4.628   5.929 -0.1310  0.3304 -0.2033
  127OSM   H13A13557   0.595   4.617   5.833  0.3869 -0.8702 -0.3382
  127OSM   H13B13558   0.605   4.722   5.967 -1.5564 -0.0586 -0.6261
  127OSM   H13C13559   0.612   4.537   5.978 -0.3005  0.3655 -0.2479
  127OSM    C1213560   0.823   4.647   6.077  0.0351  0.3451 -0.2031
  127OSM   H12A13561   0.796   4.554   6.126  1.6419 -1.0252 -1.7717
  127OSM   H12B13562   0.776   4.739   6.109  1.0528  2.2512 -3.7073
  127OSM    C1113563   0.976   4.664   6.112 -0.3612  0.4599 -0.0708
  127OSM   H11A13564   1.051   4.613   6.049 -0.9769 -0.9260  0.2830
  127OSM   H11B13565   1.007   4.617   6.209  1.1966 -3.0113 -2.0610
  127OSM      P13566   0.970   4.905   6.209  0.0122  0.2518 -0.0509
  127OSM    O1313567   1.032   5.038   6.179 -0.3171 -0.1016 -0.1281
  127OSM    O1413568   0.825   4.899   6.220  0.3131 -0.0251 -0.7531
  127OSM    O1113569   1.039   4.856   6.341 -0.0740  0.0895  0.1009
  127OSM    O1213570   1.009   4.800   6.108 -0.0217  0.3790  0.4459
  127OSM    C1S13571   0.982   4.896   6.467 -0.1538  0.6253  0.5268
  127OSM    H1S13572   0.872   4.897   6.476 -0.3302 -3.1397  0.3005
  127OSM    H1T13573   1.018   4.998   6.492 -0.8700  0.8355  0.7071
  127OSM     NF13574   0.945   4.810   6.697 -0.8715  0.7703  0.2727
  127OSM    HNF13575   0.979   4.863   6.774 -0.3208 -3.6354  3.4083
  127OSM    C2S13576   1.033   4.800   6.578  0.5463 -1.4441 -0.1398
  127OSM    H2S13577   1.027   4.697   6.535  0.6732 -1.6349  0.2994
  127OSM    C3S13578   1.180   4.835   6.599  0.3599 -0.7835  0.1570
  127OSM    H3S13579   1.180   4.939   6.639 -4.0581 -1.6674  3.2188
  127OSM     O313580   1.260   4.822   6.477 -0.3526  0.5582 -0.0286
  127OSM    HO313581   1.193   4.804   6.411 -0.5306 -0.2758  0.3577
  127OSM    C4S13582   1.243   4.749   6.708 -0.2289 -0.0882  0.7144
  127OSM    H4S13583   1.232   4.640   6.693 -0.4773 -0.0724  0.7873
  127OSM    C5S13584   1.303   4.800   6.817 -0.1259  1.4829 -0.2984
  127OSM    H5S13585   1.312   4.910   6.820 -1.1231  1.7526 -3.3813
  127OSM    C6S13586   1.358   4.716   6.934  0.8320  0.2866 -0.3295
  127OSM    H6S13587   1.465   4.697   6.911  0.6466 -0.9357 -0.2839
  127OSM    H6T13588   1.318   4.612   6.929  0.2520  0.2844  2.5618
  127OSM    C7S13589   1.335   4.776   7.072  0.2317  0.0930 -0.4047
  127OSM    H7S13590   1.379   4.878   7.076  0.6346 -0.0998  0.2185
  127OSM    H7T13591   1.386   4.714   7.148  2.0907  1.3938 -0.5374
  127OSM    C8S13592   1.193   4.781   7.110 -0.1908  0.5085  0.3547
  127OSM    H8S13593   1.170   4.695   7.177  1.8029  0.7766  1.4540
  127OSM    H8T13594   1.130   4.775   7.018 -0.4044  0.5832  0.4950
  127OSM    C9S13595   1.154   4.913   7.166  0.6743 -0.5857  0.7943
  127OSM    H9S13596   1.045   4.900   7.185  0.0965  1.3244 -0.9754
  127OSM    H9T13597   1.163   4.993   7.091 -2.1259 -3.8675 -3.5176
  127OSM   C10S13598   1.204   4.936   7.309 -0.7819  0.0587  0.1851
  127OSM   H10S13599   1.312   4.963   7.321 -0.7217 -0.1415  0.0872
  127OSM   H10T13600   1.195   4.841   7.366  0.2923 -0.1032  0.1070
  127OSM   C11S13601   1.131   5.051   7.377 -0.0855  0.5622 -0.2951
  127OSM   H11S13602   1.027   5.015   7.394  0.5645 -0.1541  2.7634
  127OSM   H11T13603   1.126   5.137   7.308 -1.7069  0.3087 -0.5410
  127OSM   C12S13604   1.183   5.078   7.522 -0.5695  0.0584 -0.5275
  127OSM   H12S13605   1.115   5.156   7.562  0.5409  0.1730  1.2317
  127OSM   H12T13606   1.283   5.124   7.507 -1.2673  1.9108  0.2178
  127OSM   C13S13607   1.191   4.960   7.614  0.7712 -0.0235 -0.0194
  127OSM   H13S13608   1.257   4.880   7.574  1.2689  2.1305 -4.0181
  127OSM   H13T13609   1.097   4.907   7.642  1.0248  0.2375  1.4106
  127OSM   C14S13610   1.245   4.996   7.750 -0.0149  0.1941 -0.2278
  127OSM   H14S13611   1.200   5.087   7.796 -0.0345  0.0326  0.0766
  127OSM   H14T13612   1.356   5.002   7.744  0.3287  0.0126  3.4035
  127OSM   C15S13613   1.215   4.878   7.846 -0.0674  0.1475 -0.1434
  127OSM   H15S13614   1.253   4.786   7.796 -0.9013  0.1746 -0.8479
  127OSM   H15T13615   1.108   4.870   7.876 -0.1710 -1.4608 -0.8611
  127OSM   C16S13616   1.285   4.885   7.980  0.0108  0.3451 -0.3697
  127OSM   H16S13617   1.391   4.914   7.964  0.1508 -0.1109 -0.2776
  127OSM   H16T13618   1.287   4.783   8.024 -0.8444  0.2609 -0.5180
  127OSM   C17S13619   1.222   4.983   8.089 -0.0508  0.1324  0.1789
  127OSM   H17S13620   1.130   5.028   8.048  0.1384  0.0522 -0.3374
  127OSM   H17T13621   1.285   5.072   8.113  0.3598 -0.7539  2.6962
  127OSM   C18S13622   1.211   4.909   8.230  0.7283  0.6781  0.2263
  127OSM   H18S13623   1.310   4.877   8.270  0.7376  1.7779  1.1269
  127OSM   H18T13624   1.150   4.817   8.215 -0.4270  1.4904 -0.2447
  127OSM   H18U13625   1.152   4.965   8.306  0.5672  0.4998  0.2324
  127OSM    C1F13626   0.822   4.753   6.697  0.2811  0.4984  0.1490
  127OSM     OF13627   0.786   4.676   6.604  0.5268 -0.2937 -0.1881
  127OSM    C2F13628   0.735   4.780   6.821  0.6288  0.2556  0.3663
  127OSM    H2F13629   0.716   4.889   6.825  0.0251  0.2049 -0.8177
  127OSM    H2G13630   0.789   4.743   6.910  0.6302  0.2621  0.3681
  127OSM    C3F13631   0.592   4.719   6.812  0.1478  0.5906 -0.2594
  127OSM    H3F13632   0.608   4.612   6.838  0.6059  0.9709  1.1294
  127OSM    H3G13633   0.546   4.743   6.714  0.7442  0.0073 -0.6935
  127OSM    C4F13634   0.491   4.779   6.916 -1.1866  0.1545  0.7449
  127OSM    H4F13635   0.546   4.798   7.011 -2.7810  1.5999  1.4445
  127OSM    H4G13636   0.405   4.710   6.930 -0.6485 -0.7359 -0.2795
  127OSM    C5F13637   0.420   4.897   6.852 -0.2342 -0.0030 -0.0929
  127OSM    H5F13638   0.366   4.856   6.764 -0.1773 -0.4271  0.0687
  127OSM    H5G13639   0.497   4.970   6.817  0.3889  0.1716  1.5411
  127OSM    C6F13640   0.320   4.976   6.934 -0.2244 -0.3845 -0.2822
  127OSM    H6F13641   0.255   4.909   6.994 -0.6687  2.6654  2.9680
  127OSM    H6G13642   0.260   5.027   6.855 -0.3208 -0.8647 -0.5212
  127OSM    C7F13643   0.389   5.074   7.033  0.5104 -0.4873 -0.1413
  127OSM    H7F13644   0.430   5.153   6.967  0.3718  0.2965  0.6854
  127OSM    H7G13645   0.477   5.028   7.082  0.6319  1.0112  1.1278
  127OSM    C8F13646   0.299   5.151   7.138 -0.5572  0.4891 -0.3698
  127OSM    H8F13647   0.219   5.206   7.084  0.3121  4.0234  1.6083
  127OSM    H8G13648   0.361   5.235   7.175 -1.3796  0.4061  1.3392
  127OSM    C9F13649   0.243   5.070   7.253  0.3873  0.3580 -0.6090
  127OSM    H9F13650   0.167   4.997   7.220  0.3014 -1.2870  2.8115
  127OSM   C10F13651   0.257   5.085   7.384 -0.5343 -0.1901 -0.2115
  127OSM   H10F13652   0.207   5.022   7.459  0.0624 -0.5875 -0.1425
  127OSM   C11F13653   0.345   5.190   7.442 -0.4504  0.6600 -0.2564
  127OSM   H11F13654   0.424   5.218   7.368  0.6646  0.5777  0.8762
  127OSM   H11G13655   0.387   5.147   7.535 -2.4377 -1.4439 -0.2413
  127OSM   C12F13656   0.264   5.316   7.480 -0.1460 -0.1759 -0.4984
  127OSM   H12F13657   0.248   5.356   7.377  0.9312 -1.7731 -1.3159
  127OSM   H12G13658   0.337   5.386   7.525 -0.6285 -0.6950  1.1427
  127OSM   C13F13659   0.148   5.293   7.577  0.4488 -0.0237 -0.2764
  127OSM   H13F13660   0.055   5.250   7.534 -0.2517 -0.0502  1.2005
  127OSM   H13G13661   0.110   5.389   7.618 -0.5567 -0.6679  0.3601
  127OSM   C14F13662   0.176   5.207   7.704 -0.3388 -0.8807 -0.5002
  127OSM   H14F13663   0.218   5.113   7.662  1.1645  0.5113 -2.3253
  127OSM   H14G13664   0.080   5.185   7.754  0.4666  2.3448  2.9376
  127OSM   C15F13665   0.276   5.269   7.802  0.3165  0.0143 -0.6041
  127OSM   H15F13666   0.226   5.359   7.845 -0.6212 -1.1968  0.9340
  127OSM   H15G13667   0.361   5.304   7.739 -0.4522  2.1320 -0.5632
  127OSM   C16F13668   0.309   5.177   7.916  0.2794  0.0913 -0.1944
  127OSM   H16F13669   0.368   5.097   7.865  0.2731 -0.6818  0.9660
  127OSM   H16G13670   0.219   5.128   7.960  1.0075  0.2316  1.5279
  127OSM   C17F13671   0.408   5.248   8.018 -0.2098  0.2594 -0.1257
  127OSM   H17F13672   0.500   5.273   7.962  0.1740  2.6327  1.4111
  127OSM   H17G13673   0.442   5.172   8.091 -2.4642 -0.0225  0.7339
  127OSM   C18F13674   0.345   5.364   8.092 -0.9917  0.4358  0.5285
  127OSM   H18F13675   0.376   5.378   8.198  1.8164  1.8549 -0.3809
  127OSM   H18G13676   0.235   5.352   8.095 -1.0145  0.5588  0.1653
  127OSM   H18H13677   0.371   5.456   8.035  1.7195  0.4649  1.6532
  128OSM      N13678   3.053   0.594   6.064  0.1482 -0.4457 -0.3125
  128OSM    C1513679   3.131   0.540   6.184  0.5512  0.0807 -0.2864
  128OSM   H15A13680   3.055   0.505   6.252  2.1989 -1.5833  0.7968
  128OSM   H15B13681   3.183   0.617   6.238  0.3264  0.3277 -0.4194
  128OSM   H15C13682   3.202   0.462   6.160  1.2289  0.6978 -0.3242
  128OSM    C1413683   2.958   0.705   6.106  0.1877 -0.0431 -0.2245
  128OSM   H14A13684   2.918   0.752   6.017  0.3505  0.1250 -0.2093
  128OSM   H14B13685   3.010   0.783   6.161 -0.4238  1.0486 -1.1348
  128OSM   H14C13686   2.867   0.676   6.156  1.2275  2.0251  3.2371
  128OSM    C1313687   3.171   0.641   5.971 -0.3896 -0.1206  0.5924
  128OSM   H13A13688   3.236   0.708   6.026 -0.7898 -1.7761  3.2094
  128OSM   H13B13689   3.132   0.689   5.882  1.9871  0.3770 -0.2671
  128OSM   H13C13690   3.234   0.560   5.938  2.2034  2.6211 -1.8443
  128OSM    C1213691   2.980   0.485   5.983 -0.0801 -0.0070  0.2355
  128OSM   H12A13692   3.046   0.401   5.963 -0.0790  0.0584 -0.0498
  128OSM   H12B13693   2.941   0.528   5.892  1.0288 -2.0417 -1.3020
  128OSM    C1113694   2.851   0.419   6.041  0.0203 -0.1785  0.3614
  128OSM   H11A13695   2.868   0.400   6.150  0.9058  0.1031  0.2809
  128OSM   H11B13696   2.835   0.329   5.978  1.7097 -1.1479  1.2300
  128OSM      P13697   2.634   0.545   6.125  0.0428 -0.2052  0.6915
  128OSM    O1313698   2.576   0.679   6.093 -0.2551  0.2809  0.2081
  128OSM    O1413699   2.534   0.439   6.124  0.5069 -0.1498 -0.5573
  128OSM    O1113700   2.712   0.545   6.267 -0.0567 -0.4436  0.1242
  128OSM    O1213701   2.741   0.505   6.015  0.8831  0.6706  0.1516
  128OSM    C1S13702   2.669   0.631   6.373  0.1414  0.2660  0.4702
  128OSM    H1S13703   2.558   0.638   6.372  0.0003 -1.3547 -0.7003
  128OSM    H1T13704   2.711   0.733   6.362 -0.4707  0.3118 -2.5292
  128OSM     NF13705   2.642   0.660   6.621 -0.0697 -0.3208 -0.0287
  128OSM    HNF13706   2.686   0.747   6.642  0.4142 -0.9770  1.9588
  128OSM    C2S13707   2.712   0.584   6.515  0.1304  0.8231  0.2456
  128OSM    H2S13708   2.685   0.477   6.525  1.9001  0.2089 -1.0055
  128OSM    C3S13709   2.864   0.600   6.525  0.3311  0.9472  0.5144
  128OSM    H3S13710   2.898   0.697   6.484  0.9291  0.5100 -0.0479
  128OSM     O313711   2.934   0.514   6.436  0.4573  0.8172 -0.0131
  128OSM    HO313712   2.862   0.483   6.380 -0.5623  0.6955  1.3124
  128OSM    C4S13713   2.923   0.574   6.659 -0.1824  0.3212 -0.2997
  128OSM    H4S13714   2.902   0.475   6.704 -1.1390  1.6761  2.4237
  128OSM    C5S13715   2.992   0.660   6.737  0.7959  0.3724 -0.2614
  128OSM    H5S13716   3.027   0.754   6.691  0.8129 -0.2610 -1.5988
  128OSM    C6S13717   3.032   0.620   6.881 -1.0703 -0.6247  0.6891
  128OSM    H6S13718   3.071   0.712   6.930 -2.0508 -1.4654  3.2128
  128OSM    H6T13719   3.105   0.537   6.878  0.6370  0.7523  2.2196
  128OSM    C7S13720   2.922   0.572   6.976 -0.2223 -0.1378  0.5845
  128OSM    H7S13721   2.865   0.486   6.936  0.8951 -2.0657  2.8722
  128OSM    H7T13722   2.844   0.647   7.001  0.3896 -0.3191  3.4287
  128OSM    C8S13723   2.979   0.518   7.106  0.1235 -0.3148  0.1509
  128OSM    H8S13724   3.052   0.435   7.096  0.0798 -0.4111  0.6184
  128OSM    H8T13725   2.891   0.487   7.166 -1.5916 -1.3868 -2.7087
  128OSM    C9S13726   3.034   0.630   7.196  0.2676  0.5280 -0.0690
  128OSM    H9S13727   2.983   0.727   7.174  2.5016  1.6753 -0.4243
  128OSM    H9T13728   3.142   0.641   7.175 -0.1577  0.2257 -2.6745
  128OSM   C10S13729   3.023   0.592   7.345  0.1772 -0.6215  0.4860
  128OSM   H10S13730   3.076   0.495   7.361 -1.2280 -1.4033  0.5829
  128OSM   H10T13731   2.916   0.578   7.371 -0.6522 -1.7845 -2.9485
  128OSM   C11S13732   3.076   0.698   7.437 -0.5331 -1.2126 -0.2867
  128OSM   H11S13733   3.026   0.797   7.423  1.6243  0.1636  1.0987
  128OSM   H11T13734   3.186   0.704   7.421 -0.6225 -0.8412 -0.7931
  128OSM   C12S13735   3.057   0.664   7.583 -0.5689  0.5228 -0.1056
  128OSM   H12S13736   3.132   0.589   7.617 -0.0140  1.5199  0.9382
  128OSM   H12T13737   2.965   0.607   7.609 -0.6030  1.0612  1.0200
  128OSM   C13S13738   3.069   0.785   7.675  0.9537 -1.3247 -0.4295
  128OSM   H13S13739   2.998   0.865   7.643  2.0832 -0.5453 -1.0333
  128OSM   H13T13740   3.167   0.836   7.664 -0.9735  2.3872 -2.3623
  128OSM   C14S13741   3.046   0.745   7.826 -0.2471 -0.0162 -0.0470
  128OSM   H14S13742   3.107   0.659   7.860 -0.1524 -0.1108 -0.4449
  128OSM   H14T13743   2.941   0.708   7.829 -0.2740 -0.0061 -0.6442
  128OSM   C15S13744   3.071   0.876   7.915  0.2480  0.3923  0.1576
  128OSM   H15S13745   3.013   0.959   7.870 -0.6431  0.3451  1.1870
  128OSM   H15T13746   3.178   0.907   7.915  0.3358  0.1041 -0.1653
  128OSM   C16S13747   3.035   0.834   8.064 -0.4955  0.8835 -0.2710
  128OSM   H16S13748   3.082   0.734   8.072  1.2079  1.5988 -0.7878
  128OSM   H16T13749   2.926   0.812   8.065 -0.1575 -1.3978 -2.9497
  128OSM   C17S13750   3.088   0.931   8.166 -0.7663 -0.7613 -0.2190
  128OSM   H17S13751   3.052   1.031   8.136  2.0262  0.2017 -0.6286
  128OSM   H17T13752   3.197   0.946   8.155 -1.1849  1.5610 -1.7828
  128OSM   C18S13753   3.048   0.911   8.308 -0.1381  0.8385 -0.1693
  128OSM   H18S13754   3.061   1.008   8.360  1.1555 -0.5154  2.2034
  128OSM   H18T13755   3.107   0.836   8.365 -0.4627  0.9988  0.3849
  128OSM   H18U13756   2.939   0.890   8.305 -0.1006  0.5599  0.3159
  128OSM    C1F13757   2.515   0.631   6.657  0.6791 -0.0995  0.1490
  128OSM     OF13758   2.468   0.521   6.631  0.2615 -0.3103 -0.1772
  128OSM    C2F13759   2.449   0.747   6.721  0.2360  0.2198 -0.3554
  128OSM    H2F13760   2.480   0.833   6.659  0.8339 -0.1487 -0.5695
  128OSM    H2G13761   2.487   0.750   6.825  0.4474 -2.5132 -0.2667
  128OSM    C3F13762   2.296   0.729   6.735 -0.2536  0.0856  0.0242
  128OSM    H3F13763   2.267   0.651   6.809 -2.0143  2.1081  1.6162
  128OSM    H3G13764   2.253   0.708   6.635 -1.2044  0.0809  0.4164
  128OSM    C4F13765   2.240   0.870   6.775 -0.4630 -0.9097 -0.7388
  128OSM    H4F13766   2.144   0.900   6.727  0.6129  1.6424 -1.4381
  128OSM    H4G13767   2.313   0.946   6.740 -0.0807 -0.8673  0.1229
  128OSM    C5F13768   2.220   0.882   6.928 -0.1013  0.3734  0.3607
  128OSM    H5F13769   2.320   0.856   6.969  0.3396  2.7088  0.9359
  128OSM    H5G13770   2.141   0.821   6.976  0.0407  0.5094  0.7729
  128OSM    C6F13771   2.189   1.030   6.976 -0.1083  0.2333  0.7777
  128OSM    H6F13772   2.121   1.081   6.905 -0.6223  0.7693  1.6360
  128OSM    H6G13773   2.283   1.087   6.962  1.4116 -2.3139 -0.0623
  128OSM    C7F13774   2.142   1.032   7.117  0.1959  0.3864 -0.2031
  128OSM    H7F13775   2.225   1.004   7.186  0.2827  3.0098  0.9066
  128OSM    H7G13776   2.053   0.967   7.110 -0.9375  1.9076 -0.2953
  128OSM    C8F13777   2.103   1.180   7.150  0.1190  0.6333  0.3608
  128OSM    H8F13778   2.026   1.223   7.082 -1.0559 -1.4530  0.3104
  128OSM    H8G13779   2.193   1.245   7.144  2.0050 -1.3936  3.9118
  128OSM    C9F13780   2.042   1.190   7.289  0.3516 -0.1979 -0.3362
  128OSM    H9F13781   1.953   1.128   7.305  2.0992 -2.8668 -0.2843
  128OSM   C10F13782   2.078   1.273   7.385  0.1145 -0.6454 -1.0202
  128OSM   H10F13783   2.012   1.266   7.473 -0.9728 -0.7558 -1.8265
  128OSM   C11F13784   2.184   1.376   7.381  0.1950  0.1484 -0.2242
  128OSM   H11F13785   2.140   1.473   7.350 -0.4822 -0.4037 -1.0264
  128OSM   H11G13786   2.251   1.343   7.299 -1.0195 -3.3258  0.0310
  128OSM   C12F13787   2.268   1.379   7.515 -0.3045  0.0260  0.0213
  128OSM   H12F13788   2.368   1.425   7.500 -0.9206  1.3330 -0.2746
  128OSM   H12G13789   2.295   1.275   7.544  0.6179 -0.0173 -0.9343
  128OSM   C13F13790   2.188   1.443   7.627  0.0548  0.2526 -0.1391
  128OSM   H13F13791   2.087   1.397   7.625  0.0582  0.2351  0.0389
  128OSM   H13G13792   2.171   1.546   7.589 -3.3591 -0.5074 -1.0575
  128OSM   C14F13793   2.256   1.436   7.766 -0.0643  0.2657  0.4403
  128OSM   H14F13794   2.352   1.493   7.765  0.0314  0.1089  0.5884
  128OSM   H14G13795   2.281   1.329   7.783  1.1694  0.5558  0.5689
  128OSM   C15F13796   2.185   1.507   7.879 -0.1501 -0.0433  0.2599
  128OSM   H15F13797   2.081   1.470   7.887 -0.0249 -0.4345  0.0845
  128OSM   H15G13798   2.182   1.618   7.866  1.8874  0.3549  2.3311
  128OSM   C16F13799   2.256   1.493   8.016  0.2428 -0.2983  0.3404
  128OSM   H16F13800   2.243   1.582   8.081 -1.2757 -1.5062  1.7532
  128OSM   H16G13801   2.365   1.495   7.990 -0.1607  1.4426 -1.5360
  128OSM   C17F13802   2.225   1.374   8.095  0.4251 -0.0216  0.2058
  128OSM   H17F13803   2.268   1.287   8.042 -0.5434 -2.6102  3.3562
  128OSM   H17G13804   2.115   1.363   8.091  0.4596 -1.8776 -5.3866
  128OSM   C18F13805   2.256   1.387   8.243  0.3022 -0.2225  0.1378
  128OSM   H18F13806   2.216   1.295   8.292 -0.5930 -1.3240 -2.4772
  128OSM   H18G13807   2.215   1.479   8.289 -0.8286  1.3939 -3.7241
  128OSM   H18H13808   2.366   1.381   8.259 -0.0828 -1.0541  2.8654
  129OSM      N13809   6.418   3.907   6.074 -0.0783 -0.5052 -0.0150
  129OSM    C1513810   6.392   3.776   6.000  0.6393 -0.4490 -0.0774
  129OSM   H15A13811   6.337   3.779   5.907  0.8065 -1.5569 -0.2256
  129OSM   H15B13812   6.345   3.698   6.058  2.6761 -1.0718  0.8320
  129OSM   H15C13813   6.486   3.731   5.972 -0.1905 -1.9078 -0.6601
  129OSM    C1413814   6.509   3.992   5.996 -0.1521 -0.2241 -0.2281
  129OSM   H14A13815   6.611   3.957   5.988  0.2105  0.9164 -0.7439
  129OSM   H14B13816   6.513   4.093   6.033  1.5167 -0.2935 -0.1411
  129OSM   H14C13817   6.479   3.995   5.892 -1.9619 -1.7956  0.1835
  129OSM    C1313818   6.294   3.996   6.098  0.2501 -0.0388  0.0125
  129OSM   H13A13819   6.280   4.047   6.004  1.2460  1.5211  0.6647
  129OSM   H13B13820   6.316   4.075   6.168  1.8233  0.5370 -1.0660
  129OSM   H13C13821   6.208   3.940   6.130  0.1113  0.0628 -0.1820
  129OSM    C1213822   6.479   3.880   6.210  0.1424 -0.8351  0.2034
  129OSM   H12A13823   6.515   3.974   6.248 -0.9582 -0.6810  0.8975
  129OSM   H12B13824   6.570   3.825   6.196  1.3016  0.8795  0.6903
  129OSM    C1113825   6.404   3.803   6.312  1.6176 -0.0551  0.0071
  129OSM   H11A13826   6.299   3.839   6.319  1.1626 -1.3782  0.3692
  129OSM   H11B13827   6.438   3.824   6.416  0.3204 -1.0577  0.6773
  129OSM      P13828   6.532   3.575   6.282  0.4735  0.0671 -0.1719
  129OSM    O1313829   6.505   3.459   6.190 -0.2661 -0.6299 -0.0933
  129OSM    O1413830   6.650   3.650   6.235 -0.0332  0.3783 -0.1193
  129OSM    O1113831   6.551   3.533   6.426 -0.5225 -0.3078  0.9323
  129OSM    O1213832   6.408   3.667   6.281 -0.2258 -0.5096  0.1242
  129OSM    C1S13833   6.547   3.615   6.545  0.6835 -0.0056 -0.1981
  129OSM    H1S13834   6.441   3.618   6.578  0.5926 -1.4343 -0.2964
  129OSM    H1T13835   6.591   3.715   6.527  0.3615 -0.1281 -1.8488
  129OSM     NF13836   6.599   3.638   6.776 -0.3385  0.3476  1.4269
  129OSM    HNF13837   6.666   3.710   6.792 -0.2376  1.0474 -1.4967
  129OSM    C2S13838   6.624   3.557   6.660 -0.0830 -0.0259  0.3045
  129OSM    H2S13839   6.586   3.456   6.688 -0.1448  0.3783  1.7478
  129OSM    C3S13840   6.777   3.543   6.616  0.2380  0.1558 -0.4388
  129OSM    H3S13841   6.819   3.643   6.594 -0.0408  0.1178 -1.1446
  129OSM     O313842   6.812   3.465   6.498 -0.3032 -0.0694 -0.8116
  129OSM    HO313843   6.731   3.468   6.445 -1.2655  2.7614  0.6220
  129OSM    C4S13844   6.858   3.494   6.736 -0.3773 -0.1131 -0.1147
  129OSM    H4S13845   6.880   3.579   6.802 -1.4419  0.3464 -0.3306
  129OSM    C5S13846   6.902   3.372   6.774 -0.4842 -0.1479  1.0284
  129OSM    H5S13847   6.876   3.284   6.714 -1.5803 -1.3402  3.1658
  129OSM    C6S13848   6.966   3.349   6.908  0.0354 -0.4816 -0.6742
  129OSM    H6S13849   6.959   3.445   6.964 -0.3598  0.6152 -2.5150
  129OSM    H6T13850   7.074   3.324   6.906  0.2262  0.1305  0.6834
  129OSM    C7S13851   6.908   3.219   6.979 -0.5122  0.0393  0.5180
  129OSM    H7S13852   6.940   3.134   6.915 -3.0644 -0.5028 -0.1642
  129OSM    H7T13853   6.797   3.212   6.984 -0.4045 -2.0082  0.9935
  129OSM    C8S13854   6.961   3.210   7.123 -0.0567  0.6974 -0.1663
  129OSM    H8S13855   7.071   3.202   7.116 -0.0545  0.4668  0.0962
  129OSM    H8T13856   6.921   3.114   7.164  0.7817  1.1639  1.8300
  129OSM    C9S13857   6.928   3.327   7.219  0.4286 -0.0302  0.2489
  129OSM    H9S13858   6.820   3.316   7.240  0.4352 -1.2962 -0.2812
  129OSM    H9T13859   6.934   3.427   7.170 -0.3727 -1.1210 -2.2598
  129OSM   C10S13860   6.992   3.337   7.357 -1.1316 -0.1837  0.4695
  129OSM   H10S13861   7.079   3.406   7.350 -2.0571  0.8322 -3.2350
  129OSM   H10T13862   7.042   3.240   7.374 -0.5432  0.3639  1.9993
  129OSM   C11S13863   6.892   3.364   7.476  0.5356 -0.0166 -0.5066
  129OSM   H11S13864   6.814   3.285   7.472  0.7309 -0.4785  2.4096
  129OSM   H11T13865   6.847   3.463   7.453  1.4302 -0.4416 -4.9868
  129OSM   C12S13866   6.972   3.372   7.609  0.9706 -0.2452  0.5287
  129OSM   H12S13867   7.070   3.413   7.577 -0.6259  2.6735 -1.0609
  129OSM   H12T13868   6.982   3.265   7.637 -1.7850 -0.4231  1.1970
  129OSM   C13S13869   6.901   3.458   7.716  0.0514 -1.4382  0.7532
  129OSM   H13S13870   6.802   3.416   7.745 -2.0275  2.6222  0.2433
  129OSM   H13T13871   6.886   3.560   7.673  1.5818 -0.5840  2.1263
  129OSM   C14S13872   6.977   3.474   7.853 -0.2585  0.9198 -0.2889
  129OSM   H14S13873   6.912   3.519   7.931 -1.2808 -2.5535  1.0515
  129OSM   H14T13874   7.068   3.538   7.845 -0.1913  0.8313 -0.2385
  129OSM   C15S13875   7.013   3.337   7.911 -0.3809 -0.0547 -0.8952
  129OSM   H15S13876   7.100   3.292   7.859 -0.0756 -0.9642  0.3721
  129OSM   H15T13877   6.937   3.258   7.899  1.1335 -2.3200  2.7795
  129OSM   C16S13878   7.043   3.341   8.065  0.6830 -0.2560  0.4799
  129OSM   H16S13879   6.950   3.386   8.106  1.5701  0.9851  1.2106
  129OSM   H16T13880   7.124   3.417   8.072  0.6837 -0.1434 -0.5098
  129OSM   C17S13881   7.069   3.210   8.130 -0.0548  0.3977  0.2744
  129OSM   H17S13882   7.156   3.172   8.073  1.9143  0.1000  3.2168
  129OSM   H17T13883   6.978   3.148   8.136  0.3037 -0.0322  1.6365
  129OSM   C18S13884   7.123   3.231   8.274  0.1538 -0.0091  0.3852
  129OSM   H18S13885   7.216   3.291   8.275  0.6419 -0.6900 -1.0623
  129OSM   H18T13886   7.141   3.144   8.341 -0.5070  0.1121  0.7341
  129OSM   H18U13887   7.039   3.288   8.318 -2.4791 -0.3520 -3.6920
  129OSM    C1F13888   6.483   3.643   6.839 -0.3615 -0.3150 -0.4722
  129OSM     OF13889   6.392   3.565   6.816  0.8228 -1.2255 -0.0510
  129OSM    C2F13890   6.469   3.743   6.957 -0.2406 -0.2974  0.2919
  129OSM    H2F13891   6.424   3.832   6.909  0.0344  0.0676  0.7024
  129OSM    H2G13892   6.570   3.766   6.998 -0.9692  0.4448  1.7721
  129OSM    C3F13893   6.380   3.680   7.070  0.4292  0.0206 -0.3488
  129OSM    H3F13894   6.433   3.591   7.109  1.3002  0.9061  0.5489
  129OSM    H3G13895   6.282   3.649   7.027 -1.0095  1.2297  1.8514
  129OSM    C4F13896   6.339   3.787   7.181  0.4425 -0.1085  0.6128
  129OSM    H4F13897   6.238   3.757   7.218  0.7147 -2.8069 -0.5945
  129OSM    H4G13898   6.342   3.891   7.142  1.7824 -0.8983 -1.5094
  129OSM    C5F13899   6.442   3.791   7.297 -0.4192  0.6418  0.9945
  129OSM    H5F13900   6.533   3.834   7.249 -1.1033 -0.5436 -1.5063
  129OSM    H5G13901   6.474   3.690   7.332 -2.4581 -0.2833  0.3317
  129OSM    C6F13902   6.391   3.885   7.403 -0.3959  0.1440  0.0503
  129OSM    H6F13903   6.335   3.974   7.366  2.0764  0.6241 -2.9968
  129OSM    H6G13904   6.463   3.902   7.486 -2.7519  0.1058  2.2183
  129OSM    C7F13905   6.277   3.812   7.493 -1.1064 -0.3269  0.5109
  129OSM    H7F13906   6.327   3.723   7.536  1.2319  0.8375  0.3622
  129OSM    H7G13907   6.198   3.779   7.422 -1.7026  0.1661  0.9317
  129OSM    C8F13908   6.249   3.886   7.625  0.1931 -0.4381  0.2745
  129OSM    H8F13909   6.252   3.996   7.610  0.6263 -0.6482 -1.2510
  129OSM    H8G13910   6.325   3.860   7.702  0.8729  1.1602  0.1679
  129OSM    C9F13911   6.126   3.856   7.709  0.1994 -0.5279  0.9964
  129OSM    H9F13912   6.056   3.779   7.675 -1.7105  2.7081 -3.3499
  129OSM   C10F13913   6.072   3.934   7.807  0.1557 -0.6416 -0.4483
  129OSM   H10F13914   5.986   3.899   7.866  1.1064 -3.0366 -0.3432
  129OSM   C11F13915   6.137   4.059   7.859  0.0460  0.3708 -0.4519
  129OSM   H11F13916   6.159   4.126   7.773 -0.5734 -0.5935 -1.3985
  129OSM   H11G13917   6.220   4.035   7.929 -1.7127  0.8544  1.8893
  129OSM   C12F13918   6.044   4.133   7.961 -0.6856  0.5469 -0.5249
  129OSM   H12F13919   6.055   4.078   8.056 -0.5997 -2.3563 -2.1107
  129OSM   H12G13920   5.937   4.121   7.933 -0.6505 -2.6221  0.3324
  129OSM   C13F13921   6.069   4.281   7.985  0.0661 -0.8365 -0.3504
  129OSM   H13F13922   5.984   4.336   8.030 -2.1086 -1.1443 -3.7544
  129OSM   H13G13923   6.070   4.334   7.887 -0.7668 -0.3110 -0.0845
  129OSM   C14F13924   6.198   4.303   8.068  0.5949  0.5597 -0.2878
  129OSM   H14F13925   6.209   4.413   8.073  1.1778  0.5514 -1.2806
  129OSM   H14G13926   6.274   4.256   8.003 -1.7858  0.6821 -3.3778
  129OSM   C15F13927   6.184   4.235   8.209 -0.3944 -0.4286  0.6291
  129OSM   H15F13928   6.214   4.128   8.202  0.9105 -0.0029 -0.9623
  129OSM   H15G13929   6.080   4.226   8.247  0.9843 -1.3233  4.6125
  129OSM   C16F13930   6.274   4.306   8.313  0.1313 -0.4071 -0.1054
  129OSM   H16F13931   6.248   4.261   8.411 -0.8041  1.0835  0.3532
  129OSM   H16G13932   6.235   4.410   8.313 -0.2909 -0.5006  2.5264
  129OSM   C17F13933   6.424   4.291   8.280  0.2881 -0.3642 -0.5042
  129OSM   H17F13934   6.480   4.359   8.348 -2.1666  0.3934  0.8869
  129OSM   H17G13935   6.455   4.322   8.178  0.9918  1.0718  0.1141
  129OSM   C18F13936   6.480   4.150   8.315  0.4502 -0.0217  0.1735
  129OSM   H18F13937   6.495   4.160   8.425 -0.6915 -0.0037  0.3367
  129OSM   H18G13938   6.573   4.128   8.258  0.3820  0.4393 -0.1227
  129OSM   H18H13939   6.403   4.072   8.298 -0.9501  1.1214  1.0301
  130OSM      N13940   3.435   6.263   6.199  0.1487 -0.3371 -0.5917
  130OSM    C1513941   3.303   6.316   6.146 -0.1914 -0.5487  0.2233
  130OSM   H15A13942   3.301   6.423   6.151 -2.3406 -0.5780  0.7781
  130OSM   H15B13943   3.225   6.286   6.214 -2.2737  2.4447 -0.6604
  130OSM   H15C13944   3.296   6.289   6.042  1.5411  2.0269 -0.6636
  130OSM    C1413945   3.437   6.117   6.194  0.3892  0.2155 -0.1512
  130OSM   H14A13946   3.366   6.070   6.261  0.2895  0.3934 -0.1328
  130OSM   H14B13947   3.529   6.079   6.235 -0.4103 -0.9828  0.6239
  130OSM   H14C13948   3.421   6.077   6.095 -1.0495 -4.1849  1.5852
  130OSM    C1313949   3.542   6.315   6.107  1.3147 -0.2798 -0.4453
  130OSM   H13A13950   3.564   6.265   6.014 -0.2830  0.3459 -1.1892
  130OSM   H13B13951   3.629   6.330   6.170  0.5808 -1.2532  0.8599
  130OSM   H13C13952   3.518   6.418   6.086  1.0478 -0.0218  1.0017
  130OSM    C1213953   3.455   6.321   6.343 -0.3843  0.0632  0.1836
  130OSM   H12A13954   3.387   6.271   6.411  0.8221 -0.9243  0.6878
  130OSM   H12B13955   3.439   6.428   6.354  0.2099  0.1747  0.0024
  130OSM    C1113956   3.598   6.308   6.412  0.5013  0.1697 -0.8369
  130OSM   H11A13957   3.597   6.381   6.496 -2.6215 -0.8022  0.1098
  130OSM   H11B13958   3.662   6.361   6.339 -0.5889  2.1218 -0.4270
  130OSM      P13959   3.763   6.110   6.400  0.1339 -0.2151 -0.2823
  130OSM    O1313960   3.768   5.961   6.432  0.3251 -1.0039  0.5916
  130OSM    O1413961   3.803   6.159   6.264 -0.3925  0.0226  0.4884
  130OSM    O1113962   3.861   6.186   6.500 -0.3687  0.0721  0.1888
  130OSM    O1213963   3.621   6.163   6.441  0.3275 -0.1524  0.1541
  130OSM    C1S13964   3.828   6.248   6.623  0.2075 -0.8371  0.5086
  130OSM    H1S13965   3.720   6.273   6.628  0.4019  0.2937 -0.3567
  130OSM    H1T13966   3.878   6.348   6.625  1.8487 -1.6326  0.5261
  130OSM     NF13967   3.801   6.251   6.862  0.0951 -0.5216  0.2776
  130OSM    HNF13968   3.848   6.310   6.927 -0.4921 -0.0116  0.2570
  130OSM    C2S13969   3.870   6.180   6.757  0.0290 -0.3269  0.4353
  130OSM    H2S13970   3.836   6.074   6.759 -0.8635 -0.0816 -0.5458
  130OSM    C3S13971   4.026   6.185   6.759  0.7309  0.1342 -0.6362
  130OSM    H3S13972   4.067   6.285   6.733  1.8418 -0.2605 -0.4206
  130OSM     O313973   4.081   6.100   6.657  0.8556 -0.5114  0.1121
  130OSM    HO313974   4.022   6.106   6.582 -0.9632  2.0276  1.5829
  130OSM    C4S13975   4.072   6.136   6.889  0.3069 -0.5313  0.0836
  130OSM    H4S13976   4.098   6.029   6.893 -0.3109 -0.7416 -1.1680
  130OSM    C5S13977   4.102   6.217   7.001 -0.9272 -0.0753  0.1784
  130OSM    H5S13978   4.103   6.327   6.995  2.2227  0.1166  2.0557
  130OSM    C6S13979   4.139   6.150   7.134 -1.0994  0.3881 -0.2607
  130OSM    H6S13980   4.247   6.169   7.151 -0.3340 -3.2810 -0.1376
  130OSM    H6T13981   4.150   6.040   7.122 -1.7773  0.4337 -1.4766
  130OSM    C7S13982   4.040   6.194   7.235  0.1818  0.2231 -0.1075
  130OSM    H7S13983   3.939   6.158   7.207  0.1166  0.0325  0.3656
  130OSM    H7T13984   4.043   6.305   7.246  1.5460  0.1305  0.6730
  130OSM    C8S13985   4.071   6.137   7.376 -0.6283 -0.0945  0.7801
  130OSM    H8S13986   4.181   6.140   7.393 -0.2229  0.4456 -1.6500
  130OSM    H8T13987   4.044   6.029   7.376 -1.5523  0.1251  1.0459
  130OSM    C9S13988   4.005   6.212   7.488 -0.5023 -0.9392 -0.2068
  130OSM    H9S13989   3.897   6.226   7.471 -0.6097  0.4965  1.3879
  130OSM    H9T13990   4.052   6.311   7.504 -3.0559  0.0852  1.6434
  130OSM   C10S13991   4.027   6.131   7.615  0.8519  0.4635  0.6776
  130OSM   H10S13992   4.136   6.136   7.634  1.0030  1.0494 -0.2520
  130OSM   H10T13993   4.001   6.023   7.609  2.3655 -0.0110  2.0848
  130OSM   C11S13994   3.952   6.191   7.726 -0.0901 -0.4601  0.4173
  130OSM   H11S13995   3.843   6.200   7.703  0.1507  1.8636 -0.0251
  130OSM   H11T13996   4.005   6.287   7.744  1.2273 -1.2675  1.0029
  130OSM   C12S13997   3.973   6.097   7.846 -0.4341  0.1749  0.5151
  130OSM   H12S13998   4.070   6.043   7.840  0.0651  1.2273 -3.1324
  130OSM   H12T13999   3.886   6.028   7.832  0.1180 -0.4197 -0.0555
  130OSM   C13S14000   3.950   6.171   7.975 -0.1798 -0.1004 -0.0319
  130OSM   H13S14001   3.852   6.224   7.961  0.9894  2.3369  0.4174
  130OSM   H13T14002   4.012   6.262   7.988 -0.6097 -0.0349  1.7896
  130OSM   C14S14003   3.953   6.084   8.104 -0.3509 -0.5535  0.4300
  130OSM   H14S14004   4.062   6.066   8.116  0.3756  1.1180 -2.6010
  130OSM   H14T14005   3.900   5.991   8.074 -1.8281  1.0635 -2.4136
  130OSM   C15S14006   3.881   6.168   8.215 -0.2316  0.8092  0.0423
  130OSM   H15S14007   3.777   6.187   8.178 -0.5232  0.6937  0.7912
  130OSM   H15T14008   3.923   6.269   8.235  0.6741  0.1238  1.8049
  130OSM   C16S14009   3.888   6.091   8.347  0.9879  0.8414 -0.3050
  130OSM   H16S14010   3.994   6.067   8.369  0.5646 -1.8183 -0.8540
  130OSM   H16T14011   3.834   5.995   8.352  0.7190  0.9374 -1.1382
  130OSM   C17S14012   3.809   6.175   8.447  0.0757 -0.3501 -0.1325
  130OSM   H17S14013   3.701   6.167   8.425 -0.0272 -0.9409  0.5579
  130OSM   H17T14014   3.837   6.282   8.441  0.6406 -0.3711  1.5117
  130OSM   C18S14015   3.816   6.122   8.592 -0.1923 -0.1895  0.2116
  130OSM   H18S14016   3.768   6.023   8.605  1.4644 -1.1591 -0.7215
  130OSM   H18T14017   3.761   6.193   8.658 -0.2462  1.1194 -1.1885
  130OSM   H18U14018   3.923   6.113   8.616 -0.3766 -0.4051  0.9654
  130OSM    C1F14019   3.669   6.233   6.890 -0.6212 -0.0959  0.6006
  130OSM     OF14020   3.623   6.127   6.843  0.2554 -0.9305 -0.3845
  130OSM    C2F14021   3.593   6.342   6.964 -0.5758 -0.3452  0.0687
  130OSM    H2F14022   3.606   6.440   6.914 -0.9447 -1.1248 -1.6499
  130OSM    H2G14023   3.640   6.349   7.064  2.1985  0.2891 -1.1597
  130OSM    C3F14024   3.445   6.307   6.979 -0.6928  0.4430  0.1909
  130OSM    H3F14025   3.438   6.218   7.045  0.4189 -0.9384 -1.4644
  130OSM    H3G14026   3.394   6.273   6.886  2.6950 -0.7722 -1.3990
  130OSM    C4F14027   3.364   6.424   7.041 -0.1645  0.1129  0.7934
  130OSM    H4F14028   3.268   6.379   7.071 -2.2931  4.2296  0.9526
  130OSM    H4G14029   3.342   6.496   6.959 -1.0608 -0.1079  0.8395
  130OSM    C5F14030   3.426   6.485   7.170  0.0798 -0.3688  0.4786
  130OSM    H5F14031   3.349   6.556   7.208  0.9921  1.4587 -0.8832
  130OSM    H5G14032   3.515   6.544   7.140  0.0498 -1.2608 -1.5645
  130OSM    C6F14033   3.446   6.381   7.278 -0.0792 -0.3656  0.2535
  130OSM    H6F14034   3.535   6.320   7.249  0.3208  1.1727 -2.0344
  130OSM    H6G14035   3.364   6.308   7.294 -0.7458  0.2576 -0.2783
  130OSM    C7F14036   3.473   6.453   7.418  0.4578  0.5717  0.5061
  130OSM    H7F14037   3.381   6.508   7.445  0.5082  0.4254  0.9829
  130OSM    H7G14038   3.551   6.531   7.406 -0.3530  1.3360  0.1332
  130OSM    C8F14039   3.507   6.359   7.531  0.1582 -0.0422  0.1944
  130OSM    H8F14040   3.584   6.287   7.496 -0.1268 -0.7479  0.9730
  130OSM    H8G14041   3.415   6.299   7.552  0.8244 -1.2767 -0.3074
  130OSM    C9F14042   3.562   6.433   7.649  0.1360  0.3288  0.4669
  130OSM    H9F14043   3.650   6.497   7.632  0.1678  0.5760  1.5057
  130OSM   C10F14044   3.516   6.420   7.779  0.2845  0.2894 -0.1309
  130OSM   H10F14045   3.559   6.481   7.860  1.2903 -0.6948  0.1025
  130OSM   C11F14046   3.399   6.331   7.827 -0.1749  0.2136  0.0472
  130OSM   H11F14047   3.437   6.227   7.837  0.8567  0.3859 -1.7024
  130OSM   H11G14048   3.319   6.323   7.750 -1.5082 -4.9280  1.5689
  130OSM   C12F14049   3.327   6.364   7.955 -0.1454 -0.2987  0.0491
  130OSM   H12F14050   3.233   6.305   7.961  0.4263 -1.1277  1.1980
  130OSM   H12G14051   3.293   6.469   7.959  0.0123 -0.2241 -0.4752
  130OSM   C13F14052   3.406   6.332   8.080  0.4167 -0.1003  0.5255
  130OSM   H13F14053   3.515   6.333   8.055  0.0728  3.9324 -1.6340
  130OSM   H13G14054   3.375   6.231   8.112  0.5690 -0.3784 -0.1703
  130OSM   C14F14055   3.389   6.438   8.202  0.2247  0.1716  0.4430
  130OSM   H14F14056   3.284   6.433   8.238  0.5067 -0.9082  1.1357
  130OSM   H14G14057   3.409   6.536   8.153  1.6855 -0.4846 -0.3487
  130OSM   C15F14058   3.485   6.430   8.322  0.4193 -0.0682  0.7365
  130OSM   H15F14059   3.482   6.520   8.388  1.3079 -0.4317  1.2858
  130OSM   H15G14060   3.591   6.426   8.290  0.2567  0.6731  0.0877
  130OSM   C16F14061   3.457   6.308   8.422  0.1602 -0.0977  0.3934
  130OSM   H16F14062   3.549   6.296   8.482  0.0878  1.2394  0.8163
  130OSM   H16G14063   3.435   6.211   8.372  1.2968 -0.5480  0.7468
  130OSM   C17F14064   3.352   6.344   8.525 -0.1612 -0.1321  0.1615
  130OSM   H17F14065   3.254   6.328   8.473  0.2659  0.1596 -0.7552
  130OSM   H17G14066   3.368   6.452   8.544 -0.1679 -0.2064  0.6023
  130OSM   C18F14067   3.339   6.261   8.647 -0.0895 -0.0210 -0.4793
  130OSM   H18F14068   3.432   6.251   8.707  0.6472 -0.4894 -1.6618
  130OSM   H18G14069   3.295   6.160   8.630 -1.6104  0.2892  1.2749
  130OSM   H18H14070   3.258   6.305   8.710  1.4829  0.8996  0.9818
  131OSM      N14071   0.846   2.042   5.811 -0.0989  0.1355 -0.4284
  131OSM    C1514072   0.706   2.012   5.854 -0.5458  0.1137 -0.2324
  131OSM   H15A14073   0.651   1.975   5.769  2.1791 -1.9396 -1.2603
  131OSM   H15B14074   0.654   2.100   5.889 -1.5978 -1.4814  2.5887
  131OSM   H15C14075   0.697   1.939   5.933  0.8735 -1.3808 -1.3770
  131OSM    C1414076   0.920   1.916   5.807 -0.0728  0.3630  0.3670
  131OSM   H14A14077   1.025   1.926   5.784 -0.8394  2.5317 -2.8619
  131OSM   H14B14078   0.877   1.849   5.734 -0.5715  1.3284 -0.2432
  131OSM   H14C14079   0.919   1.862   5.901  0.9865 -2.4362 -1.1294
  131OSM    C1314080   0.847   2.102   5.669 -0.6922 -0.0861 -0.3087
  131OSM   H13A14081   0.790   2.052   5.593 -1.2208 -0.7455  0.5028
  131OSM   H13B14082   0.949   2.091   5.636 -0.1595 -1.5811  1.6259
  131OSM   H13C14083   0.826   2.207   5.659  2.0157  0.4793 -0.9182
  131OSM    C1214084   0.907   2.140   5.909 -0.4614  0.1769 -0.2300
  131OSM   H12A14085   0.947   2.071   5.983 -1.8732 -0.4139  0.0116
  131OSM   H12B14086   0.833   2.199   5.960  1.1065  0.1207  2.2978
  131OSM    C1114087   1.018   2.225   5.849  0.2667 -0.5353  0.3162
  131OSM   H11A14088   0.975   2.298   5.778  1.4830 -1.4781 -1.4778
  131OSM   H11B14089   1.087   2.159   5.791 -0.1646  0.3314 -1.2272
  131OSM      P14090   1.200   2.385   5.928 -0.0967  0.0424 -0.0842
  131OSM    O1314091   1.304   2.334   5.832  0.7145 -0.3418 -0.1787
  131OSM    O1414092   1.131   2.511   5.888 -0.1710  0.0491  0.5286
  131OSM    O1114093   1.267   2.399   6.072  0.4300  0.4257  0.2694
  131OSM    O1214094   1.092   2.279   5.955 -0.0751  0.1384  0.2702
  131OSM    C1S14095   1.220   2.497   6.159 -0.2111  0.5457  0.2083
  131OSM    H1S14096   1.109   2.500   6.168 -0.2134 -1.2406  1.0182
  131OSM    H1T14097   1.257   2.600   6.137  1.2365  0.9471  3.8322
  131OSM     NF14098   1.206   2.567   6.399 -0.1302  0.3076  0.5185
  131OSM    HNF14099   1.280   2.626   6.431  1.4176 -1.5076  0.4504
  131OSM    C2S14100   1.259   2.465   6.309  0.8548 -0.6794  0.4568
  131OSM    H2S14101   1.202   2.373   6.333 -2.1992  0.9755  0.1211
  131OSM    C3S14102   1.408   2.441   6.319  0.1473  0.0699 -0.1563
  131OSM    H3S14103   1.473   2.526   6.289  1.4648 -0.9603 -0.3715
  131OSM     O314104   1.454   2.341   6.229  0.0344  0.4906 -0.2882
  131OSM    HO314105   1.385   2.330   6.163  0.5734 -0.2493 -0.7482
  131OSM    C4S14106   1.435   2.392   6.459 -0.1653 -0.6872  0.6335
  131OSM    H4S14107   1.437   2.282   6.471 -1.0664 -0.9543 -1.2272
  131OSM    C5S14108   1.489   2.468   6.550  0.1226 -0.5954 -0.4966
  131OSM    H5S14109   1.521   2.571   6.527 -1.5243 -0.0444 -0.4478
  131OSM    C6S14110   1.520   2.425   6.692  0.3039 -0.2030 -0.1568
  131OSM    H6S14111   1.625   2.389   6.692  1.6406  3.2649 -0.5234
  131OSM    H6T14112   1.465   2.332   6.717  0.4828 -0.7738 -1.7953
  131OSM    C7S14113   1.476   2.525   6.806  0.3168  0.2931  0.4939
  131OSM    H7S14114   1.367   2.545   6.794  0.2762  0.5424  1.2600
  131OSM    H7T14115   1.532   2.620   6.791  0.4747 -0.0245 -1.1254
  131OSM    C8S14116   1.477   2.456   6.946  0.3776  0.4878 -0.2080
  131OSM    H8S14117   1.585   2.460   6.970  0.6102  1.2063 -1.3280
  131OSM    H8T14118   1.440   2.351   6.940  3.5782 -0.8022  0.3545
  131OSM    C9S14119   1.403   2.541   7.051  0.1133 -0.7181 -0.2160
  131OSM    H9S14120   1.293   2.542   7.036 -0.0310  4.8863 -0.9710
  131OSM    H9T14121   1.447   2.643   7.047 -1.4670  0.0101  0.1990
  131OSM   C10S14122   1.429   2.505   7.195 -0.0191 -0.3390  0.2077
  131OSM   H10S14123   1.392   2.585   7.263  1.4719 -1.1863  2.1302
  131OSM   H10T14124   1.537   2.490   7.217  0.5097  2.8130  0.1528
  131OSM   C11S14125   1.355   2.378   7.238  0.4444  0.4818  0.2613
  131OSM   H11S14126   1.384   2.294   7.171 -3.4093 -1.9183  1.2737
  131OSM   H11T14127   1.245   2.387   7.227  0.4475  0.2042 -0.0188
  131OSM   C12S14128   1.378   2.330   7.386  0.1905 -0.7719  0.3848
  131OSM   H12S14129   1.488   2.326   7.401 -0.0394 -2.1692  2.0719
  131OSM   H12T14130   1.343   2.227   7.406  0.5898 -0.9978 -0.0638
  131OSM   C13S14131   1.319   2.436   7.484  0.2082 -0.0250 -0.2994
  131OSM   H13S14132   1.212   2.451   7.458 -0.4359 -0.9336  1.6521
  131OSM   H13T14133   1.378   2.530   7.473  1.9186 -1.0625 -0.3860
  131OSM   C14S14134   1.314   2.387   7.630  0.1784  0.3677  0.3140
  131OSM   H14S14135   1.252   2.295   7.630 -0.3840  0.7292 -0.6978
  131OSM   H14T14136   1.267   2.469   7.688  1.3705  1.2476  0.0787
  131OSM   C15S14137   1.453   2.357   7.685  0.1013  0.0036  0.0404
  131OSM   H15S14138   1.515   2.448   7.697  0.4247 -0.2467  0.2642
  131OSM   H15T14139   1.508   2.288   7.617  0.8332 -0.9039  1.5078
  131OSM   C16S14140   1.463   2.314   7.830 -0.2076  0.2417 -0.1357
  131OSM   H16S14141   1.405   2.384   7.895 -1.2619 -0.9227  0.2287
  131OSM   H16T14142   1.567   2.324   7.866 -0.7480 -0.3017  1.7013
  131OSM   C17S14143   1.420   2.172   7.865  0.2692 -0.4129  0.0868
  131OSM   H17S14144   1.488   2.098   7.815  2.3559  0.7058  1.1335
  131OSM   H17T14145   1.319   2.148   7.826  1.6607 -1.1065 -3.5544
  131OSM   C18S14146   1.428   2.150   8.014  0.0900 -0.4697  0.6786
  131OSM   H18S14147   1.370   2.060   8.042  1.5974 -1.1691  1.6952
  131OSM   H18T14148   1.382   2.240   8.061  0.1551  0.9582 -1.8502
  131OSM   H18U14149   1.530   2.133   8.055 -1.1546 -1.1303  3.8348
  131OSM    C1F14150   1.072   2.602   6.410 -0.1732  0.1541  0.1870
  131OSM     OF14151   0.983   2.535   6.358 -0.0528  0.0222  0.1124
  131OSM    C2F14152   1.045   2.710   6.501  0.0110 -0.7248  0.1896
  131OSM    H2F14153   1.110   2.697   6.591 -0.4870  0.0517  0.6795
  131OSM    H2G14154   0.940   2.694   6.536 -0.4868  0.0547 -0.9152
  131OSM    C3F14155   1.049   2.849   6.430  0.0705 -0.0211 -0.0730
  131OSM    H3F14156   0.984   2.849   6.340 -3.2705  1.1330  2.1478
  131OSM    H3G14157   1.154   2.868   6.399  0.2611  0.5354  0.8590
  131OSM    C4F14158   1.000   2.957   6.520 -0.0002 -0.1795  0.6885
  131OSM    H4F14159   0.901   2.932   6.563  0.0428  0.2970  1.0758
  131OSM    H4G14160   0.974   3.044   6.456 -1.6229 -0.9029  0.2973
  131OSM    C5F14161   1.106   2.992   6.618 -0.0418 -0.7224 -0.2221
  131OSM    H5F14162   1.094   3.102   6.626  1.7327 -0.5059 -0.0894
  131OSM    H5G14163   1.209   2.969   6.585  0.7600 -0.3408  1.8317
  131OSM    C6F14164   1.095   2.929   6.763  0.0491 -0.3609  0.0804
  131OSM    H6F14165   1.073   2.820   6.761  0.1719 -0.3754 -0.6535
  131OSM    H6G14166   1.003   2.974   6.806 -2.2770 -3.4379 -1.2568
  131OSM    C7F14167   1.233   2.949   6.843  0.5793  0.0097 -0.6122
  131OSM    H7F14168   1.208   2.940   6.951 -0.2970  1.5010 -0.6661
  131OSM    H7G14169   1.273   3.050   6.821  0.4780 -0.2716 -2.1730
  131OSM    C8F14170   1.338   2.832   6.821 -0.3508 -0.1491 -0.0015
  131OSM    H8F14171   1.334   2.795   6.716  1.1576  3.1692 -1.3717
  131OSM    H8G14172   1.314   2.751   6.893  0.2116  2.1236  2.8923
  131OSM    C9F14173   1.467   2.890   6.861 -0.0664 -0.7723  0.5678
  131OSM    H9F14174   1.537   2.888   6.776 -2.1987 -0.2647 -1.2759
  131OSM   C10F14175   1.506   2.945   6.977 -0.4115 -0.5267 -0.2768
  131OSM   H10F14176   1.608   2.986   6.982 -0.7773  0.3526  0.0999
  131OSM   C11F14177   1.415   2.950   7.102  0.0040  0.8912 -0.0593
  131OSM   H11F14178   1.325   2.885   7.107  1.4009 -1.0305  2.4793
  131OSM   H11G14179   1.386   3.057   7.108 -0.0889  1.0226 -2.1226
  131OSM   C12F14180   1.494   2.907   7.224 -0.3929 -0.3514  0.0027
  131OSM   H12F14181   1.584   2.972   7.228 -0.2870 -0.3985 -1.1582
  131OSM   H12G14182   1.532   2.804   7.209  2.7385  0.6828  0.1437
  131OSM   C13F14183   1.413   2.924   7.361  0.6684  0.2108 -0.2723
  131OSM   H13F14184   1.309   2.890   7.341  1.2842 -2.4217  0.6262
  131OSM   H13G14185   1.403   3.033   7.377 -0.4118  0.8844 -4.3706
  131OSM   C14F14186   1.481   2.860   7.477  0.3383  0.9888  0.3666
  131OSM   H14F14187   1.589   2.885   7.484  1.1474 -1.1744 -2.5206
  131OSM   H14G14188   1.476   2.751   7.461 -0.1698  0.9950  0.4754
  131OSM   C15F14189   1.402   2.880   7.606  0.2171 -0.3002  0.1029
  131OSM   H15F14190   1.294   2.863   7.583  0.0433 -1.4655  1.5757
  131OSM   H15G14191   1.414   2.987   7.629 -0.5833 -0.0291 -0.6719
  131OSM   C16F14192   1.445   2.792   7.722 -0.4702  0.6302  0.3293
  131OSM   H16F14193   1.551   2.804   7.751 -0.9245  1.0490  1.9655
  131OSM   H16G14194   1.432   2.693   7.675 -1.2906  0.8610  0.0440
  131OSM   C17F14195   1.361   2.789   7.846 -0.8003 -0.0338  0.2100
  131OSM   H17F14196   1.264   2.743   7.819 -1.1614 -0.0339  1.4525
  131OSM   H17G14197   1.330   2.889   7.883 -1.1814  0.2374 -0.8096
  131OSM   C18F14198   1.420   2.711   7.962  0.4475  0.5703  0.0095
  131OSM   H18F14199   1.412   2.604   7.935 -4.3330  0.6589  0.2235
  131OSM   H18G14200   1.365   2.732   8.057  0.3937 -2.2725  0.6807
  131OSM   H18H14201   1.520   2.747   7.995  1.1758 -0.6867 -0.7469
  132OSM      N14202   2.194   4.110   6.386 -0.0238 -0.3309  0.0576
  132OSM    C1514203   2.057   4.187   6.391 -0.1731  0.8784  0.0510
  132OSM   H15A14204   2.019   4.207   6.292 -0.1214 -2.6656 -0.8233
  132OSM   H15B14205   2.059   4.281   6.444  1.7342  1.6119 -1.2002
  132OSM   H15C14206   1.976   4.128   6.431 -0.4848  0.6305 -0.9137
  132OSM    C1414207   2.282   4.188   6.288 -0.6392 -1.1138  0.3693
  132OSM   H14A14208   2.241   4.196   6.188 -0.3121  0.8991  0.3669
  132OSM   H14B14209   2.376   4.135   6.285 -0.3762 -0.6938  1.0566
  132OSM   H14C14210   2.302   4.289   6.320 -0.5095 -0.7712 -0.7331
  132OSM    C1314211   2.260   4.124   6.518  0.0432  0.8807  0.0184
  132OSM   H13A14212   2.355   4.074   6.519 -1.8521 -3.2412 -1.6626
  132OSM   H13B14213   2.198   4.085   6.598 -0.5842 -0.2714 -1.0029
  132OSM   H13C14214   2.275   4.228   6.544 -0.7247  0.7560  1.0382
  132OSM    C1214215   2.166   3.967   6.347  0.0162 -0.2138 -0.1397
  132OSM   H12A14216   2.263   3.924   6.327  1.0664  1.9196  0.0593
  132OSM   H12B14217   2.112   3.963   6.254 -0.8494 -2.7098  0.3851
  132OSM    C1114218   2.089   3.876   6.441 -0.7142 -0.3477 -0.3033
  132OSM   H11A14219   1.980   3.900   6.435 -0.4850  0.5705 -1.0465
  132OSM   H11B14220   2.134   3.887   6.542  3.5862  0.0802 -2.0867
  132OSM      P14221   2.017   3.648   6.324  0.0683  0.0994 -0.2255
  132OSM    O1314222   1.967   3.716   6.202 -0.0988 -0.2865 -0.1816
  132OSM    O1414223   2.083   3.520   6.289  0.1717 -0.1082 -0.0254
  132OSM    O1114224   1.901   3.641   6.423 -0.0364  0.0987 -0.3695
  132OSM    O1214225   2.117   3.740   6.397 -0.0465 -0.5141 -0.2349
  132OSM    C1S14226   1.905   3.560   6.541 -0.2596 -0.2697  0.7222
  132OSM    H1S14227   1.946   3.459   6.522 -1.7482 -0.5105 -1.5638
  132OSM    H1T14228   1.798   3.532   6.554 -1.0874  2.2371 -0.0344
  132OSM     NF14229   2.002   3.545   6.771 -0.1777  0.3571 -0.2659
  132OSM    HNF14230   1.960   3.547   6.862  0.0787  2.3131 -0.1485
  132OSM    C2S14231   1.956   3.637   6.669 -1.2459  0.5224 -0.0496
  132OSM    H2S14232   2.047   3.689   6.633 -0.8393 -0.1928 -0.0753
  132OSM    C3S14233   1.843   3.731   6.718  0.4166  0.5034 -0.7720
  132OSM    H3S14234   1.756   3.672   6.755  2.0514  0.8154  4.2813
  132OSM     O314235   1.785   3.814   6.616 -0.3802 -0.4797 -0.2620
  132OSM    HO314236   1.823   3.781   6.534 -0.2431 -2.2626  0.4753
  132OSM    C4S14237   1.895   3.824   6.826  0.2818 -0.5842 -0.6623
  132OSM    H4S14238   1.988   3.877   6.798 -0.8285  1.2156 -1.0800
  132OSM    C5S14239   1.848   3.845   6.955  0.2037  0.5953  0.3559
  132OSM    H5S14240   1.755   3.792   6.979 -0.9243  1.7441 -1.2125
  132OSM    C6S14241   1.901   3.940   7.057  0.4291  0.7245 -0.1424
  132OSM    H6S14242   1.817   3.985   7.113  0.4372 -1.0497  1.4138
  132OSM    H6T14243   1.964   4.022   7.017 -0.4405 -0.6748 -5.0198
  132OSM    C7S14244   1.979   3.865   7.171 -0.0403 -0.6996  0.4730
  132OSM    H7S14245   2.022   3.938   7.243  2.2276 -2.6709  1.2569
  132OSM    H7T14246   2.059   3.794   7.139 -0.4799 -0.3074 -1.6132
  132OSM    C8S14247   1.884   3.771   7.251 -0.3858 -0.5495 -0.4024
  132OSM    H8S14248   1.868   3.680   7.189 -0.6901  0.5765 -2.0272
  132OSM    H8T14249   1.791   3.831   7.256  0.3614  0.6466 -0.5374
  132OSM    C9S14250   1.936   3.739   7.393 -0.5174 -0.1770  0.2284
  132OSM    H9S14251   1.931   3.827   7.461 -0.1769  0.0107  0.0106
  132OSM    H9T14252   2.041   3.710   7.374  0.1321  0.7832  2.0687
  132OSM   C10S14253   1.854   3.624   7.464 -0.4663  0.0813  0.6042
  132OSM   H10S14254   1.870   3.525   7.415 -2.5718 -0.6587  1.2994
  132OSM   H10T14255   1.749   3.652   7.442  0.0564  0.9535 -0.9060
  132OSM   C11S14256   1.871   3.599   7.614 -0.1386  0.0858  0.0086
  132OSM   H11S14257   1.972   3.636   7.640 -0.4231  0.1054  1.1399
  132OSM   H11T14258   1.863   3.491   7.637  3.0555 -0.7667 -2.2660
  132OSM   C12S14259   1.775   3.690   7.694 -0.0660 -0.8356  0.4987
  132OSM   H12S14260   1.671   3.662   7.668  0.0325 -0.5145 -0.2677
  132OSM   H12T14261   1.791   3.792   7.653 -0.4743 -1.2101 -0.6067
  132OSM   C13S14262   1.799   3.688   7.844 -1.0127  0.3487 -0.2110
  132OSM   H13S14263   1.901   3.712   7.880 -1.0995  0.6202 -0.1409
  132OSM   H13T14264   1.778   3.587   7.884  1.5988 -0.4312 -0.6566
  132OSM   C14S14265   1.704   3.788   7.909 -0.2096 -0.1661  0.8296
  132OSM   H14S14266   1.608   3.780   7.853 -1.0973  0.2961  2.2127
  132OSM   H14T14267   1.749   3.888   7.897  1.4507 -1.0432 -0.8661
  132OSM   C15S14268   1.676   3.758   8.055  0.2815  1.1689 -0.1050
  132OSM   H15S14269   1.638   3.654   8.055  0.1713  1.2066 -0.7329
  132OSM   H15T14270   1.591   3.821   8.089 -0.4862  0.4457 -0.6760
  132OSM   C16S14271   1.796   3.773   8.145 -0.0115  0.3314  0.4084
  132OSM   H16S14272   1.838   3.875   8.131 -0.0251  0.0254 -2.3281
  132OSM   H16T14273   1.861   3.698   8.095 -0.8506  1.0068 -1.7944
  132OSM   C17S14274   1.762   3.719   8.286 -0.3046  0.3463 -0.2606
  132OSM   H17S14275   1.859   3.703   8.338  0.7012  1.5042 -1.7134
  132OSM   H17T14276   1.713   3.619   8.283  1.1147 -0.3720 -3.5144
  132OSM   C18S14277   1.682   3.816   8.373  0.5748  0.1456  0.1238
  132OSM   H18S14278   1.677   3.774   8.476  0.5978 -2.6317 -0.9239
  132OSM   H18T14279   1.585   3.845   8.328  0.3397  1.0050  1.1606
  132OSM   H18U14280   1.749   3.904   8.381  0.0583  0.5647 -0.1614
  132OSM    C1F14281   2.111   3.467   6.759  0.4809 -0.0385  0.3526
  132OSM     OF14282   2.146   3.429   6.650 -0.6302  0.0691  0.1044
  132OSM    C2F14283   2.187   3.427   6.877  0.2714  0.3529 -0.5098
  132OSM    H2F14284   2.259   3.510   6.895  2.0196 -0.9007 -1.4476
  132OSM    H2G14285   2.248   3.335   6.864  0.9950  0.6928  0.4304
  132OSM    C3F14286   2.107   3.410   7.015  0.2578 -0.3759 -0.0332
  132OSM    H3F14287   2.026   3.336   6.996  1.5517 -1.6096 -0.9390
  132OSM    H3G14288   2.065   3.509   7.043 -0.6674 -0.5576 -0.7110
  132OSM    C4F14289   2.188   3.355   7.130  0.7395  0.1380 -0.4035
  132OSM    H4F14290   2.287   3.405   7.139  1.4834 -1.6131  2.9796
  132OSM    H4G14291   2.211   3.247   7.119  1.7842  0.4981 -1.9582
  132OSM    C5F14292   2.110   3.380   7.268 -0.2373 -0.3772  0.4076
  132OSM    H5F14293   2.007   3.342   7.257 -1.4072  2.4299  0.6844
  132OSM    H5G14294   2.109   3.489   7.290  0.6797 -0.0382 -1.0880
  132OSM    C6F14295   2.186   3.315   7.387  0.4693  0.9131  0.0087
  132OSM    H6F14296   2.281   3.370   7.406 -0.3067  2.2306  0.1387
  132OSM    H6G14297   2.209   3.217   7.339 -0.5476  1.6002 -1.9845
  132OSM    C7F14298   2.083   3.273   7.500  0.1730  0.4630  0.3065
  132OSM    H7F14299   1.986   3.253   7.450 -0.0219 -3.5159  1.9064
  132OSM    H7G14300   2.074   3.357   7.572 -0.2008  0.2018  0.5689
  132OSM    C8F14301   2.124   3.151   7.582 -0.9049 -0.1675 -0.3216
  132OSM    H8F14302   2.215   3.180   7.639 -2.7009  4.2566  0.7561
  132OSM    H8G14303   2.153   3.064   7.520 -1.3991 -2.2658  2.2453
  132OSM    C9F14304   2.020   3.106   7.678  0.3680 -1.1156  0.1212
  132OSM    H9F14305   1.949   3.034   7.633  0.1807 -1.6344  1.2358
  132OSM   C10F14306   2.007   3.146   7.805  0.2478 -0.4124 -0.5943
  132OSM   H10F14307   1.921   3.106   7.861 -0.6068 -0.9187 -2.1903
  132OSM   C11F14308   2.090   3.243   7.881  0.0626  0.2728  0.1452
  132OSM   H11F14309   2.180   3.276   7.826  0.2944  0.5442  0.6792
  132OSM   H11G14310   2.138   3.197   7.970 -0.3558 -1.0265 -0.2806
  132OSM   C12F14311   2.022   3.374   7.925  0.1979  0.3015  0.3338
  132OSM   H12F14312   1.973   3.418   7.836  0.1977 -1.3818 -0.5337
  132OSM   H12G14313   2.105   3.437   7.962  0.6175 -1.6327  2.9975
  132OSM   C13F14314   1.923   3.360   8.045 -0.0464 -0.3540  0.2413
  132OSM   H13F14315   1.845   3.284   8.023  2.6838 -3.4416  0.3858
  132OSM   H13G14316   1.884   3.463   8.061  0.2164  0.0114 -1.3738
  132OSM   C14F14317   1.991   3.328   8.179  0.7409  1.0438  0.2776
  132OSM   H14F14318   2.088   3.382   8.185 -0.4645  3.4661 -0.7004
  132OSM   H14G14319   2.021   3.221   8.172 -0.8524  0.4589  1.8672
  132OSM   C15F14320   1.900   3.337   8.303  0.0396 -0.5154  0.8736
  132OSM   H15F14321   1.880   3.446   8.309  0.8112 -0.3705  0.8143
  132OSM   H15G14322   1.959   3.304   8.391  2.8570 -1.2342 -1.1243
  132OSM   C16F14323   1.769   3.255   8.299 -1.0230  0.5560  0.2887
  132OSM   H16F14324   1.791   3.153   8.262  0.0256 -0.2572  2.9293
  132OSM   H16G14325   1.705   3.298   8.219 -2.0560 -1.5560 -0.0769
  132OSM   C17F14326   1.704   3.250   8.427 -0.2271 -0.6475  0.2015
  132OSM   H17F14327   1.762   3.193   8.502 -0.7082 -0.9799  0.3260
  132OSM   H17G14328   1.603   3.206   8.412 -1.0786  1.2923 -0.2163
  132OSM   C18F14329   1.669   3.391   8.483  0.0310  0.0280 -0.7381
  132OSM   H18F14330   1.766   3.441   8.507 -0.0748 -0.2060  0.2216
  132OSM   H18G14331   1.614   3.384   8.579  2.9660  3.0394  1.4302
  132OSM   H18H14332   1.621   3.458   8.409  0.1704  0.3859 -0.5086
  133OSM      N14333   3.407   4.778   6.365 -0.4575  0.2545 -0.0870
  133OSM    C1514334   3.527   4.688   6.345 -0.3383 -0.0255  0.3110
  133OSM   H15A14335   3.582   4.654   6.432 -0.4881 -1.5511 -0.1572
  133OSM   H15B14336   3.601   4.719   6.273 -0.3962  1.4770  0.8618
  133OSM   H15C14337   3.485   4.597   6.304 -3.5307  1.1642  0.6625
  133OSM    C1414338   3.452   4.907   6.423 -0.3289  0.2723  0.1214
  133OSM   H14A14339   3.524   4.960   6.362  0.7781  1.0089  1.9912
  133OSM   H14B14340   3.493   4.889   6.521 -0.7078 -2.6964 -0.1693
  133OSM   H14C14341   3.371   4.978   6.427 -1.1297 -0.6230  0.1848
  133OSM    C1314342   3.339   4.806   6.239 -0.2153  0.3233 -0.2918
  133OSM   H13A14343   3.265   4.884   6.241  1.8807  2.4858 -1.8569
  133OSM   H13B14344   3.302   4.709   6.208  0.7709  0.6022 -2.5572
  133OSM   H13C14345   3.412   4.832   6.164  0.1617 -0.2096 -0.1161
  133OSM    C1214346   3.314   4.700   6.470  0.0725  0.3511 -0.0880
  133OSM   H12A14347   3.231   4.768   6.481 -0.5924 -0.4552 -0.0575
  133OSM   H12B14348   3.368   4.699   6.564  0.5712 -0.9558 -0.3636
  133OSM    C1114349   3.262   4.565   6.438 -0.8084  0.1049  0.5607
  133OSM   H11A14350   3.218   4.566   6.336 -2.1554  2.1578  1.0927
  133OSM   H11B14351   3.176   4.545   6.505 -0.9430 -0.9319  0.0889
  133OSM      P14352   3.339   4.329   6.504  0.0578 -0.0714  0.0228
  133OSM    O1314353   3.289   4.255   6.383  0.4516  0.8196 -0.2923
  133OSM    O1414354   3.464   4.274   6.561 -0.3719  0.3533 -0.1319
  133OSM    O1114355   3.241   4.330   6.622  0.5777  0.2228 -0.1628
  133OSM    O1214356   3.374   4.478   6.463  0.1810 -0.1467 -0.0470
  133OSM    C1S14357   3.269   4.390   6.753  0.1925  0.3170 -1.1459
  133OSM    H1S14358   3.256   4.500   6.757  0.6289  0.3369  0.4119
  133OSM    H1T14359   3.374   4.370   6.783  0.5292  1.6574 -1.3687
  133OSM     NF14360   3.214   4.388   6.995  0.0107 -0.3259 -0.3796
  133OSM    HNF14361   3.256   4.326   7.061  2.1828 -1.9026 -3.0267
  133OSM    C2S14362   3.178   4.325   6.865 -0.2294 -0.2696 -0.2668
  133OSM    H2S14363   3.076   4.366   6.849  0.2212  1.7498  1.5124
  133OSM    C3S14364   3.180   4.173   6.870 -0.3913  0.2952 -0.8306
  133OSM    H3S14365   3.284   4.141   6.896 -0.9551  1.3302  3.2886
  133OSM     O314366   3.138   4.094   6.759  0.5136  0.1810 -0.0132
  133OSM    HO314367   3.137   4.159   6.688 -0.0711  1.0165  0.7494
  133OSM    C4S14368   3.093   4.129   6.982  0.3122 -0.1382  0.0080
  133OSM    H4S14369   3.006   4.196   6.983 -0.9391 -1.6550  1.6135
  133OSM    C5S14370   3.121   4.068   7.092 -0.5482  0.5203 -0.2908
  133OSM    H5S14371   3.227   4.041   7.108 -0.9652 -0.2183  1.5290
  133OSM    C6S14372   3.029   4.038   7.206  0.6750  0.1978  0.2609
  133OSM    H6S14373   3.068   4.088   7.298 -1.2528  3.0961 -0.3641
  133OSM    H6T14374   3.049   3.933   7.235 -0.1945 -0.4148 -1.2830
  133OSM    C7S14375   2.876   4.063   7.190 -0.7889  0.2912 -0.5460
  133OSM    H7S14376   2.833   4.041   7.090 -2.1803 -1.2942  0.3565
  133OSM    H7T14377   2.863   4.173   7.201 -1.3271  0.0113  2.3471
  133OSM    C8S14378   2.784   3.999   7.298 -0.1816 -0.5356  0.6702
  133OSM    H8S14379   2.794   3.888   7.288 -1.4333 -0.6169  0.2078
  133OSM    H8T14380   2.680   4.031   7.279  0.3722  1.0350  0.1515
  133OSM    C9S14381   2.815   4.031   7.444 -0.0948 -0.4048 -0.1184
  133OSM    H9S14382   2.830   4.141   7.450 -1.0200 -0.3445  1.8298
  133OSM    H9T14383   2.910   3.980   7.469  0.5776  1.0368  0.4117
  133OSM   C10S14384   2.717   3.992   7.555 -0.0878 -0.4134  0.3537
  133OSM   H10S14385   2.707   3.883   7.574 -2.8335 -0.2893  0.0129
  133OSM   H10T14386   2.612   4.013   7.524 -0.4698 -1.8183  0.6042
  133OSM   C11S14387   2.760   4.060   7.696 -0.3866  0.8707 -0.3702
  133OSM   H11S14388   2.749   4.167   7.669  1.7195  0.6498 -2.4932
  133OSM   H11T14389   2.868   4.038   7.708  0.0541  2.6831 -0.8016
  133OSM   C12S14390   2.675   4.004   7.807 -0.4594 -0.4611  0.0033
  133OSM   H12S14391   2.692   3.896   7.824 -0.3005 -0.5632 -0.7718
  133OSM   H12T14392   2.571   4.038   7.788  0.2101  1.1005 -1.0543
  133OSM   C13S14393   2.726   4.055   7.941 -0.0498  0.2823 -0.0071
  133OSM   H13S14394   2.718   4.165   7.935 -0.9270  0.1669 -1.2490
  133OSM   H13T14395   2.836   4.040   7.951 -0.1482 -1.7660 -1.4401
  133OSM   C14S14396   2.665   3.996   8.072 -0.8066  0.4872  0.4483
  133OSM   H14S14397   2.697   3.890   8.074  1.2944  1.0499 -0.3274
  133OSM   H14T14398   2.554   3.999   8.077 -0.8294  0.4380  0.0409
  133OSM   C15S14399   2.716   4.076   8.196 -0.6455  0.1064  0.7600
  133OSM   H15S14400   2.655   4.169   8.194 -0.4942  0.1903 -0.4819
  133OSM   H15T14401   2.818   4.114   8.176 -1.7690  1.5851 -3.2384
  133OSM   C16S14402   2.694   4.007   8.326  0.3440  0.4518 -0.3950
  133OSM   H16S14403   2.776   3.934   8.342  0.0454  0.0286 -0.7554
  133OSM   H16T14404   2.599   3.953   8.307  0.0664  0.5798  0.5995
  133OSM   C17S14405   2.683   4.098   8.450 -0.9696 -0.1077 -0.2869
  133OSM   H17S14406   2.611   4.182   8.438  0.1512  1.3561  2.3047
  133OSM   H17T14407   2.781   4.148   8.466 -0.4729  0.1956 -3.5498
  133OSM   C18S14408   2.654   4.015   8.571 -0.0160  0.5460  0.4057
  133OSM   H18S14409   2.633   4.077   8.660  2.3402 -0.1603  1.5601
  133OSM   H18T14410   2.742   3.951   8.597 -0.0233  0.0587 -0.7202
  133OSM   H18U14411   2.574   3.942   8.549  0.0441  0.8572 -0.9461
  133OSM    C1F14412   3.185   4.511   7.028  0.7039  0.2539  0.0363
  133OSM     OF14413   3.145   4.586   6.938  0.2603 -0.6986  0.1274
  133OSM    C2F14414   3.212   4.563   7.169 -0.3723  0.1409  0.9128
  133OSM    H2F14415   3.164   4.663   7.170 -0.6831  0.0074  0.0062
  133OSM    H2G14416   3.320   4.567   7.193  0.3324 -0.0122 -1.9331
  133OSM    C3F14417   3.146   4.462   7.266  0.3962  0.1706 -0.1747
  133OSM    H3F14418   3.215   4.379   7.294  0.7457  0.4845 -0.0896
  133OSM    H3G14419   3.060   4.413   7.217 -0.3129 -0.2751  1.4546
  133OSM    C4F14420   3.099   4.540   7.387  0.2316  0.7704 -0.4331
  133OSM    H4F14421   3.023   4.477   7.438  1.6346 -1.6500 -1.1465
  133OSM    H4G14422   3.042   4.628   7.349 -2.1615 -1.7810 -3.3009
  133OSM    C5F14423   3.204   4.580   7.486 -0.7787 -0.4394 -0.0750
  133OSM    H5F14424   3.157   4.608   7.583 -0.9558  0.8143 -0.5084
  133OSM    H5G14425   3.263   4.666   7.447 -0.0559 -1.8648 -2.2977
  133OSM    C6F14426   3.304   4.471   7.530  0.3113  0.5414  0.6905
  133OSM    H6F14427   3.374   4.459   7.445 -2.1845 -0.3168 -1.3809
  133OSM    H6G14428   3.255   4.372   7.547 -1.3248  1.3681  0.9698
  133OSM    C7F14429   3.379   4.503   7.660  0.1554 -0.8270 -0.6132
  133OSM    H7F14430   3.319   4.561   7.732  3.4880 -0.3818  2.0756
  133OSM    H7G14431   3.461   4.570   7.626 -0.5032 -0.3899 -1.3553
  133OSM    C8F14432   3.442   4.386   7.726  0.2017  0.1889  0.0252
  133OSM    H8F14433   3.361   4.328   7.777  0.7129  2.0323  3.1838
  133OSM    H8G14434   3.500   4.429   7.810 -1.3185 -1.0690  1.8156
  133OSM    C9F14435   3.534   4.299   7.641 -0.2718  0.3547  0.3967
  133OSM    H9F14436   3.610   4.355   7.584  0.2646  0.0225  0.7884
  133OSM   C10F14437   3.531   4.161   7.638 -0.6648 -0.9730 -0.5188
  133OSM   H10F14438   3.610   4.103   7.587  0.6932  0.3999 -0.0712
  133OSM   C11F14439   3.444   4.066   7.717  0.7770 -0.1916 -0.4914
  133OSM   H11F14440   3.374   4.119   7.785 -0.5226 -1.0272 -1.1349
  133OSM   H11G14441   3.510   3.997   7.775  1.3038 -0.8564 -1.8335
  133OSM   C12F14442   3.354   4.000   7.616  0.4978  0.0351 -0.6533
  133OSM   H12F14443   3.413   3.933   7.549 -0.8497 -2.2296  0.3027
  133OSM   H12G14444   3.304   4.070   7.546  2.1088 -0.7159 -2.6597
  133OSM   C13F14445   3.246   3.919   7.688 -0.3201  0.1161 -0.3685
  133OSM   H13F14446   3.167   3.973   7.744 -1.2904 -1.6414  0.0193
  133OSM   H13G14447   3.303   3.861   7.764  0.0547  1.4937  0.4560
  133OSM   C14F14448   3.176   3.815   7.593 -0.3837  0.2075 -0.5321
  133OSM   H14F14449   3.247   3.746   7.543 -0.6371  0.6863 -1.5817
  133OSM   H14G14450   3.137   3.865   7.502  1.7464  1.8383 -0.6459
  133OSM   C15F14451   3.060   3.742   7.653  0.2450  0.4325 -0.4340
  133OSM   H15F14452   2.975   3.807   7.682 -2.1930 -2.7849  0.2372
  133OSM   H15G14453   3.088   3.684   7.744 -4.2042  1.0914  1.6615
  133OSM   C16F14454   2.994   3.637   7.561  0.5117  0.5796 -0.1393
  133OSM   H16F14455   2.959   3.695   7.473  0.3933 -0.6346 -0.9115
  133OSM   H16G14456   2.918   3.576   7.614 -0.0155  0.4143 -1.0685
  133OSM   C17F14457   3.092   3.529   7.506  0.4456 -0.1031 -0.3438
  133OSM   H17F14458   3.127   3.488   7.603  1.4091  1.8034  0.1635
  133OSM   H17G14459   3.172   3.569   7.439  0.5328 -0.9074 -0.7324
  133OSM   C18F14460   3.008   3.429   7.436 -0.1018 -0.6949 -0.4163
  133OSM   H18F14461   2.926   3.399   7.505  0.8222 -0.9220  0.6120
  133OSM   H18G14462   3.067   3.341   7.403 -1.0304 -0.7835 -1.9304
  133OSM   H18H14463   2.965   3.477   7.345 -1.0592 -0.3216  0.2060
  134OSM      N14464   4.164   6.493   6.459  0.1996 -0.3400  0.1427
  134OSM    C1514465   4.111   6.622   6.404 -0.1806 -0.4812 -0.1356
  134OSM   H15A14466   4.106   6.615   6.296  2.4001  0.5081 -0.3748
  134OSM   H15B14467   4.178   6.705   6.419 -0.1874 -0.3821 -0.6441
  134OSM   H15C14468   4.014   6.653   6.440 -0.3071 -0.2494 -0.6646
  134OSM    C1414469   4.062   6.386   6.441 -0.0693  0.0285 -0.3191
  134OSM   H14A14470   4.064   6.364   6.335  4.1452 -1.1957 -0.1641
  134OSM   H14B14471   3.963   6.407   6.479  0.7649 -0.5947  2.3892
  134OSM   H14C14472   4.095   6.291   6.477 -0.6191 -0.8421 -2.0015
  134OSM    C1314473   4.279   6.450   6.376 -0.0446  0.5429  0.2714
  134OSM   H13A14474   4.254   6.438   6.272  2.3122  1.9211 -0.5324
  134OSM   H13B14475   4.320   6.357   6.414 -3.3336 -0.7126  1.0942
  134OSM   H13C14476   4.346   6.534   6.385  1.2043 -0.5124  1.2931
  134OSM    C1214477   4.187   6.525   6.609  0.6045  0.0188 -0.1331
  134OSM   H12A14478   4.204   6.430   6.658 -1.7297 -1.2900 -1.6655
  134OSM   H12B14479   4.090   6.563   6.638  1.1522  2.1599 -0.9160
  134OSM    C1114480   4.295   6.625   6.653  0.0845 -0.0418  0.3323
  134OSM   H11A14481   4.386   6.568   6.624  0.5679  0.6072  0.5686
  134OSM   H11B14482   4.295   6.644   6.762  2.0165 -0.2158  0.4038
  134OSM      P14483   4.376   6.856   6.578  0.3358 -0.1468  0.0509
  134OSM    O1314484   4.455   6.828   6.460 -0.0769  0.0269  0.7055
  134OSM    O1414485   4.310   6.995   6.590  0.3374  0.3905  0.0635
  134OSM    O1114486   4.463   6.823   6.704  0.1354 -0.8854  0.3838
  134OSM    O1214487   4.269   6.750   6.586  0.8710  0.2368 -0.3718
  134OSM    C1S14488   4.438   6.905   6.820  0.0324  0.3320  0.4056
  134OSM    H1S14489   4.333   6.929   6.847 -0.4089 -1.7315  0.6760
  134OSM    H1T14490   4.482   7.007   6.809  1.9038 -0.4287  0.5747
  134OSM     NF14491   4.466   6.907   7.066  0.4504  0.2174 -0.1804
  134OSM    HNF14492   4.526   6.977   7.104 -0.7127  1.1215  0.0328
  134OSM    C2S14493   4.494   6.834   6.945 -0.1907  0.9323 -0.3493
  134OSM    H2S14494   4.449   6.733   6.954  0.7968  0.5133  0.0177
  134OSM    C3S14495   4.651   6.817   6.930  0.0061  0.8869  0.0488
  134OSM    H3S14496   4.696   6.918   6.937 -1.6538  1.5927  1.0965
  134OSM     O314497   4.699   6.758   6.808  0.5060  0.4914  0.0229
  134OSM    HO314498   4.615   6.763   6.761 -0.3039  1.4049  1.4891
  134OSM    C4S14499   4.700   6.746   7.055  0.8245  0.0724  0.2775
  134OSM    H4S14500   4.711   6.815   7.140  0.3042  1.0982 -0.4625
  134OSM    C5S14501   4.719   6.611   7.076  0.1240  0.0885  0.4901
  134OSM    H5S14502   4.701   6.547   6.988  2.7304 -1.1672  0.7649
  134OSM    C6S14503   4.758   6.542   7.199  0.2758 -0.2449  0.0564
  134OSM    H6S14504   4.869   6.546   7.204  0.3445  3.1576 -1.4006
  134OSM    H6T14505   4.721   6.437   7.200  1.7755 -1.0019 -3.7792
  134OSM    C7S14506   4.698   6.612   7.325 -0.4724 -0.0738 -0.1640
  134OSM    H7S14507   4.588   6.626   7.321 -0.5446  0.8574  2.8597
  134OSM    H7T14508   4.744   6.712   7.340 -2.6812  1.1644 -1.1745
  134OSM    C8S14509   4.736   6.545   7.456  0.0625 -0.7465 -0.0273
  134OSM    H8S14510   4.847   6.540   7.454  0.1026  0.1478 -0.2791
  134OSM    H8T14511   4.706   6.438   7.448 -0.0982 -0.6841 -0.2716
  134OSM    C9S14512   4.678   6.615   7.578  0.1192 -0.3298  0.2017
  134OSM    H9S14513   4.568   6.619   7.568  0.2754 -0.6206 -1.9809
  134OSM    H9T14514   4.713   6.720   7.590 -0.1216  0.0606 -2.1446
  134OSM   C10S14515   4.710   6.531   7.703  0.4011 -0.3820 -0.6555
  134OSM   H10S14516   4.818   6.541   7.727 -0.0439 -1.0637  2.0467
  134OSM   H10T14517   4.685   6.425   7.680 -1.4827 -0.1756  0.2501
  134OSM   C11S14518   4.642   6.569   7.831  0.5093  0.7581 -0.2623
  134OSM   H11S14519   4.534   6.581   7.805  0.2059  0.5842  0.8425
  134OSM   H11T14520   4.680   6.661   7.880  1.7267 -0.1717  0.5804
  134OSM   C12S14521   4.641   6.474   7.956 -0.3328  0.5947 -0.0351
  134OSM   H12S14522   4.627   6.375   7.908 -0.4551 -0.3091  1.7854
  134OSM   H12T14523   4.562   6.501   8.029  0.9857  0.7786  1.3785
  134OSM   C13S14524   4.781   6.477   8.021  0.1302  0.5216 -0.3090
  134OSM   H13S14525   4.779   6.574   8.075  1.9024 -0.1145  1.0071
  134OSM   H13T14526   4.868   6.464   7.952 -0.4616 -0.6178 -0.8723
  134OSM   C14S14527   4.816   6.371   8.133 -0.3519  0.3568 -0.8176
  134OSM   H14S14528   4.923   6.378   8.163 -0.2713 -1.3439 -0.6036
  134OSM   H14T14529   4.795   6.272   8.087 -0.6437  0.9149 -1.9122
  134OSM   C15S14530   4.734   6.390   8.263 -0.2024  0.1632  0.5740
  134OSM   H15S14531   4.628   6.385   8.232  0.2482 -2.5257 -0.8485
  134OSM   H15T14532   4.753   6.496   8.289 -0.6838 -0.0238  1.7525
  134OSM   C16S14533   4.776   6.274   8.361 -0.3547  0.5176 -0.1322
  134OSM   H16S14534   4.778   6.181   8.299  1.2484 -0.6613  1.5758
  134OSM   H16T14535   4.691   6.274   8.431 -0.4105  0.1887 -0.1937
  134OSM   C17S14536   4.910   6.296   8.421 -0.8901 -0.4276  0.2620
  134OSM   H17S14537   4.913   6.394   8.474 -2.0557 -1.2610  1.9760
  134OSM   H17T14538   4.995   6.297   8.350 -0.1304 -1.3828  1.1290
  134OSM   C18S14539   4.955   6.183   8.523 -0.4682 -0.0435 -0.0716
  134OSM   H18S14540   4.929   6.085   8.478  0.1111  0.4823 -1.5888
  134OSM   H18T14541   4.885   6.193   8.609 -1.0926 -0.9975 -0.4446
  134OSM   H18U14542   5.061   6.188   8.554 -0.4200 -2.9020  0.5551
  134OSM    C1F14543   4.354   6.896   7.129  0.4671  0.1985 -0.1781
  134OSM     OF14544   4.255   6.843   7.075  0.6078  0.3800 -0.5902
  134OSM    C2F14545   4.359   6.972   7.258  0.5479  0.4248 -0.3027
  134OSM    H2F14546   4.270   7.039   7.253 -0.6655 -1.0535  0.5606
  134OSM    H2G14547   4.443   7.044   7.261 -0.2687  1.3665  0.7569
  134OSM    C3F14548   4.340   6.878   7.381 -0.2535  0.1343 -0.3990
  134OSM    H3F14549   4.436   6.828   7.402  0.8396  2.0223 -0.7290
  134OSM    H3G14550   4.276   6.792   7.350  1.3187 -0.6988 -1.4814
  134OSM    C4F14551   4.295   6.945   7.510 -0.5764 -0.7004  0.1045
  134OSM    H4F14552   4.191   6.984   7.511  0.6623  3.0782  1.2673
  134OSM    H4G14553   4.367   7.029   7.525  0.4716 -1.5405 -0.0376
  134OSM    C5F14554   4.295   6.840   7.621 -0.0420 -0.0912  0.2956
  134OSM    H5F14555   4.380   6.770   7.617  1.0005  1.1445  0.0132
  134OSM    H5G14556   4.199   6.786   7.611 -1.1474  1.6766  0.8098
  134OSM    C6F14557   4.302   6.907   7.765 -0.3152  0.3231  0.1759
  134OSM    H6F14558   4.204   6.958   7.775 -0.2841  0.3582  0.3158
  134OSM    H6G14559   4.381   6.985   7.769  1.3729 -1.2149 -1.3528
  134OSM    C7F14560   4.319   6.805   7.877 -0.4335 -0.7685 -0.5309
  134OSM    H7F14561   4.427   6.787   7.859 -0.0368  2.8125 -2.9600
  134OSM    H7G14562   4.254   6.718   7.854  0.3751 -1.7539  0.8344
  134OSM    C8F14563   4.292   6.854   8.019  0.4396  0.2112  0.9012
  134OSM    H8F14564   4.185   6.878   8.039  0.7743  1.6223  1.0558
  134OSM    H8G14565   4.352   6.944   8.042  2.6925 -0.7754 -0.6557
  134OSM    C9F14566   4.338   6.746   8.111 -0.0887  0.8648  1.7015
  134OSM    H9F14567   4.264   6.674   8.150  0.5037 -0.4323  0.5162
  134OSM   C10F14568   4.462   6.726   8.171  0.6486  0.0328 -0.0471
  134OSM   H10F14569   4.478   6.631   8.225 -0.9951 -0.2720 -0.0481
  134OSM   C11F14570   4.588   6.803   8.159 -0.8121 -0.0011  0.5228
  134OSM   H11F14571   4.588   6.878   8.078 -2.5354  1.0017  1.3889
  134OSM   H11G14572   4.672   6.734   8.137 -0.8750 -0.7913  2.4852
  134OSM   C12F14573   4.633   6.857   8.295  0.3658 -0.5395 -0.3827
  134OSM   H12F14574   4.737   6.897   8.284  0.3412 -0.1489  0.6526
  134OSM   H12G14575   4.639   6.777   8.372  0.1113  0.1312  0.3500
  134OSM   C13F14576   4.554   6.972   8.352  0.4338  0.0811  0.1117
  134OSM   H13F14577   4.448   6.944   8.338 -0.0596  1.8277  0.1546
  134OSM   H13G14578   4.575   7.053   8.278 -0.5204 -2.1187 -2.7234
  134OSM   C14F14579   4.586   7.025   8.495 -0.5522  0.1314  0.6486
  134OSM   H14F14580   4.612   6.943   8.565 -1.9112 -1.7405 -0.8931
  134OSM   H14G14581   4.486   7.064   8.523 -1.8528 -0.5573 -2.5046
  134OSM   C15F14582   4.693   7.132   8.497  0.1655 -0.4127 -0.6299
  134OSM   H15F14583   4.670   7.211   8.422  0.3350  0.4888  0.2433
  134OSM   H15G14584   4.793   7.093   8.468 -0.8139 -3.0227 -0.7081
  134OSM   C16F14585   4.707   7.190   8.639  0.3670 -0.3853  0.5202
  134OSM   H16F14586   4.697   7.111   8.717  1.0778 -1.0113 -0.0006
  134OSM   H16G14587   4.624   7.259   8.666 -0.7565 -1.6696  0.4711
  134OSM   C17F14588   4.839   7.260   8.654  0.3599  0.4593 -0.3264
  134OSM   H17F14589   4.851   7.319   8.560  0.6647 -0.8962 -1.1530
  134OSM   H17G14590   4.912   7.177   8.662  1.0435  1.0305 -0.5344
  134OSM   C18F14591   4.849   7.352   8.773 -0.1849 -0.9881  0.0370
  134OSM   H18F14592   4.747   7.394   8.780  0.5917  2.2455 -4.0594
  134OSM   H18G14593   4.915   7.440   8.756 -1.3335 -0.1386 -0.0642
  134OSM   H18H14594   4.877   7.282   8.855  1.2914 -0.5164 -0.0346
  135OSM      N14595   3.554   0.293   6.559 -0.2966 -0.4675 -0.1787
  135OSM    C1514596   3.508   0.438   6.569 -0.4498  0.6987  0.2498
  135OSM   H15A14597   3.403   0.428   6.592 -0.7535 -1.0390 -1.6093
  135OSM   H15B14598   3.519   0.492   6.476 -0.0300  0.2886  0.0566
  135OSM   H15C14599   3.560   0.491   6.648 -0.2249 -1.3619  1.5686
  135OSM    C1414600   3.499   0.216   6.443  0.1226 -0.1925  1.1273
  135OSM   H14A14601   3.396   0.193   6.465 -0.8765  2.4647 -0.2584
  135OSM   H14B14602   3.554   0.124   6.430 -0.4209 -0.7926  2.7853
  135OSM   H14C14603   3.489   0.276   6.353 -0.1140 -0.7161  0.7945
  135OSM    C1314604   3.701   0.311   6.529 -0.1345  0.2908 -0.8195
  135OSM   H13A14605   3.747   0.214   6.538 -0.5647  0.3199  3.4534
  135OSM   H13B14606   3.740   0.384   6.598  0.3001  1.4498 -2.2468
  135OSM   H13C14607   3.713   0.362   6.434 -0.3097  4.1009  1.0444
  135OSM    C1214608   3.538   0.218   6.690  0.2343  0.5450  0.3247
  135OSM   H12A14609   3.439   0.241   6.726  0.3267  2.8102 -0.6805
  135OSM   H12B14610   3.608   0.253   6.765  3.3649 -0.9756 -1.6581
  135OSM    C1114611   3.569   0.061   6.684  0.1998  0.6139  0.2724
  135OSM   H11A14612   3.489   0.007   6.629 -0.0891  1.0781  0.2286
  135OSM   H11B14613   3.559   0.018   6.785 -0.2839  0.7122  0.2679
  135OSM      P14614   3.744  -0.109   6.611  0.7755  0.1051  0.5598
  135OSM    O1314615   3.662  -0.205   6.696 -0.4036 -0.2912 -0.2272
  135OSM    O1414616   3.755  -0.141   6.469  0.2943  0.0680 -0.0118
  135OSM    O1114617   3.889  -0.106   6.670 -0.6226  0.0055 -0.4850
  135OSM    O1214618   3.691   0.032   6.619 -0.0015 -0.4409 -0.3599
  135OSM    C1S14619   3.958   0.009   6.724  0.0261 -0.7227 -0.1822
  135OSM    H1S14620   3.934   0.108   6.678 -2.2139 -0.1492  2.0224
  135OSM    H1T14621   4.068  -0.005   6.728 -0.1277 -1.6983  1.0966
  135OSM     NF14622   3.980   0.138   6.945 -0.1982  0.0055 -0.1780
  135OSM    HNF14623   4.069   0.128   6.988  0.2783  0.1852 -1.0959
  135OSM    C2S14624   3.921   0.020   6.878 -0.4243  0.6603  0.3595
  135OSM    H2S14625   3.813   0.042   6.870 -0.1213  1.9065 -0.5698
  135OSM    C3S14626   3.958  -0.117   6.960 -0.3648 -0.5910  0.4660
  135OSM    H3S14627   4.067  -0.136   6.960 -0.6029 -2.1329 -0.5713
  135OSM     O314628   3.908  -0.233   6.898  0.1127  0.4666 -0.1081
  135OSM    HO314629   3.869  -0.206   6.815  1.8528 -0.8389 -1.4199
  135OSM    C4S14630   3.889  -0.106   7.090 -0.3058  0.4630  0.0974
  135OSM    H4S14631   3.780  -0.113   7.096 -0.2981 -0.4435 -0.6708
  135OSM    C5S14632   3.964  -0.091   7.203 -0.6347  0.2370 -0.1853
  135OSM    H5S14633   4.072  -0.072   7.190 -0.3903 -0.9271  0.0269
  135OSM    C6S14634   3.898  -0.084   7.333  0.2485  0.1984 -0.0593
  135OSM    H6S14635   3.892  -0.188   7.370 -3.4560 -0.1114 -1.0698
  135OSM    H6T14636   3.797  -0.038   7.318 -0.1971 -1.1490 -1.5260
  135OSM    C7S14637   3.973  -0.005   7.444  1.0362  0.2651 -0.5412
  135OSM    H7S14638   3.977   0.097   7.401  0.1681  0.2652 -0.6544
  135OSM    H7T14639   4.074  -0.050   7.454  0.5636 -0.5600  0.8107
  135OSM    C8S14640   3.918   0.003   7.589  0.0497 -0.0720  0.0330
  135OSM    H8S14641   3.817   0.049   7.588  0.2295  0.3887  1.1282
  135OSM    H8T14642   3.978   0.073   7.652 -0.2843  0.2700 -0.0234
  135OSM    C9S14643   3.920  -0.131   7.652  0.2883 -0.4158 -0.1018
  135OSM    H9S14644   4.014  -0.190   7.643 -1.1534 -2.7676 -0.5730
  135OSM    H9T14645   3.839  -0.196   7.612  0.9299  0.0557 -2.3173
  135OSM   C10S14646   3.900  -0.105   7.802  0.1446  0.3544 -0.6266
  135OSM   H10S14647   3.816  -0.033   7.807  1.2518  1.6582  2.5274
  135OSM   H10T14648   3.981  -0.042   7.845 -2.0082  1.8847  1.4373
  135OSM   C11S14649   3.876  -0.230   7.885 -0.2098 -0.4363  0.2748
  135OSM   H11S14650   3.969  -0.283   7.856  1.2858  1.1700  1.8026
  135OSM   H11T14651   3.787  -0.284   7.846 -0.7039 -0.3073  1.1973
  135OSM   C12S14652   3.840  -0.195   8.035  0.5976 -0.6607 -0.2775
  135OSM   H12S14653   3.810  -0.293   8.078 -1.8055 -0.4325 -1.3039
  135OSM   H12T14654   3.758  -0.121   8.039 -2.1463 -3.3611 -2.2934
  135OSM   C13S14655   3.962  -0.140   8.111  0.7918  0.5409  0.0917
  135OSM   H13S14656   3.987  -0.036   8.078  2.4915  0.1220 -0.0240
  135OSM   H13T14657   4.051  -0.206   8.102 -0.5272 -0.9766 -3.6152
  135OSM   C14S14658   3.920  -0.138   8.260  0.2919 -0.3900 -0.2599
  135OSM   H14S14659   4.001  -0.080   8.308 -0.8859  0.0610  1.2614
  135OSM   H14T14660   3.940  -0.242   8.292  2.2361 -0.2283 -0.7888
  135OSM   C15S14661   3.784  -0.072   8.298 -0.2263  0.8202 -0.4221
  135OSM   H15S14662   3.711  -0.141   8.250 -2.4879  1.7029  1.5415
  135OSM   H15T14663   3.781   0.024   8.242  0.8197  0.8541 -0.4454
  135OSM   C16S14664   3.757  -0.049   8.444 -0.0578  0.1006  0.7021
  135OSM   H16S14665   3.651  -0.020   8.460  0.1917  1.6047 -0.2078
  135OSM   H16T14666   3.815   0.037   8.483  1.5730 -0.3544 -0.5792
  135OSM   C17S14667   3.801  -0.178   8.519  0.2440  0.1754  0.7873
  135OSM   H17S14668   3.911  -0.188   8.532  0.1436  0.1368  1.6742
  135OSM   H17T14669   3.754  -0.268   8.475 -0.0354  1.0663 -0.8337
  135OSM   C18S14670   3.745  -0.164   8.660  0.3940 -0.3988  0.2493
  135OSM   H18S14671   3.635  -0.147   8.666  0.5276 -0.0299  2.7258
  135OSM   H18T14672   3.785  -0.078   8.717 -4.7085  2.2183  0.4691
  135OSM   H18U14673   3.769  -0.258   8.714  1.8092  0.5245  1.2831
  135OSM    C1F14674   3.936   0.257   6.922  0.5077 -0.6933  0.1562
  135OSM     OF14675   3.835   0.278   6.847 -0.2771 -0.4668  0.2604
  135OSM    C2F14676   4.016   0.372   6.968  0.4194 -0.1372 -0.5130
  135OSM    H2F14677   4.032   0.441   6.883  0.4004 -0.5041 -0.8142
  135OSM    H2G14678   4.116   0.334   6.997 -0.2261 -1.3312  0.2084
  135OSM    C3F14679   3.925   0.435   7.082 -0.4692 -0.5854  0.2265
  135OSM    H3F14680   3.817   0.431   7.058 -0.4662 -0.8237  0.2539
  135OSM    H3G14681   3.965   0.539   7.084  2.5402 -1.5907  4.0146
  135OSM    C4F14682   3.945   0.379   7.219  0.4456 -0.9175 -0.1374
  135OSM    H4F14683   4.054   0.392   7.239  0.6976 -1.1743 -1.2775
  135OSM    H4G14684   3.918   0.271   7.221  1.4166 -1.1651  0.3011
  135OSM    C5F14685   3.860   0.458   7.327 -0.3409 -0.1992 -0.1422
  135OSM    H5F14686   3.756   0.450   7.289 -1.1192 -3.0123  2.2428
  135OSM    H5G14687   3.888   0.565   7.338 -1.7588  0.0562  1.3094
  135OSM    C6F14688   3.879   0.400   7.465 -0.4316 -0.0931 -0.8443
  135OSM    H6F14689   3.974   0.440   7.507 -0.6693 -1.9179  1.6096
  135OSM    H6G14690   3.870   0.289   7.470  1.3785 -0.2480 -0.5108
  135OSM    C7F14691   3.772   0.463   7.556 -0.3298 -0.4491  1.0215
  135OSM    H7F14692   3.675   0.424   7.520  0.2652  0.6548 -2.0827
  135OSM    H7G14693   3.773   0.571   7.527 -1.1029 -0.5422  0.6530
  135OSM    C8F14694   3.809   0.454   7.706 -0.1523 -0.1528  0.3617
  135OSM    H8F14695   3.733   0.516   7.758 -1.0961 -1.5606  0.7061
  135OSM    H8G14696   3.912   0.495   7.716  0.2423 -1.1819  0.5704
  135OSM    C9F14697   3.790   0.317   7.762  0.6329  0.0083  0.1550
  135OSM    H9F14698   3.826   0.237   7.695 -1.6444 -1.5883  0.7071
  135OSM   C10F14699   3.734   0.287   7.881  0.2550 -0.2140  0.0143
  135OSM   H10F14700   3.727   0.179   7.904 -1.0360 -0.0165  0.6512
  135OSM   C11F14701   3.683   0.385   7.988  0.6560 -0.4485 -0.7851
  135OSM   H11F14702   3.574   0.408   7.989  0.7467 -0.0192  0.5950
  135OSM   H11G14703   3.733   0.483   7.974  1.1861 -0.4175  1.0693
  135OSM   C12F14704   3.726   0.350   8.134 -0.8622 -0.6003  0.2777
  135OSM   H12F14705   3.690   0.253   8.174  0.4361 -1.1178  0.2407
  135OSM   H12G14706   3.688   0.438   8.191  0.7884  1.7325 -1.9922
  135OSM   C13F14707   3.874   0.348   8.151  0.2872  0.3544  0.2602
  135OSM   H13F14708   3.919   0.426   8.086  2.8485 -3.0700 -2.4727
  135OSM   H13G14709   3.906   0.258   8.094  1.7105  3.0695 -3.6077
  135OSM   C14F14710   3.928   0.346   8.299 -0.1273 -0.2133  0.2239
  135OSM   H14F14711   3.861   0.283   8.362  2.4230 -0.4965  2.9089
  135OSM   H14G14712   3.944   0.446   8.345  1.1503  0.6980 -2.0749
  135OSM   C15F14713   4.062   0.268   8.299  0.1129  0.2896  0.5859
  135OSM   H15F14714   4.145   0.314   8.240 -0.1997  3.0194  2.0920
  135OSM   H15G14715   4.049   0.169   8.251  0.9680  1.4891 -2.3931
  135OSM   C16F14716   4.115   0.245   8.441 -0.1767 -0.0514 -0.7958
  135OSM   H16F14717   4.020   0.243   8.500  0.4228  2.6055  0.4390
  135OSM   H16G14718   4.165   0.340   8.470 -0.2054  0.4126 -2.1636
  135OSM   C17F14719   4.180   0.115   8.469 -0.5010 -0.4281 -0.2397
  135OSM   H17F14720   4.259   0.101   8.392 -0.8703  0.3345 -0.7680
  135OSM   H17G14721   4.102   0.039   8.446  0.5783 -2.3893  2.1230
  135OSM   C18F14722   4.230   0.088   8.612 -0.8205 -1.0019  1.0729
  135OSM   H18F14723   4.212  -0.019   8.634 -1.0809 -1.2120 -0.0707
  135OSM   H18G14724   4.168   0.148   8.681 -1.6927  0.4555 -0.8796
  135OSM   H18H14725   4.339   0.109   8.626 -1.1321  0.3399  1.6063
  136OSM      N14726   2.765   1.617   5.843  0.2287 -0.5412 -0.0055
  136OSM    C1514727   2.877   1.568   5.759 -0.2577  0.3789  0.0930
  136OSM   H15A14728   2.848   1.558   5.656  0.1038  0.2263  0.0063
  136OSM   H15B14729   2.896   1.465   5.788 -0.2049  0.3661  0.0103
  136OSM   H15C14730   2.965   1.628   5.770 -0.0449  0.1455 -0.3138
  136OSM    C1414731   2.715   1.732   5.760  0.1216  0.0124 -0.7393
  136OSM   H14A14732   2.682   1.702   5.662 -3.6256 -1.1123  0.7246
  136OSM   H14B14733   2.789   1.806   5.734 -2.5252  3.2071  0.1210
  136OSM   H14C14734   2.641   1.798   5.803  2.2986  1.6723  0.6951
  136OSM    C1314735   2.657   1.513   5.851  0.8459 -0.2952 -0.0522
  136OSM   H13A14736   2.566   1.568   5.833  1.5795  0.1637 -2.8817
  136OSM   H13B14737   2.660   1.471   5.950 -0.7064 -2.6745 -0.9290
  136OSM   H13C14738   2.666   1.439   5.772  2.0447 -0.3974  0.1517
  136OSM    C1214739   2.802   1.666   5.985  0.6523  0.4594  0.2396
  136OSM   H12A14740   2.718   1.717   6.031 -0.9730 -1.4635 -0.4432
  136OSM   H12B14741   2.876   1.744   5.977 -1.1789  2.1315 -1.5234
  136OSM    C1114742   2.839   1.562   6.090  0.3027  0.4835 -0.4189
  136OSM   H11A14743   2.862   1.607   6.189  5.6651 -4.0164  0.8750
  136OSM   H11B14744   2.926   1.502   6.057  0.3857 -0.6214  1.6387
  136OSM      P14745   2.771   1.335   6.183  0.3687  0.1674  0.6125
  136OSM    O1314746   2.648   1.284   6.249 -0.2525 -0.3195 -0.2292
  136OSM    O1414747   2.840   1.248   6.087 -0.0942  0.3604  0.5423
  136OSM    O1114748   2.878   1.382   6.288 -0.4640 -0.1236 -0.2003
  136OSM    O1214749   2.731   1.481   6.120  0.5696 -0.4509 -0.2727
  136OSM    C1S14750   2.832   1.452   6.400 -0.2836 -1.1006 -0.9507
  136OSM    H1S14751   2.726   1.485   6.392 -0.4994 -1.6153 -0.3122
  136OSM    H1T14752   2.887   1.547   6.414 -0.9958 -1.1687  3.7590
  136OSM     NF14753   2.804   1.453   6.637 -0.6053 -0.2053  0.3854
  136OSM    HNF14754   2.861   1.509   6.697 -3.6330  1.2603  2.1395
  136OSM    C2S14755   2.850   1.376   6.532  0.1931  0.1984  0.0367
  136OSM    H2S14756   2.788   1.284   6.535  0.0304  0.3337  1.6073
  136OSM    C3S14757   3.001   1.338   6.552  0.2000 -0.0794  0.3547
  136OSM    H3S14758   3.054   1.435   6.557  1.7278 -0.8884  0.4089
  136OSM     O314759   3.049   1.265   6.440 -0.3357  0.4184 -0.3541
  136OSM    HO314760   2.981   1.282   6.374 -2.3702 -2.2488  0.8408
  136OSM    C4S14761   3.014   1.257   6.678  0.0158  0.0566  0.2988
  136OSM    H4S14762   2.916   1.223   6.714 -0.7912 -0.3315 -2.1070
  136OSM    C5S14763   3.127   1.240   6.746  0.0173  0.4879 -0.2110
  136OSM    H5S14764   3.225   1.272   6.707  0.9195  0.0788  1.5856
  136OSM    C6S14765   3.127   1.179   6.882  0.3235 -0.3310 -0.4884
  136OSM    H6S14766   3.226   1.134   6.903  1.2731  1.9339  0.2525
  136OSM    H6T14767   3.042   1.109   6.896  1.1202 -0.8553  2.3661
  136OSM    C7S14768   3.120   1.270   7.010  0.6776  0.1964  0.5742
  136OSM    H7S14769   3.021   1.320   6.996 -0.9427 -3.1495 -1.1251
  136OSM    H7T14770   3.205   1.342   7.012  1.1926 -0.3081 -1.1561
  136OSM    C8S14771   3.142   1.201   7.142  0.0250 -0.3378  0.4069
  136OSM    H8S14772   3.251   1.185   7.150 -0.0932 -0.6745  1.3978
  136OSM    H8T14773   3.085   1.106   7.150 -0.1407 -0.6296 -2.8005
  136OSM    C9S14774   3.105   1.281   7.262  0.1533  0.1338  0.3127
  136OSM    H9S14775   2.995   1.295   7.261 -0.3913 -2.7215  3.6217
  136OSM    H9T14776   3.147   1.383   7.251 -2.4594  1.4228  1.4016
  136OSM   C10S14777   3.147   1.217   7.391 -1.1548 -0.2993  0.5998
  136OSM   H10S14778   3.257   1.213   7.404 -1.2309 -2.1915  0.9429
  136OSM   H10T14779   3.118   1.110   7.381 -2.7747  0.1072  0.7632
  136OSM   C11S14780   3.094   1.283   7.517 -0.6267  0.1397 -1.3259
  136OSM   H11S14781   2.984   1.281   7.505 -1.1626 -0.2066  2.3356
  136OSM   H11T14782   3.131   1.387   7.520 -0.2998  0.0636  2.0971
  136OSM   C12S14783   3.126   1.191   7.636  0.3297  0.9785  0.2798
  136OSM   H12S14784   3.237   1.182   7.640  0.3890  0.6615 -1.3664
  136OSM   H12T14785   3.089   1.088   7.619 -0.3984  1.2919 -0.0928
  136OSM   C13S14786   3.084   1.249   7.773  1.0853  0.1782  0.2751
  136OSM   H13S14787   3.091   1.168   7.848 -0.9069  2.4105  3.0954
  136OSM   H13T14788   2.976   1.274   7.763  1.2324  0.4650 -0.7597
  136OSM   C14S14789   3.163   1.364   7.822 -0.5755 -0.6615 -0.2259
  136OSM   H14S14790   3.144   1.454   7.759 -0.3994 -1.2553 -1.1515
  136OSM   H14T14791   3.266   1.326   7.836 -0.5484  0.2386  2.4960
  136OSM   C15S14792   3.117   1.401   7.965  0.9258  0.4556 -0.3005
  136OSM   H15S14793   3.011   1.433   7.968  0.0252 -2.3166  1.8435
  136OSM   H15T14794   3.176   1.490   7.995 -0.2104  0.1938  3.1310
  136OSM   C16S14795   3.125   1.289   8.059 -0.2484 -0.0114 -0.2123
  136OSM   H16S14796   3.213   1.223   8.042  0.1449  0.4990 -0.1537
  136OSM   H16T14797   3.044   1.214   8.044 -0.6125  0.7181 -2.1773
  136OSM   C17S14798   3.112   1.322   8.207 -0.0039 -0.4489  0.2627
  136OSM   H17S14799   3.171   1.413   8.232 -3.3765  2.8965 -2.6723
  136OSM   H17T14800   3.155   1.236   8.262  0.4138 -1.2729 -1.2917
  136OSM   C18S14801   2.969   1.341   8.250 -0.4983  0.4843 -0.4278
  136OSM   H18S14802   2.964   1.388   8.351  1.4381  0.0690 -0.1114
  136OSM   H18T14803   2.913   1.247   8.234 -0.3119  0.2514  0.2324
  136OSM   H18U14804   2.938   1.418   8.176 -0.6688 -0.2070 -1.0893
  136OSM    C1F14805   2.679   1.486   6.668  0.1766 -0.2476 -0.7877
  136OSM     OF14806   2.577   1.448   6.612  0.7787 -0.2866 -0.2929
  136OSM    C2F14807   2.668   1.587   6.773 -0.0383  0.5439  0.0375
  136OSM    H2F14808   2.687   1.688   6.731 -0.4592  1.1605  1.2689
  136OSM    H2G14809   2.746   1.569   6.849  2.1138 -3.6415 -2.8057
  136OSM    C3F14810   2.538   1.588   6.859 -0.4229  0.2376 -0.0769
  136OSM    H3F14811   2.441   1.608   6.808 -0.8424  0.9963  0.9934
  136OSM    H3G14812   2.553   1.661   6.940  0.7683 -1.2704  1.1297
  136OSM    C4F14813   2.518   1.454   6.934 -0.1782  0.0382  0.5050
  136OSM    H4F14814   2.618   1.425   6.972  1.2013  1.2615 -1.9684
  136OSM    H4G14815   2.477   1.372   6.871 -1.1669 -0.2941  1.5350
  136OSM    C5F14816   2.425   1.451   7.052 -0.3863  0.3213  0.4217
  136OSM    H5F14817   2.451   1.355   7.101  0.3414  1.2389  1.9252
  136OSM    H5G14818   2.322   1.449   7.010 -0.0287  2.4365 -0.6966
  136OSM    C6F14819   2.444   1.560   7.161  0.0664 -0.0409  0.0925
  136OSM    H6F14820   2.365   1.564   7.239 -0.4234 -0.0541 -0.3966
  136OSM    H6G14821   2.432   1.660   7.115  0.9701  0.6610  1.3255
  136OSM    C7F14822   2.572   1.536   7.240  0.8655 -0.4300 -0.3811
  136OSM    H7F14823   2.656   1.508   7.172  0.6449  0.2477 -0.9374
  136OSM    H7G14824   2.571   1.457   7.318  2.4036  1.2665  1.4338
  136OSM    C8F14825   2.627   1.659   7.313 -0.5453  0.2366  0.0420
  136OSM    H8F14826   2.549   1.710   7.374 -0.1671  1.0562 -0.1539
  136OSM    H8G14827   2.657   1.726   7.230  1.7712  0.0570  0.6758
  136OSM    C9F14828   2.752   1.621   7.396  0.1444 -0.0904 -0.3537
  136OSM    H9F14829   2.845   1.592   7.345  2.3722  0.9014  2.8584
  136OSM   C10F14830   2.760   1.616   7.536  0.1405 -0.1912 -0.2767
  136OSM   H10F14831   2.853   1.591   7.588  0.3385 -0.4168 -0.7320
  136OSM   C11F14832   2.648   1.647   7.634  0.0670 -0.3078  1.5075
  136OSM   H11F14833   2.595   1.552   7.655  0.8737 -0.6944  1.8270
  136OSM   H11G14834   2.576   1.713   7.581  1.6785 -1.2124 -2.2058
  136OSM   C12F14835   2.689   1.715   7.762 -0.1481 -0.1031  0.3059
  136OSM   H12F14836   2.592   1.731   7.814 -0.8362 -0.7121 -0.7637
  136OSM   H12G14837   2.733   1.814   7.737 -0.9755  0.2920  0.3729
  136OSM   C13F14838   2.792   1.642   7.837  0.1158  0.4663 -0.1013
  136OSM   H13F14839   2.893   1.669   7.799 -0.3802  1.8531 -0.5004
  136OSM   H13G14840   2.779   1.533   7.827 -1.1056  0.7019 -1.3380
  136OSM   C14F14841   2.790   1.688   7.987  0.7013 -0.2735 -0.5555
  136OSM   H14F14842   2.783   1.799   7.994 -4.2924 -0.2659 -1.8053
  136OSM   H14G14843   2.883   1.655   8.038  0.8006  1.4218  0.4299
  136OSM   C15F14844   2.667   1.622   8.057  0.4101  0.2549  0.5213
  136OSM   H15F14845   2.674   1.513   8.040  1.2680  0.6325 -1.8777
  136OSM   H15G14846   2.570   1.664   8.024  0.3935  0.4467  0.8067
  136OSM   C16F14847   2.685   1.657   8.212 -1.1743  0.2597  0.3024
  136OSM   H16F14848   2.720   1.763   8.219 -0.7157  0.1047  0.3840
  136OSM   H16G14849   2.768   1.598   8.254  0.1525  2.8505  1.5491
  136OSM   C17F14850   2.563   1.629   8.290 -0.2202  0.0068  0.4571
  136OSM   H17F14851   2.534   1.524   8.269  0.9806 -0.0491 -1.1237
  136OSM   H17G14852   2.481   1.689   8.245 -2.4621 -1.3625  2.4909
  136OSM   C18F14853   2.569   1.655   8.439 -0.9139 -0.2508 -0.0945
  136OSM   H18F14854   2.587   1.761   8.466  0.5626 -0.2320 -1.0289
  136OSM   H18G14855   2.666   1.607   8.465 -0.3181  0.7740 -0.3557
  136OSM   H18H14856   2.483   1.628   8.504  0.6758  0.5113  2.4897
  137OSM      N14857   5.028   5.573   6.179 -0.4759 -0.3248 -0.0372
  137OSM    C1514858   5.112   5.560   6.054 -0.4918 -0.0167  0.9747
  137OSM   H15A14859   5.180   5.477   6.059 -0.2474  0.1445  0.3162
  137OSM   H15B14860   5.169   5.650   6.037 -0.9207 -0.2888 -2.6498
  137OSM   H15C14861   5.055   5.554   5.963  1.6411 -0.4297 -0.3884
  137OSM    C1414862   4.969   5.711   6.170  0.7274  0.4676 -0.4079
  137OSM   H14A14863   4.883   5.718   6.235  0.4881  0.8563 -0.7560
  137OSM   H14B14864   4.945   5.728   6.066 -1.9733  1.6695  0.3276
  137OSM   H14C14865   5.034   5.796   6.180 -0.6680  1.5970 -0.5426
  137OSM    C1314866   4.927   5.465   6.177 -0.4659  0.2212 -0.1206
  137OSM   H13A14867   4.978   5.370   6.184  1.1456  1.1045  0.7927
  137OSM   H13B14868   4.879   5.466   6.080  1.5285 -0.5200 -1.1686
  137OSM   H13C14869   4.857   5.483   6.257  0.6163  2.1464  0.4619
  137OSM    C1214870   5.101   5.550   6.302  0.1673  0.4268 -0.7599
  137OSM   H12A14871   5.120   5.445   6.320 -0.3286  0.4638  0.0007
  137OSM   H12B14872   5.030   5.565   6.382  0.2225  0.7620 -0.7725
  137OSM    C1114873   5.231   5.633   6.331  0.2235 -0.2679  0.2545
  137OSM   H11A14874   5.207   5.739   6.309 -1.3240 -1.0112 -1.8613
  137OSM   H11B14875   5.312   5.607   6.259 -0.2414  2.1821 -1.2680
  137OSM      P14876   5.180   5.617   6.584 -0.0508 -0.2312 -0.0886
  137OSM    O1314877   5.103   5.739   6.579  0.0554 -0.2200  0.8007
  137OSM    O1414878   5.105   5.490   6.590 -0.0905 -0.2612  0.1738
  137OSM    O1114879   5.278   5.634   6.706 -0.3010 -0.4567  0.1962
  137OSM    O1214880   5.273   5.614   6.462  0.5992  0.8370  0.3044
  137OSM    C1S14881   5.380   5.731   6.709  0.6259  0.6282  0.3477
  137OSM    H1S14882   5.371   5.808   6.629 -0.4337 -0.7479 -0.9220
  137OSM    H1T14883   5.482   5.686   6.714 -0.2577 -1.5917 -0.2545
  137OSM     NF14884   5.474   5.909   6.864 -0.4048 -0.0464 -0.2268
  137OSM    HNF14885   5.560   5.885   6.907 -0.7841  0.5102  0.8774
  137OSM    C2S14886   5.382   5.799   6.854 -1.1988 -0.0599 -0.1032
  137OSM    H2S14887   5.276   5.832   6.864 -0.3888  3.0630 -0.9381
  137OSM    C3S14888   5.424   5.698   6.969 -0.4495  0.2089  0.5949
  137OSM    H3S14889   5.530   5.676   6.947 -1.2106  0.0595 -4.0521
  137OSM     O314890   5.344   5.576   6.966  0.3914 -0.0594 -0.0279
  137OSM    HO314891   5.313   5.566   6.876 -1.3808 -0.4607  0.5791
  137OSM    C4S14892   5.407   5.746   7.106  0.3728  0.1213 -0.6762
  137OSM    H4S14893   5.308   5.758   7.151  1.0084 -1.6554  1.3369
  137OSM    C5S14894   5.515   5.779   7.189 -0.3627  0.1638  0.6304
  137OSM    H5S14895   5.620   5.780   7.155 -0.4089 -1.5143  0.3533
  137OSM    C6S14896   5.506   5.829   7.333  0.1793  0.3439 -0.2501
  137OSM    H6S14897   5.572   5.918   7.328  1.1920 -0.3949 -0.4927
  137OSM    H6T14898   5.545   5.755   7.407  0.7590  1.1717  0.2956
  137OSM    C7S14899   5.371   5.880   7.392 -0.1129 -0.1117  0.3252
  137OSM    H7S14900   5.316   5.786   7.417 -1.8136  0.6063 -0.5496
  137OSM    H7T14901   5.321   5.938   7.312  1.9435  2.2064  0.6168
  137OSM    C8S14902   5.402   5.971   7.518 -0.0208 -0.1019  0.1995
  137OSM    H8S14903   5.304   6.015   7.546  0.5117  1.0666  0.2580
  137OSM    H8T14904   5.481   6.044   7.491  0.0246 -0.0130  0.5616
  137OSM    C9S14905   5.443   5.888   7.637 -0.3411  0.4634 -0.5983
  137OSM    H9S14906   5.549   5.865   7.613 -0.1221 -1.3652  1.7063
  137OSM    H9T14907   5.394   5.789   7.646  1.0675 -0.0458  3.0179
  137OSM   C10S14908   5.450   5.963   7.764 -0.4916 -0.2594  0.5613
  137OSM   H10S14909   5.353   6.003   7.798 -0.3611  0.5550  0.0043
  137OSM   H10T14910   5.512   6.054   7.745 -0.2006 -0.0947  2.1273
  137OSM   C11S14911   5.524   5.867   7.862 -0.6928  0.4097  0.2637
  137OSM   H11S14912   5.614   5.830   7.808 -1.6665 -0.0091 -1.1365
  137OSM   H11T14913   5.458   5.781   7.888 -0.8742  1.1931  2.6725
  137OSM   C12S14914   5.571   5.927   7.994 -0.8312 -0.0263 -0.1786
  137OSM   H12S14915   5.491   5.990   8.039 -1.8805 -1.1731 -0.3763
  137OSM   H12T14916   5.645   6.007   7.975  0.4534 -1.0906  0.1783
  137OSM   C13S14917   5.633   5.817   8.080  0.2902  0.0688 -0.0169
  137OSM   H13S14918   5.702   5.752   8.023  1.2813  0.5964  0.5615
  137OSM   H13T14919   5.548   5.760   8.122 -0.2035  2.3034  2.3222
  137OSM   C14S14920   5.713   5.860   8.203  0.1744 -0.4490 -0.8896
  137OSM   H14S14921   5.632   5.897   8.270 -1.9960 -2.3872 -2.2579
  137OSM   H14T14922   5.776   5.948   8.177  0.4903  0.0153  1.3083
  137OSM   C15S14923   5.802   5.760   8.273  1.0029 -0.0553 -0.3536
  137OSM   H15S14924   5.861   5.704   8.198  0.5869  0.0083 -0.7284
  137OSM   H15T14925   5.745   5.672   8.309 -0.1421  0.5472 -0.6247
  137OSM   C16S14926   5.876   5.819   8.395  0.9088 -0.4876  0.6150
  137OSM   H16S14927   5.807   5.885   8.452 -0.2439 -0.2052 -1.0317
  137OSM   H16T14928   5.958   5.882   8.355  0.7675  0.1095  1.2391
  137OSM   C17S14929   5.947   5.704   8.475  0.5315 -0.3240  0.2310
  137OSM   H17S14930   5.871   5.637   8.519 -0.2836 -0.3468 -1.1424
  137OSM   H17T14931   6.002   5.759   8.554  0.8060  0.3049 -0.3836
  137OSM   C18S14932   6.035   5.609   8.398  0.8863 -0.3313  0.5652
  137OSM   H18S14933   5.986   5.534   8.332 -0.6859  0.0264  1.2766
  137OSM   H18T14934   6.095   5.552   8.471 -0.2006 -1.2682  0.7419
  137OSM   H18U14935   6.110   5.658   8.331 -0.3503 -1.1131 -1.4906
  137OSM    C1F14936   5.449   6.028   6.810 -0.4173  0.9221 -0.0178
  137OSM     OF14937   5.340   6.038   6.766  0.5939 -0.3067  0.5493
  137OSM    C2F14938   5.554   6.129   6.803 -0.3459 -0.3292 -0.0796
  137OSM    H2F14939   5.556   6.175   6.702 -2.4764 -0.2268 -0.1303
  137OSM    H2G14940   5.650   6.078   6.825  1.2842  3.2377  1.9634
  137OSM    C3F14941   5.535   6.240   6.906 -0.2032 -0.3073 -0.1573
  137OSM    H3F14942   5.433   6.280   6.889  0.2021  0.8294  0.0213
  137OSM    H3G14943   5.614   6.317   6.892 -1.1353  0.6655 -0.1486
  137OSM    C4F14944   5.529   6.204   7.058 -0.4193 -0.8163  0.1923
  137OSM    H4F14945   5.615   6.137   7.077 -0.5750 -0.4185  2.5818
  137OSM    H4G14946   5.435   6.145   7.069 -0.4217 -0.4421  2.5064
  137OSM    C5F14947   5.560   6.325   7.147 -0.2503  0.3502 -0.0887
  137OSM    H5F14948   5.473   6.394   7.154  1.8551  3.0593  1.9446
  137OSM    H5G14949   5.641   6.389   7.104 -0.0385  0.8219  0.9736
  137OSM    C6F14950   5.591   6.282   7.292 -0.4068 -0.3842 -0.6956
  137OSM    H6F14951   5.696   6.245   7.282  0.5833  1.9168  0.4377
  137OSM    H6G14952   5.513   6.212   7.328 -1.3178  1.3208  0.7676
  137OSM    C7F14953   5.598   6.406   7.384  0.2427  0.1295 -0.0003
  137OSM    H7F14954   5.511   6.470   7.358  1.3994  1.0740 -1.7370
  137OSM    H7G14955   5.674   6.485   7.364 -1.0767  1.1442 -1.2972
  137OSM    C8F14956   5.605   6.373   7.539 -0.0275  0.0572 -0.0614
  137OSM    H8F14957   5.679   6.295   7.567  0.3185  0.6013  0.5599
  137OSM    H8G14958   5.506   6.323   7.546  0.3694 -0.5763  1.4431
  137OSM    C9F14959   5.627   6.491   7.626 -0.1297  0.2214 -0.3992
  137OSM    H9F14960   5.699   6.566   7.589  0.8089  0.2039  1.3308
  137OSM   C10F14961   5.557   6.525   7.735 -0.0116  0.8457  0.5524
  137OSM   H10F14962   5.590   6.606   7.801  0.2236  0.4231  0.9664
  137OSM   C11F14963   5.435   6.440   7.774  0.6548  0.1610 -0.2316
  137OSM   H11F14964   5.386   6.396   7.684 -0.1041 -2.2705  1.2709
  137OSM   H11G14965   5.352   6.503   7.813 -0.5599 -1.6969  0.3460
  137OSM   C12F14966   5.474   6.329   7.877  0.9208  0.6998  0.1337
  137OSM   H12F14967   5.557   6.263   7.844 -0.0404  0.2764 -1.5728
  137OSM   H12G14968   5.382   6.268   7.886  0.8623  0.9042  0.9635
  137OSM   C13F14969   5.506   6.379   8.017 -0.5002  0.0331 -0.3307
  137OSM   H13F14970   5.462   6.480   8.025 -2.3652 -0.6598 -1.3032
  137OSM   H13G14971   5.616   6.376   8.032 -0.3738  2.4184 -0.4301
  137OSM   C14F14972   5.450   6.297   8.134 -0.5450  0.1819 -0.5969
  137OSM   H14F14973   5.467   6.189   8.112 -1.3252  0.2353 -1.5003
  137OSM   H14G14974   5.340   6.316   8.134 -0.6234 -0.1826  0.4504
  137OSM   C15F14975   5.520   6.325   8.271 -0.0667  0.0616  0.3418
  137OSM   H15F14976   5.452   6.279   8.347 -0.3742  1.0284  0.6695
  137OSM   H15G14977   5.527   6.433   8.296 -0.6191 -0.5338  3.6147
  137OSM   C16F14978   5.658   6.250   8.273  0.1345 -0.4214 -0.2846
  137OSM   H16F14979   5.725   6.288   8.193 -0.1147  0.0041 -0.2929
  137OSM   H16G14980   5.641   6.145   8.242 -0.0170 -0.2874 -0.6604
  137OSM   C17F14981   5.737   6.232   8.411  0.7865  0.7183  0.4246
  137OSM   H17F14982   5.756   6.335   8.448  2.1200 -0.1948  2.4848
  137OSM   H17G14983   5.843   6.216   8.381  0.2902  0.2040 -1.1657
  137OSM   C18F14984   5.674   6.150   8.524 -0.4534 -0.1668 -0.4426
  137OSM   H18F14985   5.574   6.192   8.545 -0.6306  0.0058 -1.5743
  137OSM   H18G14986   5.724   6.153   8.623 -2.7220  1.8782  0.7431
  137OSM   H18H14987   5.667   6.041   8.500  1.1435 -0.1630 -1.0800
  138OSM      N14988   6.724   1.225   5.937 -0.0194  0.0080 -0.5310
  138OSM    C1514989   6.723   1.287   5.806  0.6371 -0.4511 -0.4715
  138OSM   H15A14990   6.823   1.285   5.765  2.0254 -0.5874  2.6774
  138OSM   H15B14991   6.681   1.387   5.814  1.0101 -0.3717  0.6786
  138OSM   H15C14992   6.667   1.227   5.737  2.3363 -0.7272 -1.6680
  138OSM    C1414993   6.582   1.215   5.983 -0.0954  0.2226  0.6536
  138OSM   H14A14994   6.567   1.174   6.081  0.2780 -0.8760  0.2639
  138OSM   H14B14995   6.514   1.158   5.921 -2.7410  0.0790  3.4778
  138OSM   H14C14996   6.535   1.313   5.979 -0.5591  0.0049  0.6667
  138OSM    C1314997   6.772   1.078   5.927  0.0161  0.6835 -0.4828
  138OSM   H13A14998   6.734   1.025   5.842 -0.2536 -1.4296  0.8911
  138OSM   H13B14999   6.721   1.036   6.012 -2.3058 -0.0052 -2.1465
  138OSM   H13C15000   6.879   1.068   5.942  0.0191  3.0542  1.9874
  138OSM    C1215001   6.812   1.303   6.031 -0.4012  0.1118 -0.5639
  138OSM   H12A15002   6.765   1.401   6.036  0.5579  0.5226  1.8532
  138OSM   H12B15003   6.915   1.317   6.003 -0.4268 -1.5366 -1.6294
  138OSM    C1115004   6.819   1.251   6.179 -0.1721  0.5777 -0.5833
  138OSM   H11A15005   6.897   1.303   6.239 -0.3413  0.1279  0.0337
  138OSM   H11B15006   6.853   1.145   6.177 -2.7790 -0.3224 -1.1361
  138OSM      P15007   6.640   1.410   6.292  0.0561  0.0946  0.3330
  138OSM    O1315008   6.680   1.440   6.434  0.3815 -0.7429  0.3071
  138OSM    O1415009   6.684   1.509   6.191  0.7901 -0.6360  0.6161
  138OSM    O1115010   6.479   1.398   6.286 -0.4652  0.2638 -0.0418
  138OSM    O1215011   6.688   1.262   6.239 -0.0267  0.3219  0.0181
  138OSM    C1S15012   6.419   1.286   6.355 -0.0062  0.3147 -0.4229
  138OSM    H1S15013   6.482   1.195   6.348 -0.8923 -0.3041 -0.4644
  138OSM    H1T15014   6.324   1.258   6.305 -0.9034  4.0239 -1.0689
  138OSM     NF15015   6.285   1.225   6.560 -0.0150 -0.7114 -0.3661
  138OSM    HNF15016   6.194   1.243   6.524  0.4496  0.5698 -0.9737
  138OSM    C2S15017   6.383   1.323   6.502  0.2586  0.3020 -0.2878
  138OSM    H2S15018   6.476   1.321   6.563  0.6626  1.6318 -0.8286
  138OSM    C3S15019   6.336   1.472   6.516  0.3853 -0.1020  1.0154
  138OSM    H3S15020   6.246   1.489   6.455  0.7127 -1.5721  0.0753
  138OSM     O315021   6.418   1.574   6.461  0.2424  0.0787 -0.5357
  138OSM    HO315022   6.492   1.530   6.417 -0.8707  0.2795 -2.7741
  138OSM    C4S15023   6.323   1.501   6.666  0.2200 -0.4568  0.6202
  138OSM    H4S15024   6.417   1.506   6.722  0.1228  2.1622  0.6805
  138OSM    C5S15025   6.207   1.517   6.735 -0.1362 -0.6409  0.0857
  138OSM    H5S15026   6.111   1.513   6.682  1.3646 -0.8832 -2.8493
  138OSM    C6S15027   6.206   1.551   6.883  0.3922 -0.4394 -0.3514
  138OSM    H6S15028   6.175   1.458   6.936  0.1122 -0.3992 -0.4442
  138OSM    H6T15029   6.119   1.618   6.902  1.6883  1.3798 -0.6607
  138OSM    C7S15030   6.327   1.618   6.948 -0.4199 -0.0216 -0.8899
  138OSM    H7S15031   6.346   1.712   6.892 -0.3683 -0.5655 -1.8084
  138OSM    H7T15032   6.423   1.563   6.940 -0.3942 -0.1116 -0.0778
  138OSM    C8S15033   6.305   1.668   7.087  0.4006  0.2586 -0.0928
  138OSM    H8S15034   6.217   1.735   7.095  0.5000  0.3222  0.5057
  138OSM    H8T15035   6.393   1.729   7.116 -0.1384  1.5811 -1.1189
  138OSM    C9S15036   6.289   1.551   7.192 -0.4077  0.2706  0.4169
  138OSM    H9S15037   6.381   1.489   7.193 -1.7048 -1.8990 -1.4082
  138OSM    H9T15038   6.211   1.478   7.160  0.2746 -0.5772  0.6357
  138OSM   C10S15039   6.261   1.607   7.334  0.5478 -0.0163  0.0490
  138OSM   H10S15040   6.162   1.658   7.326 -0.0221 -1.1705 -0.4304
  138OSM   H10T15041   6.338   1.685   7.353  2.0966 -1.3507 -0.4985
  138OSM   C11S15042   6.279   1.509   7.453 -0.3542  0.0183  0.5002
  138OSM   H11S15043   6.374   1.452   7.448 -0.3302 -0.0030  1.0628
  138OSM   H11T15044   6.198   1.433   7.456 -0.7755  0.4607  0.4775
  138OSM   C12S15045   6.283   1.582   7.587  0.3783  0.1344 -0.2293
  138OSM   H12S15046   6.180   1.618   7.605 -0.2100 -1.4781 -0.2454
  138OSM   H12T15047   6.353   1.669   7.593  0.4320  0.1955 -1.5119
  138OSM   C13S15048   6.320   1.482   7.696  0.3326 -0.5071  0.2504
  138OSM   H13S15049   6.431   1.472   7.701  0.7723  2.2158 -1.6944
  138OSM   H13T15050   6.275   1.383   7.676 -0.8763  0.3366 -1.5054
  138OSM   C14S15051   6.267   1.524   7.834 -0.2160 -0.6487 -0.4887
  138OSM   H14S15052   6.157   1.537   7.837 -0.1514 -0.2270  1.2536
  138OSM   H14T15053   6.309   1.622   7.864  1.9964 -0.5818 -3.3461
  138OSM   C15S15054   6.317   1.417   7.942 -0.0621  0.0831  0.4026
  138OSM   H15S15055   6.422   1.387   7.923 -0.4797 -0.7248 -0.8010
  138OSM   H15T15056   6.254   1.331   7.912 -1.2564  0.5781  1.4126
  138OSM   C16S15057   6.299   1.470   8.080  0.0604  0.5099 -1.0201
  138OSM   H16S15058   6.192   1.475   8.109  0.2801 -2.1653  0.5314
  138OSM   H16T15059   6.344   1.571   8.094 -0.9728  1.0038 -1.1799
  138OSM   C17S15060   6.364   1.382   8.181 -0.5434 -0.3263 -0.1972
  138OSM   H17S15061   6.474   1.402   8.182 -0.8477  1.5755  1.4665
  138OSM   H17T15062   6.347   1.276   8.153 -1.4852 -0.4441  0.7669
  138OSM   C18S15063   6.312   1.405   8.328 -0.4509 -0.4676  0.1830
  138OSM   H18S15064   6.210   1.365   8.345 -1.6715  2.4727  0.5215
  138OSM   H18T15065   6.319   1.512   8.357 -1.3722 -0.1706 -0.6287
  138OSM   H18U15066   6.376   1.346   8.396  0.3278 -0.8626 -0.8730
  138OSM    C1F15067   6.333   1.106   6.593  0.5572  0.5102 -0.5946
  138OSM     OF15068   6.454   1.088   6.601 -0.8244 -1.0268  0.3895
  138OSM    C2F15069   6.235   0.996   6.605  0.2662  0.5811 -0.1321
  138OSM    H2F15070   6.273   0.907   6.551 -1.0449  0.5327 -1.0112
  138OSM    H2G15071   6.139   1.021   6.555 -0.4719  0.8777  1.3786
  138OSM    C3F15072   6.187   0.968   6.751  0.2776 -0.0701  0.0252
  138OSM    H3F15073   6.118   1.048   6.786 -0.2217  0.9669 -2.9798
  138OSM    H3G15074   6.272   0.969   6.822  0.5430 -0.1213 -0.2875
  138OSM    C4F15075   6.128   0.828   6.761  0.3019  0.0983  0.5124
  138OSM    H4F15076   6.161   0.773   6.671 -1.2739 -0.7640  0.4378
  138OSM    H4G15077   6.018   0.827   6.748  0.4553 -1.3753 -0.9637
  138OSM    C5F15078   6.170   0.740   6.880  0.0505  0.0388 -0.2715
  138OSM    H5F15079   6.281   0.735   6.882  0.1679  1.2222  3.1646
  138OSM    H5G15080   6.128   0.638   6.866  2.3992 -0.9199 -0.8209
  138OSM    C6F15081   6.134   0.788   7.016 -1.0902 -0.3029  0.0093
  138OSM    H6F15082   6.025   0.804   7.032 -1.1832  0.8158 -1.5245
  138OSM    H6G15083   6.183   0.886   7.035 -1.6800  0.3095 -1.4989
  138OSM    C7F15084   6.195   0.695   7.128  0.1288 -0.0486 -0.8976
  138OSM    H7F15085   6.306   0.702   7.117  0.2927 -0.0503  0.5132
  138OSM    H7G15086   6.162   0.595   7.095  0.7871 -0.4748 -0.2990
  138OSM    C8F15087   6.146   0.736   7.267  0.0465  0.1382  0.1628
  138OSM    H8F15088   6.037   0.724   7.282 -0.1431  2.0773  0.6377
  138OSM    H8G15089   6.149   0.846   7.283  1.0510  0.0373  0.7963
  138OSM    C9F15090   6.216   0.662   7.376 -0.2168  0.6991 -0.0075
  138OSM    H9F15091   6.324   0.673   7.366  0.2665 -2.4372  0.5193
  138OSM   C10F15092   6.175   0.582   7.473 -0.8189  0.4430 -0.0935
  138OSM   H10F15093   6.249   0.535   7.540  0.7084  2.2276 -0.4448
  138OSM   C11F15094   6.036   0.541   7.500  0.1034  0.0605 -0.7223
  138OSM   H11F15095   6.004   0.435   7.487 -0.5005  0.2243 -0.5965
  138OSM   H11G15096   5.969   0.591   7.426  0.3294  1.9113  0.2641
  138OSM   C12F15097   5.997   0.570   7.652  0.4225  0.4225  0.7680
  138OSM   H12F15098   5.891   0.548   7.673  0.5465 -0.2642  0.6932
  138OSM   H12G15099   6.016   0.679   7.666  0.5480  0.8361 -2.0995
  138OSM   C13F15100   6.079   0.487   7.743  0.1959 -0.4922 -0.1424
  138OSM   H13F15101   6.188   0.501   7.731  0.3211 -0.7216  0.6829
  138OSM   H13G15102   6.052   0.383   7.713 -0.1256  0.4111 -3.4135
  138OSM   C14F15103   6.040   0.524   7.888  0.6133  0.2065 -0.3822
  138OSM   H14F15104   5.932   0.547   7.895  1.0109  1.9210  0.6792
  138OSM   H14G15105   6.095   0.619   7.906 -0.4453  1.0540 -1.5392
  138OSM   C15F15106   6.102   0.421   7.983 -0.3219 -1.0436  0.1909
  138OSM   H15F15107   6.212   0.422   7.971  0.0033  1.5762  2.4247
  138OSM   H15G15108   6.055   0.321   7.966  0.6550 -1.4442 -0.1923
  138OSM   C16F15109   6.062   0.455   8.125 -0.3472  0.3062 -0.1113
  138OSM   H16F15110   5.953   0.435   8.128 -0.5414  0.9729 -1.7788
  138OSM   H16G15111   6.074   0.564   8.140 -0.6119  0.6237 -1.9996
  138OSM   C17F15112   6.133   0.378   8.238  0.1083 -0.3912 -0.4440
  138OSM   H17F15113   6.242   0.377   8.215  0.6918  0.8121  2.0125
  138OSM   H17G15114   6.092   0.274   8.235 -0.2347 -0.2554 -0.4617
  138OSM   C18F15115   6.102   0.433   8.377 -0.5858  0.3454  0.0656
  138OSM   H18F15116   6.174   0.415   8.459  1.8736  2.5292 -1.4868
  138OSM   H18G15117   6.004   0.399   8.419 -1.0601 -0.6482 -1.7416
  138OSM   H18H15118   6.108   0.543   8.365 -3.3814  0.6549  0.7104
  139OSM      N15119   5.087   1.834   6.076 -1.1637 -0.2842  0.3054
  139OSM    C1515120   5.217   1.835   5.992 -0.4078  0.2058  0.1259
  139OSM   H15A15121   5.250   1.934   5.965 -0.4237 -0.5394 -2.9331
  139OSM   H15B15122   5.210   1.768   5.908  2.2648 -3.2661  2.3921
  139OSM   H15C15123   5.292   1.785   6.051  2.1236  2.5401 -0.9033
  139OSM    C1415124   4.981   1.903   5.996 -0.7736 -0.2796 -0.4793
  139OSM   H14A15125   4.886   1.880   6.043 -0.8223  0.8424 -0.0138
  139OSM   H14B15126   4.983   1.861   5.896 -1.1799  1.8027 -1.4246
  139OSM   H14C15127   4.988   2.010   5.987 -1.5744 -0.2148 -0.3835
  139OSM    C1315128   5.042   1.696   6.089 -0.1655 -0.0922 -0.2812
  139OSM   H13A15129   4.973   1.670   6.010 -1.1148 -0.7638  0.7340
  139OSM   H13B15130   4.981   1.687   6.177  0.0782 -1.4861 -0.2249
  139OSM   H13C15131   5.116   1.617   6.086  0.0729 -0.0036  1.7383
  139OSM    C1215132   5.105   1.906   6.213  0.6700 -0.1246 -0.2597
  139OSM   H12A15133   5.152   2.001   6.190 -0.1152 -0.1665 -2.2077
  139OSM   H12B15134   5.172   1.850   6.277  1.8512  0.3108 -1.0873
  139OSM    C1115135   4.973   1.934   6.292 -0.4348  0.2219 -0.1333
  139OSM   H11A15136   4.900   2.003   6.245  0.1007  0.9318  0.0702
  139OSM   H11B15137   4.995   1.999   6.379  0.6440  1.7090 -1.4589
  139OSM      P15138   4.955   1.743   6.471 -0.0909  0.1977  0.8583
  139OSM    O1315139   4.868   1.625   6.500  0.5962 -0.0699 -0.2141
  139OSM    O1415140   5.099   1.718   6.454  0.3405  0.5885 -0.4624
  139OSM    O1115141   4.940   1.861   6.567 -0.1056 -0.1163 -0.5939
  139OSM    O1215142   4.910   1.817   6.331 -0.0143 -0.2158 -0.2452
  139OSM    C1S15143   4.863   1.863   6.691 -0.2242  0.2826  0.1859
  139OSM    H1S15144   4.785   1.785   6.684  1.9299 -2.2392  2.1804
  139OSM    H1T15145   4.820   1.964   6.702  2.3807  1.5406 -0.3230
  139OSM     NF15146   4.877   1.842   6.948 -0.3356  0.1826  0.1806
  139OSM    HNF15147   4.891   1.916   7.012  0.4156 -1.1180  1.5773
  139OSM    C2S15148   4.956   1.852   6.820 -0.9801  0.1871  0.4920
  139OSM    H2S15149   5.020   1.765   6.795 -0.7588  1.2761 -3.4466
  139OSM    C3S15150   5.056   1.971   6.815  0.1651 -0.2000  0.5922
  139OSM    H3S15151   5.001   2.067   6.822 -2.8476 -1.6296 -1.2485
  139OSM     O315152   5.128   1.989   6.694  0.4016 -0.0351 -0.0125
  139OSM    HO315153   5.075   1.944   6.628 -0.2805 -0.6841  0.9466
  139OSM    C4S15154   5.156   1.954   6.934  0.0024  0.0090  0.2113
  139OSM    H4S15155   5.108   1.955   7.032  0.8993  0.6669  0.6654
  139OSM    C5S15156   5.293   1.940   6.931  0.0067 -0.0020 -0.1958
  139OSM    H5S15157   5.347   1.952   6.836  0.4939 -0.0204  0.0735
  139OSM    C6S15158   5.380   1.907   7.054  0.0504 -1.0308 -0.5244
  139OSM    H6S15159   5.450   1.991   7.068 -0.0435 -0.6638 -2.0730
  139OSM    H6T15160   5.438   1.818   7.020  0.5241 -1.1632  0.5765
  139OSM    C7S15161   5.318   1.859   7.188  0.3282  0.0881  0.2814
  139OSM    H7S15162   5.256   1.772   7.158  1.2081  0.0380 -1.5175
  139OSM    H7T15163   5.257   1.943   7.227  1.4352  1.0122  0.0761
  139OSM    C8S15164   5.412   1.816   7.298  0.4028 -0.5275  0.2527
  139OSM    H8S15165   5.492   1.892   7.314  1.0234 -0.6989 -1.7759
  139OSM    H8T15166   5.480   1.732   7.271 -1.0388 -1.2369 -1.3454
  139OSM    C9S15167   5.347   1.778   7.429  0.0186  0.6173  0.4712
  139OSM    H9S15168   5.345   1.667   7.439 -1.6201  0.4304 -1.3128
  139OSM    H9T15169   5.248   1.828   7.426  0.5575  1.6438 -1.9185
  139OSM   C10S15170   5.415   1.832   7.550 -0.4282  0.3358  0.4768
  139OSM   H10S15171   5.365   1.929   7.572 -2.6210 -0.3488 -1.1391
  139OSM   H10T15172   5.523   1.854   7.539 -0.2333 -0.6979  0.2110
  139OSM   C11S15173   5.415   1.727   7.666  0.1048  0.3645 -0.0532
  139OSM   H11S15174   5.467   1.634   7.636  1.4296  0.9370  0.3977
  139OSM   H11T15175   5.309   1.696   7.683  0.8431 -3.0237 -1.0170
  139OSM   C12S15176   5.472   1.777   7.798 -0.2941 -0.5982 -0.3397
  139OSM   H12S15177   5.432   1.880   7.812 -0.9204 -1.1467  2.4383
  139OSM   H12T15178   5.583   1.772   7.794 -0.2430 -1.1439  1.3454
  139OSM   C13S15179   5.450   1.670   7.914  0.0449 -0.2737  0.0875
  139OSM   H13S15180   5.545   1.614   7.915  1.5316  2.0684 -0.7593
  139OSM   H13T15181   5.373   1.594   7.887 -0.1930 -0.3035  0.8072
  139OSM   C14S15182   5.410   1.736   8.044  0.5214  0.5527 -0.0680
  139OSM   H14S15183   5.316   1.795   8.034 -0.1394 -0.3947  0.2980
  139OSM   H14T15184   5.493   1.804   8.073  1.8797 -0.4345 -1.4508
  139OSM   C15S15185   5.368   1.626   8.149 -0.1542  0.1486 -0.4972
  139OSM   H15S15186   5.430   1.534   8.140 -3.1267 -2.1192  0.7370
  139OSM   H15T15187   5.266   1.588   8.129 -0.5686  0.6303  0.6113
  139OSM   C16S15188   5.373   1.674   8.295  0.6707 -0.1953  0.1241
  139OSM   H16S15189   5.286   1.741   8.313  1.2970  0.2994  1.4719
  139OSM   H16T15190   5.461   1.738   8.320  1.5634 -1.1098 -0.6280
  139OSM   C17S15191   5.360   1.566   8.399 -0.0372  0.7431 -0.1109
  139OSM   H17S15192   5.460   1.520   8.416  0.7050  1.8336 -1.3266
  139OSM   H17T15193   5.285   1.498   8.353  0.1951  0.3120  0.1377
  139OSM   C18S15194   5.301   1.616   8.525 -0.3743 -0.2768  0.0531
  139OSM   H18S15195   5.201   1.658   8.503 -1.0203 -2.4001 -1.3361
  139OSM   H18T15196   5.376   1.682   8.575  0.9961 -1.5250 -0.2989
  139OSM   H18U15197   5.284   1.538   8.602 -2.2318  1.1585  1.1771
  139OSM    C1F15198   4.808   1.728   6.962  0.8289  0.1401  0.0567
  139OSM     OF15199   4.830   1.634   6.886  0.5543 -0.0929 -0.0737
  139OSM    C2F15200   4.708   1.711   7.070  0.3725 -0.2196 -0.0382
  139OSM    H2F15201   4.642   1.801   7.067  1.4361  0.6357  0.9683
  139OSM    H2G15202   4.767   1.711   7.165 -0.8902  1.1985  0.7934
  139OSM    C3F15203   4.620   1.581   7.055 -0.3447  0.0688 -0.0707
  139OSM    H3F15204   4.691   1.495   7.055 -1.5676 -0.9806 -1.0416
  139OSM    H3G15205   4.558   1.586   6.963 -2.6355  1.6759  1.4636
  139OSM    C4F15206   4.517   1.576   7.168 -0.6175 -0.0109  0.5378
  139OSM    H4F15207   4.475   1.476   7.192 -0.9809  0.5583  2.4931
  139OSM    H4G15208   4.425   1.629   7.137 -1.0629 -0.6020  0.8292
  139OSM    C5F15209   4.557   1.652   7.296  0.9347 -0.1902 -0.1971
  139OSM    H5F15210   4.538   1.761   7.290 -0.2333 -0.2842  1.1688
  139OSM    H5G15211   4.661   1.628   7.326 -0.2127 -2.1055  2.7325
  139OSM    C6F15212   4.479   1.615   7.426  0.5345  0.3146  0.4350
  139OSM    H6F15213   4.465   1.506   7.439 -0.5820  0.2888 -0.7087
  139OSM    H6G15214   4.378   1.659   7.409 -0.0221 -0.8045  0.7876
  139OSM    C7F15215   4.549   1.668   7.553  0.0819  0.1844 -0.0944
  139OSM    H7F15216   4.585   1.771   7.531 -1.5131  2.0278  4.5994
  139OSM    H7G15217   4.636   1.602   7.574 -1.7538 -1.8902  1.4427
  139OSM    C8F15218   4.463   1.684   7.680  0.5187 -0.5400  0.5236
  139OSM    H8F15219   4.357   1.703   7.653  0.5482 -1.7576 -0.5794
  139OSM    H8G15220   4.504   1.753   7.756  0.0924 -0.8455  1.0351
  139OSM    C9F15221   4.445   1.548   7.750  0.0681 -0.2196  0.0514
  139OSM    H9F15222   4.416   1.467   7.682  1.0389 -0.2183 -0.3868
  139OSM   C10F15223   4.466   1.516   7.877 -0.7187  0.3104  0.1335
  139OSM   H10F15224   4.444   1.412   7.906  0.3205 -0.0234 -0.2300
  139OSM   C11F15225   4.486   1.612   7.987 -0.3069 -0.3516  0.0220
  139OSM   H11F15226   4.570   1.682   7.966 -0.8117  1.3611  3.0730
  139OSM   H11G15227   4.533   1.550   8.066 -0.3073 -2.5291 -1.5909
  139OSM   C12F15228   4.367   1.696   8.038  0.4395  0.8213 -0.1591
  139OSM   H12F15229   4.313   1.751   7.958  0.3187  0.8907 -0.0291
  139OSM   H12G15230   4.404   1.783   8.096  1.4832  1.7679 -2.1450
  139OSM   C13F15231   4.270   1.615   8.122 -0.3722  0.4175  0.3735
  139OSM   H13F15232   4.317   1.535   8.183  1.1438  0.1634 -1.0689
  139OSM   H13G15233   4.200   1.566   8.050  2.0329  3.3085 -4.4644
  139OSM   C14F15234   4.201   1.707   8.226  0.3215 -0.5449  0.1368
  139OSM   H14F15235   4.133   1.781   8.178  1.0144 -0.4196 -0.6614
  139OSM   H14G15236   4.285   1.752   8.284  0.6264 -1.1615  0.1743
  139OSM   C15F15237   4.106   1.623   8.308 -0.6070  0.1124  0.4800
  139OSM   H15F15238   4.159   1.553   8.376 -0.4320  0.0981  0.3277
  139OSM   H15G15239   4.063   1.562   8.226  1.6669 -0.5956 -0.2622
  139OSM   C16F15240   3.991   1.699   8.383 -0.2113  0.0895  0.7369
  139OSM   H16F15241   3.928   1.751   8.308 -0.7980 -3.1014 -1.1693
  139OSM   H16G15242   4.034   1.785   8.437 -1.6230  1.8275 -0.7655
  139OSM   C17F15243   3.902   1.595   8.456 -0.0683 -0.1192 -0.0515
  139OSM   H17F15244   3.968   1.545   8.531  1.1560  2.7896  0.9258
  139OSM   H17G15245   3.865   1.524   8.379  1.9065 -0.0132 -1.1872
  139OSM   C18F15246   3.797   1.662   8.534 -0.0371 -0.2484 -0.6396
  139OSM   H18F15247   3.759   1.592   8.611 -0.2864  1.6605  1.0577
  139OSM   H18G15248   3.725   1.718   8.470  2.3333  0.5049 -2.8306
  139OSM   H18H15249   3.843   1.733   8.605 -0.2986 -1.2750  0.5905
  140OSM      N15250   4.858   4.560   6.587 -0.0832  0.2056  0.0406
  140OSM    C1515251   4.754   4.456   6.559 -0.4005 -0.3746 -0.0735
  140OSM   H15A15252   4.753   4.384   6.640 -1.3370 -1.3094 -0.8950
  140OSM   H15B15253   4.771   4.385   6.480  1.2767 -0.5369  0.3899
  140OSM   H15C15254   4.657   4.503   6.557 -0.5363 -0.4941  1.7936
  140OSM    C1415255   4.824   4.617   6.723  0.8718 -0.3024 -0.5402
  140OSM   H14A15256   4.900   4.680   6.766  0.7567  0.9408 -2.0786
  140OSM   H14B15257   4.797   4.537   6.791  0.4262  0.5935  0.3639
  140OSM   H14C15258   4.727   4.666   6.715 -0.1857 -2.2699 -0.4311
  140OSM    C1315259   4.991   4.484   6.591  0.3404  0.3327  0.4649
  140OSM   H13A15260   5.013   4.457   6.693 -2.0206  0.2215  0.9919
  140OSM   H13B15261   5.064   4.560   6.565  0.2224  1.2120  2.5118
  140OSM   H13C15262   4.992   4.400   6.524  0.0683  0.9629 -0.3557
  140OSM    C1215263   4.864   4.665   6.482  0.8110  0.1975 -0.2700
  140OSM   H12A15264   4.764   4.697   6.460  0.1999 -2.0341 -1.0000
  140OSM   H12B15265   4.891   4.620   6.387 -1.0057  2.3664 -1.9054
  140OSM    C1115266   4.959   4.791   6.496  0.2481 -0.1669  0.1275
  140OSM   H11A15267   4.918   4.845   6.584 -2.7439 -0.4094 -1.0110
  140OSM   H11B15268   4.943   4.851   6.403  1.6515 -0.5796 -0.4055
  140OSM      P15269   5.203   4.856   6.482  0.2323 -0.0611 -0.0809
  140OSM    O1315270   5.308   4.794   6.396 -0.3309  0.1872 -0.0837
  140OSM    O1415271   5.154   4.990   6.436 -0.0952 -0.2591 -0.1736
  140OSM    O1115272   5.260   4.866   6.634 -0.6050  0.7892  0.7718
  140OSM    O1215273   5.090   4.749   6.503  0.0280 -0.1455  0.0967
  140OSM    C1S15274   5.355   4.767   6.673 -0.7196 -0.4069 -1.4538
  140OSM    H1S15275   5.458   4.803   6.651  0.0072 -0.2910  1.7442
  140OSM    H1T15276   5.337   4.661   6.643 -0.1479 -1.1797  0.7461
  140OSM     NF15277   5.469   4.685   6.882 -0.7733 -0.5318  0.2201
  140OSM    HNF15278   5.457   4.588   6.904  1.2022 -0.9512 -0.2692
  140OSM    C2S15279   5.357   4.763   6.831 -0.1714  0.1134 -0.5521
  140OSM    H2S15280   5.372   4.869   6.858 -0.5705  0.4116 -1.4794
  140OSM    C3S15281   5.222   4.707   6.896  0.1951  0.1424 -0.3395
  140OSM    H3S15282   5.217   4.596   6.889 -0.3053  0.1281  0.2447
  140OSM     O315283   5.102   4.758   6.836 -0.4744 -0.7894 -0.4373
  140OSM    HO315284   5.144   4.797   6.759  0.0061 -0.4761 -0.0269
  140OSM    C4S15285   5.223   4.741   7.038  0.1661  0.0637  0.3331
  140OSM    H4S15286   5.218   4.849   7.054 -2.0811  0.8620 -4.1287
  140OSM    C5S15287   5.233   4.661   7.144 -0.3004  0.2952 -0.5162
  140OSM    H5S15288   5.245   4.552   7.130 -0.9820  0.1544 -0.0567
  140OSM    C6S15289   5.235   4.692   7.293  0.3947 -0.9132  0.1546
  140OSM    H6S15290   5.223   4.800   7.319  0.3256 -1.1930  1.3293
  140OSM    H6T15291   5.333   4.665   7.335  0.0623 -0.7215  1.0778
  140OSM    C7S15292   5.109   4.626   7.353  0.0116  0.0361  0.0540
  140OSM    H7S15293   5.112   4.516   7.340 -0.3255  0.0549 -0.1794
  140OSM    H7T15294   5.014   4.664   7.309  0.1843  1.0105  0.4747
  140OSM    C8S15295   5.103   4.660   7.508  0.4564  1.1710  0.3168
  140OSM    H8S15296   5.097   4.771   7.520 -0.5508  1.1162  0.3739
  140OSM    H8T15297   5.192   4.613   7.554 -0.8948 -1.6525  0.2457
  140OSM    C9S15298   4.982   4.598   7.579  0.1055 -0.0467 -0.7181
  140OSM    H9S15299   4.987   4.488   7.564 -1.2308 -0.7372  2.9419
  140OSM    H9T15300   4.895   4.639   7.522 -1.4160 -1.4677  0.4880
  140OSM   C10S15301   4.982   4.631   7.727  0.0537  0.5361  0.1449
  140OSM   H10S15302   4.985   4.742   7.729  0.7886  0.6595 -2.9384
  140OSM   H10T15303   5.069   4.586   7.778  1.2109  1.2316 -1.1567
  140OSM   C11S15304   4.862   4.572   7.802  0.0176  0.1418  1.0659
  140OSM   H11S15305   4.873   4.464   7.783 -0.8960  0.3210 -0.7024
  140OSM   H11T15306   4.767   4.605   7.754  0.5127  2.1330  1.3656
  140OSM   C12S15307   4.864   4.582   7.954 -0.3393  0.2175 -0.4057
  140OSM   H12S15308   4.858   4.684   7.997 -1.4522  0.4250 -0.9982
  140OSM   H12T15309   4.964   4.552   7.991 -0.2069  0.7888 -0.2806
  140OSM   C13S15310   4.771   4.478   8.010  0.2928  0.6465  0.3284
  140OSM   H13S15311   4.818   4.377   8.005 -2.0278 -0.4967 -0.3249
  140OSM   H13T15312   4.670   4.473   7.963 -0.6670  0.0480  2.3123
  140OSM   C14S15313   4.742   4.503   8.160  0.7377 -0.4572  0.2137
  140OSM   H14S15314   4.662   4.580   8.161  1.4729  0.3314 -0.3138
  140OSM   H14T15315   4.833   4.539   8.211 -0.4885  0.7607  1.6306
  140OSM   C15S15316   4.684   4.380   8.226  0.1310 -0.3422 -0.0221
  140OSM   H15S15317   4.743   4.287   8.210  1.0870  0.4560 -1.2743
  140OSM   H15T15318   4.576   4.367   8.202  0.2827 -1.9688  0.0207
  140OSM   C16S15319   4.673   4.400   8.380  0.0590 -0.0299 -0.2456
  140OSM   H16S15320   4.609   4.487   8.405  0.3398 -0.5482  2.7150
  140OSM   H16T15321   4.770   4.421   8.430 -0.0806 -0.9791  0.4540
  140OSM   C17S15322   4.610   4.287   8.456 -0.4219  0.1596  0.5485
  140OSM   H17S15323   4.679   4.200   8.454 -0.2820  0.0242  4.3093
  140OSM   H17T15324   4.520   4.262   8.396 -1.0192 -0.1879  1.5637
  140OSM   C18S15325   4.570   4.313   8.599  0.2720  0.8370  0.2756
  140OSM   H18S15326   4.666   4.318   8.656  0.4588 -1.1708  0.2122
  140OSM   H18T15327   4.526   4.218   8.637  2.3554  0.5373  2.1720
  140OSM   H18U15328   4.505   4.401   8.614 -0.4898  1.0079 -3.2294
  140OSM    C1F15329   5.599   4.721   6.861 -0.2473 -0.0874  0.4606
  140OSM     OF15330   5.627   4.841   6.854  0.0577  0.6182 -0.1118
  140OSM    C2F15331   5.706   4.609   6.864  0.8473 -0.0344  0.0300
  140OSM    H2F15332   5.788   4.649   6.800  1.7850 -1.3931  0.3297
  140OSM    H2G15333   5.684   4.515   6.810 -0.2066 -0.8447  1.7737
  140OSM    C3F15334   5.760   4.597   7.008 -0.8902  0.6632  0.2713
  140OSM    H3F15335   5.803   4.697   7.031 -1.5802  1.5840 -2.1447
  140OSM    H3G15336   5.843   4.523   7.006 -0.2534  1.3747 -0.7943
  140OSM    C4F15337   5.647   4.559   7.116  0.8104 -0.7718 -0.3987
  140OSM    H4F15338   5.597   4.466   7.081  0.6302 -0.1497 -1.9075
  140OSM    H4G15339   5.571   4.640   7.120 -0.3630 -1.8586 -0.3051
  140OSM    C5F15340   5.700   4.541   7.264  0.2953 -0.5487  0.4606
  140OSM    H5F15341   5.745   4.439   7.263 -0.7398 -1.0417 -1.6491
  140OSM    H5G15342   5.607   4.547   7.325 -1.1127 -1.7367 -1.4368
  140OSM    C6F15343   5.804   4.651   7.300 -0.1435  0.3577 -0.0495
  140OSM    H6F15344   5.792   4.757   7.270 -0.5745  0.5495  0.7870
  140OSM    H6G15345   5.892   4.616   7.242  0.3170  2.4296 -0.6847
  140OSM    C7F15346   5.821   4.651   7.453 -1.4092  0.7242 -1.0710
  140OSM    H7F15347   5.861   4.550   7.478 -1.4063  1.3801  1.8993
  140OSM    H7G15348   5.725   4.647   7.508  0.3191 -0.5289  2.0869
  140OSM    C8F15349   5.898   4.765   7.508 -0.9802 -0.2801 -0.6864
  140OSM    H8F15350   5.856   4.768   7.611  2.0661 -4.9201  1.0252
  140OSM    H8G15351   5.880   4.852   7.442 -3.4941 -0.9782 -1.0400
  140OSM    C9F15352   6.047   4.744   7.529  0.3746 -0.7779  0.5510
  140OSM    H9F15353   6.109   4.788   7.449 -0.4562  2.3117  1.4643
  140OSM   C10F15354   6.108   4.698   7.641  0.7945 -0.1696  0.4780
  140OSM   H10F15355   6.217   4.685   7.636  0.7790 -0.2473  0.3518
  140OSM   C11F15356   6.029   4.644   7.759 -0.2953  0.1162 -0.1151
  140OSM   H11F15357   5.978   4.549   7.732 -0.6821  0.5191 -0.8442
  140OSM   H11G15358   5.950   4.719   7.782  0.2260  0.1693  1.6260
  140OSM   C12F15359   6.108   4.628   7.888  0.4269  0.2328  0.0909
  140OSM   H12F15360   6.192   4.556   7.875 -0.3181 -1.0031  1.7502
  140OSM   H12G15361   6.045   4.585   7.968  2.1506  1.8872  2.4625
  140OSM   C13F15362   6.163   4.760   7.942  0.5162  0.1146 -0.2668
  140OSM   H13F15363   6.083   4.835   7.926  0.9323  0.6540  0.1621
  140OSM   H13G15364   6.246   4.791   7.875 -0.6741  1.0932 -1.3376
  140OSM   C14F15365   6.219   4.755   8.085  0.3923  0.0625 -0.2314
  140OSM   H14F15366   6.281   4.843   8.109  0.6301  0.2263 -1.3753
  140OSM   H14G15367   6.290   4.671   8.102  1.2576  0.3726 -2.1243
  140OSM   C15F15368   6.106   4.746   8.190 -0.4319 -0.0399 -0.7487
  140OSM   H15F15369   6.033   4.665   8.170 -0.8297  0.6203 -2.0927
  140OSM   H15G15370   6.054   4.842   8.172 -0.9714 -0.3673 -0.9720
  140OSM   C16F15371   6.150   4.740   8.338 -0.1039  0.2478  0.1641
  140OSM   H16F15372   6.243   4.681   8.329  0.2376  0.9291 -0.9303
  140OSM   H16G15373   6.085   4.678   8.404 -0.7482  0.2193 -0.4824
  140OSM   C17F15374   6.181   4.871   8.404 -0.6266  0.0369  0.1069
  140OSM   H17F15375   6.244   4.938   8.342 -0.6705  3.2101  3.1375
  140OSM   H17G15376   6.251   4.853   8.488 -2.0915 -0.5214  1.2705
  140OSM   C18F15377   6.053   4.942   8.455  0.6831 -0.5558 -0.3878
  140OSM   H18F15378   5.999   4.983   8.366 -2.8381 -1.8420  0.9725
  140OSM   H18G15379   6.080   5.020   8.529 -1.5067  1.3317 -1.4244
  140OSM   H18H15380   5.985   4.865   8.497 -0.3160 -0.9190 -2.4979
  141OSM      N15381   4.955   6.590   6.533  0.1234 -0.2941 -0.7490
  141OSM    C1515382   4.857   6.539   6.631  0.2710  0.7236  0.4101
  141OSM   H15A15383   4.904   6.470   6.699  1.0437 -0.4278 -1.2054
  141OSM   H15B15384   4.789   6.473   6.579  3.0229 -0.8600 -1.4634
  141OSM   H15C15385   4.810   6.626   6.675 -1.4468  0.5065 -0.8741
  141OSM    C1415386   4.897   6.704   6.457  0.8391  0.4137  0.0722
  141OSM   H14A15387   4.966   6.736   6.381  1.9364 -0.2226  0.7783
  141OSM   H14B15388   4.875   6.780   6.530 -1.9659 -0.8915  0.7157
  141OSM   H14C15389   4.802   6.672   6.415  1.7893  1.0995 -2.8780
  141OSM    C1315390   5.082   6.647   6.595  0.4452  0.3542 -0.4878
  141OSM   H13A15391   5.062   6.742   6.642 -2.8389 -1.3054  1.8647
  141OSM   H13B15392   5.163   6.641   6.524  2.8340 -4.4086  2.1541
  141OSM   H13C15393   5.105   6.589   6.682  0.0174  2.3297  1.0075
  141OSM    C1215394   4.997   6.479   6.436 -0.2669 -0.4051 -0.0903
  141OSM   H12A15395   5.060   6.409   6.489 -1.3124 -1.5195 -0.2596
  141OSM   H12B15396   5.048   6.526   6.353 -0.8105 -0.6770 -0.5916
  141OSM    C1115397   4.880   6.405   6.365 -0.1499 -0.6730  0.2171
  141OSM   H11A15398   4.927   6.358   6.276  0.7196 -2.4927  1.5630
  141OSM   H11B15399   4.812   6.485   6.329 -2.9521 -2.6724  0.7071
  141OSM      P15400   4.657   6.279   6.421  0.0043  0.5597 -0.2856
  141OSM    O1315401   4.596   6.386   6.345  0.0675 -0.0160 -0.3210
  141OSM    O1415402   4.638   6.134   6.378 -0.1497 -0.3050  0.0572
  141OSM    O1115403   4.611   6.301   6.578 -0.3167 -0.5352 -0.2252
  141OSM    O1215404   4.811   6.316   6.444 -0.0413 -0.4792  0.6738
  141OSM    C1S15405   4.661   6.213   6.686 -0.2104 -0.5285  0.2831
  141OSM    H1S15406   4.771   6.196   6.679 -0.3016 -2.2483  2.1103
  141OSM    H1T15407   4.627   6.107   6.680  0.9765 -0.8673 -0.8685
  141OSM     NF15408   4.705   6.219   6.930  0.3236 -0.2242 -0.2385
  141OSM    HNF15409   4.653   6.149   6.980 -0.0872 -1.1474 -1.8758
  141OSM    C2S15410   4.624   6.277   6.822 -0.3987 -0.1642  0.5523
  141OSM    H2S15411   4.647   6.385   6.813  0.3129 -0.2103  1.5891
  141OSM    C3S15412   4.471   6.262   6.844 -0.2796 -0.6099  0.3384
  141OSM    H3S15413   4.458   6.153   6.858  0.9397 -0.8993 -0.5947
  141OSM     O315414   4.386   6.303   6.736  0.2856  0.1571  0.1532
  141OSM    HO315415   4.445   6.332   6.665  0.6291  1.6824  1.0182
  141OSM    C4S15416   4.436   6.324   6.978 -0.6471 -0.5620 -0.1935
  141OSM    H4S15417   4.441   6.257   7.066  0.7164 -2.1883 -1.4394
  141OSM    C5S15418   4.387   6.445   6.996  0.2513 -1.1916  0.7508
  141OSM    H5S15419   4.371   6.503   6.904 -0.6192 -2.1658  0.2644
  141OSM    C6S15420   4.355   6.523   7.121 -0.2818 -0.7479 -0.1757
  141OSM    H6S15421   4.255   6.571   7.120 -0.0521 -0.1072  1.9896
  141OSM    H6T15422   4.427   6.606   7.134  0.2379 -1.1206 -0.6569
  141OSM    C7S15423   4.377   6.439   7.252  0.3800 -0.5167  0.2494
  141OSM    H7S15424   4.485   6.419   7.269  0.7783  1.2672 -0.0427
  141OSM    H7T15425   4.337   6.337   7.232 -0.3012  0.0702 -1.5760
  141OSM    C8S15426   4.304   6.492   7.373  0.4475 -0.6901 -0.3166
  141OSM    H8S15427   4.193   6.496   7.362  0.3837  1.2797  0.5823
  141OSM    H8T15428   4.338   6.597   7.391 -2.1465  0.2446 -0.3890
  141OSM    C9S15429   4.341   6.405   7.500  0.2004 -0.0641 -0.3610
  141OSM    H9S15430   4.452   6.412   7.510  0.1663 -0.9311  0.7612
  141OSM    H9T15431   4.335   6.301   7.461  0.6329  0.1232 -0.9492
  141OSM   C10S15432   4.272   6.432   7.632 -0.6050  0.0335  0.2415
  141OSM   H10S15433   4.162   6.419   7.622 -0.7530  0.9415  0.5887
  141OSM   H10T15434   4.282   6.541   7.653 -0.5898 -0.3966  2.8115
  141OSM   C11S15435   4.325   6.345   7.744  0.5308 -0.0148 -0.8248
  141OSM   H11S15436   4.435   6.364   7.749  0.9445 -2.5315  2.1796
  141OSM   H11T15437   4.325   6.235   7.735  1.8244 -0.1303  0.1813
  141OSM   C12S15438   4.277   6.385   7.884  0.1803  0.6387 -0.1364
  141OSM   H12S15439   4.167   6.400   7.887 -0.3992 -2.8345  0.7315
  141OSM   H12T15440   4.321   6.483   7.913  0.3894  0.7609 -0.8416
  141OSM   C13S15441   4.315   6.278   7.986 -0.4985 -0.3683 -0.3305
  141OSM   H13S15442   4.426   6.272   7.993 -0.6327 -2.0402  0.9903
  141OSM   H13T15443   4.275   6.175   7.973  3.0370 -2.2739  2.0350
  141OSM   C14S15444   4.283   6.316   8.131  0.0230  0.0465 -0.2051
  141OSM   H14S15445   4.172   6.313   8.146 -0.0496 -1.7678 -0.8838
  141OSM   H14T15446   4.317   6.419   8.154  1.6309 -0.4808 -0.1464
  141OSM   C15S15447   4.357   6.212   8.230  0.4891  0.5841 -0.2640
  141OSM   H15S15448   4.464   6.242   8.229 -0.2830  3.6860 -0.7424
  141OSM   H15T15449   4.335   6.106   8.202  0.0490  0.8786 -1.0519
  141OSM   C16S15450   4.309   6.243   8.372  0.2969  0.0102 -0.7344
  141OSM   H16S15451   4.203   6.227   8.402  0.6956  0.3881  0.9709
  141OSM   H16T15452   4.321   6.348   8.405  1.8691 -0.1407 -0.7744
  141OSM   C17S15453   4.382   6.154   8.478  0.1751 -0.9620 -0.1025
  141OSM   H17S15454   4.367   6.186   8.583 -0.8483  0.9826 -0.7931
  141OSM   H17T15455   4.487   6.174   8.447 -0.3273  1.3547 -0.4917
  141OSM   C18S15456   4.360   6.004   8.463 -0.3091 -0.6481 -0.4433
  141OSM   H18S15457   4.445   5.947   8.506  2.8910  2.6941 -1.8364
  141OSM   H18T15458   4.342   5.962   8.361 -5.2589 -2.4539  0.8516
  141OSM   H18U15459   4.262   5.992   8.513 -1.2582 -1.7324 -2.4253
  141OSM    C1F15460   4.836   6.248   6.944  0.6835 -0.2072 -0.4593
  141OSM     OF15461   4.891   6.323   6.866 -0.2651  1.1646 -0.0831
  141OSM    C2F15462   4.901   6.177   7.061  0.6593 -0.2770  0.0653
  141OSM    H2F15463   4.860   6.075   7.058  1.2574 -0.5019 -1.9385
  141OSM    H2G15464   4.865   6.237   7.147  0.8961 -0.9122  0.6086
  141OSM    C3F15465   5.055   6.179   7.043  0.5000  0.5356  0.0609
  141OSM    H3F15466   5.093   6.282   7.063 -1.5099  1.1410  1.0030
  141OSM    H3G15467   5.096   6.147   6.945  0.2839 -1.3752  0.5633
  141OSM    C4F15468   5.123   6.080   7.148 -0.2095 -0.8998  0.5268
  141OSM    H4F15469   5.234   6.090   7.140 -0.2324 -1.4620 -0.8948
  141OSM    H4G15470   5.087   5.982   7.111  0.7198 -1.7699  1.8493
  141OSM    C5F15471   5.077   6.111   7.286 -0.3414  0.1511  0.5451
  141OSM    H5F15472   5.112   6.034   7.357 -0.8406  1.8305  2.7080
  141OSM    H5G15473   4.968   6.123   7.304 -0.1697  2.1773  0.4889
  141OSM    C6F15474   5.133   6.241   7.330  0.7122  1.0043 -0.2950
  141OSM    H6F15475   5.106   6.323   7.260 -1.3965  1.7393  1.2609
  141OSM    H6G15476   5.243   6.236   7.341  1.0743  0.1456 -3.3305
  141OSM    C7F15477   5.054   6.283   7.455 -0.2828  0.1865 -0.1337
  141OSM    H7F15478   4.946   6.299   7.431 -0.7377 -0.8344  1.0555
  141OSM    H7G15479   5.087   6.373   7.509 -2.3828  0.4371  0.8514
  141OSM    C8F15480   5.052   6.174   7.567  0.2345 -0.2277  0.6780
  141OSM    H8F15481   5.158   6.177   7.598  0.6739 -0.6581 -0.7277
  141OSM    H8G15482   5.021   6.073   7.533  0.8139  0.0705 -0.8390
  141OSM    C9F15483   4.957   6.215   7.671 -0.5479  0.4834  0.1193
  141OSM    H9F15484   4.861   6.247   7.627 -0.9955 -0.3366  0.4950
  141OSM   C10F15485   4.971   6.211   7.802 -0.3843  0.2758 -1.3288
  141OSM   H10F15486   4.898   6.260   7.868  1.1011  0.2240  0.4166
  141OSM   C11F15487   5.090   6.166   7.879 -0.5123  0.9081 -0.1992
  141OSM   H11F15488   5.137   6.254   7.928 -1.7316  1.2771  0.3487
  141OSM   H11G15489   5.159   6.108   7.814 -1.4889 -0.3102 -0.2047
  141OSM   C12F15490   5.051   6.066   7.982 -0.1020  0.4588 -0.2587
  141OSM   H12F15491   4.990   5.984   7.938  0.5460  0.4385 -1.1449
  141OSM   H12G15492   4.994   6.112   8.065  2.1341  0.9985  1.0720
  141OSM   C13F15493   5.171   5.997   8.044  0.0434  0.2784 -0.5271
  141OSM   H13F15494   5.246   6.073   8.074  0.2375  1.0710 -2.8591
  141OSM   H13G15495   5.217   5.927   7.971 -2.5754 -1.8120 -0.3261
  141OSM   C14F15496   5.136   5.901   8.156 -0.0067  0.2889 -0.2741
  141OSM   H14F15497   5.075   5.818   8.116  1.0682  0.0535 -1.4862
  141OSM   H14G15498   5.077   5.951   8.236  0.3840 -1.2264  0.9977
  141OSM   C15F15499   5.252   5.866   8.245 -0.3672 -0.6227 -0.1319
  141OSM   H15F15500   5.321   5.951   8.263  0.2897 -1.6001  2.3117
  141OSM   H15G15501   5.305   5.785   8.190  0.4684  0.0598 -0.3405
  141OSM   C16F15502   5.206   5.806   8.378 -0.4903  0.8299 -0.0099
  141OSM   H16F15503   5.136   5.722   8.360  2.1589 -1.9772  1.7261
  141OSM   H16G15504   5.134   5.876   8.425 -1.2503 -0.3047  0.5766
  141OSM   C17F15505   5.314   5.767   8.480  0.0484 -0.8857 -0.7294
  141OSM   H17F15506   5.371   5.859   8.504 -0.4076 -0.5781 -0.8279
  141OSM   H17G15507   5.389   5.695   8.440 -0.9624 -1.3122 -1.9305
  141OSM   C18F15508   5.252   5.699   8.599  0.0129  0.5039 -0.7324
  141OSM   H18F15509   5.334   5.672   8.670  0.3325 -1.2587 -1.7044
  141OSM   H18G15510   5.195   5.607   8.576 -2.3337  2.1291 -1.7586
  141OSM   H18H15511   5.183   5.766   8.655  1.8429 -0.1966  2.6798
  142OSM      N15512   4.600   0.349   6.302  0.8851  0.1299  0.0679
  142OSM    C1515513   4.722   0.260   6.305 -0.0970  0.1560 -0.9355
  142OSM   H15A15514   4.762   0.231   6.209 -2.2314 -2.4729 -1.1394
  142OSM   H15B15515   4.715   0.174   6.369  2.8935  1.5521  1.5440
  142OSM   H15C15516   4.798   0.316   6.357  0.0397 -0.0670 -0.8945
  142OSM    C1415517   4.610   0.472   6.215 -0.1984  0.0174  0.5476
  142OSM   H14A15518   4.620   0.441   6.112 -0.7199  1.0337  0.1781
  142OSM   H14B15519   4.698   0.520   6.254  0.2264 -0.7208  0.5124
  142OSM   H14C15520   4.530   0.544   6.224 -3.9258 -3.2617 -2.6543
  142OSM    C1315521   4.488   0.264   6.242 -0.5249 -0.0645  0.1041
  142OSM   H13A15522   4.392   0.307   6.269 -0.8806 -1.4883  1.2760
  142OSM   H13B15523   4.481   0.166   6.286 -0.6928 -0.5252 -0.9158
  142OSM   H13C15524   4.509   0.250   6.137  1.8197  0.2570  0.4859
  142OSM    C1215525   4.565   0.391   6.442  0.3835 -0.2540  1.1894
  142OSM   H12A15526   4.531   0.300   6.488 -1.4201 -0.1323  0.1864
  142OSM   H12B15527   4.480   0.459   6.447  0.9220  0.7444 -1.2963
  142OSM    C1115528   4.674   0.456   6.523 -0.7889  0.3172  0.1714
  142OSM   H11A15529   4.761   0.387   6.521  0.8633  2.3278 -1.0161
  142OSM   H11B15530   4.655   0.467   6.632  1.9106 -0.2045  0.7750
  142OSM      P15531   4.632   0.711   6.496 -0.4431 -0.0459 -0.6279
  142OSM    O1315532   4.717   0.829   6.477 -0.5930 -0.0012 -0.9697
  142OSM    O1415533   4.500   0.711   6.425 -0.5259 -0.1767 -0.2444
  142OSM    O1115534   4.609   0.687   6.649  0.4886 -0.7091  0.0169
  142OSM    O1215535   4.718   0.584   6.467  0.3439 -0.6061 -0.2533
  142OSM    C1S15536   4.717   0.694   6.745 -0.0584 -0.3070  0.4326
  142OSM    H1S15537   4.792   0.775   6.737 -0.3796  0.0664  1.0864
  142OSM    H1T15538   4.783   0.605   6.736  1.3249  0.4037  2.7227
  142OSM     NF15539   4.769   0.685   6.985  0.6029 -0.2525 -0.5954
  142OSM    HNF15540   4.803   0.597   7.017  1.0816  0.0829 -0.1573
  142OSM    C2S15541   4.659   0.688   6.893  0.4299  0.1650  0.9289
  142OSM    H2S15542   4.598   0.780   6.906  1.1432  1.0524 -1.5360
  142OSM    C3S15543   4.563   0.566   6.906 -0.4214  0.0762  0.1572
  142OSM    H3S15544   4.639   0.484   6.912 -0.6514 -0.0753  1.2400
  142OSM     O315545   4.483   0.525   6.800  1.0890  0.1540 -0.0475
  142OSM    HO315546   4.519   0.570   6.724  0.7183 -0.5241 -0.6269
  142OSM    C4S15547   4.498   0.579   7.041 -0.3772  0.5140  0.3421
  142OSM    H4S15548   4.572   0.541   7.114  0.3870 -2.1525 -1.6526
  142OSM    C5S15549   4.366   0.615   7.072  0.2887 -0.1357 -0.6803
  142OSM    H5S15550   4.294   0.624   6.989 -1.5518 -0.6008  0.7786
  142OSM    C6S15551   4.307   0.635   7.216  0.3430  0.3730 -0.3592
  142OSM    H6S15552   4.226   0.558   7.220 -1.4466  2.2165  0.4308
  142OSM    H6T15553   4.251   0.730   7.226 -1.1628 -0.6684  1.9781
  142OSM    C7S15554   4.400   0.620   7.339 -0.7372  0.2804  0.5780
  142OSM    H7S15555   4.496   0.669   7.315 -0.7348 -0.5804 -1.3915
  142OSM    H7T15556   4.427   0.514   7.356  0.1696  0.9058  3.4571
  142OSM    C8S15557   4.318   0.647   7.466 -0.3314 -0.2342  0.5653
  142OSM    H8S15558   4.228   0.584   7.450  0.6192 -1.5512  0.2358
  142OSM    H8T15559   4.285   0.752   7.455  0.8673  0.0343 -0.9097
  142OSM    C9S15560   4.387   0.604   7.589 -1.2399 -0.0071 -0.3226
  142OSM    H9S15561   4.482   0.661   7.598  1.0175 -3.4758 -0.5863
  142OSM    H9T15562   4.414   0.497   7.578  0.3274  0.4467 -1.0738
  142OSM   C10S15563   4.299   0.622   7.710  0.1145 -0.3019  0.4515
  142OSM   H10S15564   4.205   0.563   7.716 -1.3783  1.9950  1.0194
  142OSM   H10T15565   4.275   0.731   7.715  0.3261 -0.1405 -1.4151
  142OSM   C11S15566   4.374   0.589   7.837 -0.0425  0.0951 -0.1269
  142OSM   H11S15567   4.454   0.665   7.847 -0.7707  0.8203  0.2772
  142OSM   H11T15568   4.415   0.486   7.825  0.4017  0.3408 -0.7430
  142OSM   C12S15569   4.289   0.591   7.965  0.0504 -0.6220 -0.1671
  142OSM   H12S15570   4.208   0.515   7.968 -0.9861  0.4653  2.3911
  142OSM   H12T15571   4.240   0.691   7.961 -1.7794 -1.3859  1.4697
  142OSM   C13S15572   4.380   0.573   8.092 -0.2124 -0.0685 -0.3277
  142OSM   H13S15573   4.458   0.652   8.096  0.2759 -0.5906  1.1343
  142OSM   H13T15574   4.428   0.473   8.079  0.8741  0.7118 -2.9097
  142OSM   C14S15575   4.298   0.588   8.224 -0.1427 -0.0792 -0.6959
  142OSM   H14S15576   4.208   0.523   8.213 -0.0831 -0.0794 -1.2090
  142OSM   H14T15577   4.276   0.696   8.237  1.6928  0.1183  1.1772
  142OSM   C15S15578   4.371   0.536   8.341 -0.0329 -0.3177 -0.3093
  142OSM   H15S15579   4.478   0.523   8.314  0.3223 -2.5115  1.8087
  142OSM   H15T15580   4.343   0.429   8.339 -0.0713 -0.3134 -0.0417
  142OSM   C16S15581   4.348   0.596   8.482 -0.3090 -0.2570 -0.1902
  142OSM   H16S15582   4.410   0.541   8.556 -1.5089 -0.6183  0.5730
  142OSM   H16T15583   4.242   0.589   8.515 -0.9805  1.4953 -1.8348
  142OSM   C17S15584   4.402   0.745   8.495 -0.4012  0.8054  0.2486
  142OSM   H17S15585   4.450   0.769   8.398  0.8096 -0.4322  0.5042
  142OSM   H17T15586   4.474   0.749   8.580  0.3166  0.9346 -0.3490
  142OSM   C18S15587   4.280   0.834   8.515 -0.7552 -0.2619 -0.0731
  142OSM   H18S15588   4.223   0.831   8.419 -0.2685 -0.5094 -0.3582
  142OSM   H18T15589   4.309   0.938   8.539 -1.2126 -0.4022  1.1416
  142OSM   H18U15590   4.209   0.802   8.594 -0.0924 -1.9313 -0.1058
  142OSM    C1F15591   4.835   0.799   7.013  0.8408  0.3026 -1.0230
  142OSM     OF15592   4.799   0.908   6.970  0.0891  0.2362 -0.5256
  142OSM    C2F15593   4.965   0.778   7.086  0.1689  0.6863  0.1254
  142OSM    H2F15594   5.048   0.840   7.048 -0.3684  1.6960  0.5378
  142OSM    H2G15595   4.997   0.672   7.078  0.6578  0.9023 -0.8243
  142OSM    C3F15596   4.952   0.834   7.227 -0.0594  0.5374 -0.6064
  142OSM    H3F15597   4.886   0.780   7.300  0.1679  1.0288 -0.0310
  142OSM    H3G15598   4.910   0.936   7.220  0.2231  0.5410 -3.4306
  142OSM    C4F15599   5.092   0.853   7.289 -0.6867  1.1332 -0.0764
  142OSM    H4F15600   5.175   0.851   7.215  0.8735 -2.9205  1.4972
  142OSM    H4G15601   5.118   0.762   7.347 -0.0347  2.1377  1.2671
  142OSM    C5F15602   5.101   0.971   7.382  0.0115  0.0295 -0.2073
  142OSM    H5F15603   5.052   1.055   7.329  1.6439 -0.0619 -1.9505
  142OSM    H5G15604   5.204   1.005   7.407 -0.9876  3.1766  0.0847
  142OSM    C6F15605   5.042   0.947   7.523 -0.1652  0.2250 -0.2286
  142OSM    H6F15606   5.102   0.873   7.582  0.3009  1.3738  0.7756
  142OSM    H6G15607   4.943   0.905   7.495 -0.7739  0.3867  1.5579
  142OSM    C7F15608   5.043   1.071   7.613 -0.1696  0.1004  0.6580
  142OSM    H7F15609   4.976   1.045   7.698 -1.4632  1.6648  0.1874
  142OSM    H7G15610   5.000   1.158   7.559  2.8280  0.7293 -0.9016
  142OSM    C8F15611   5.187   1.096   7.671  0.2196 -0.0486  0.1687
  142OSM    H8F15612   5.262   1.100   7.590  1.4203 -1.4138  1.1598
  142OSM    H8G15613   5.206   1.009   7.737 -3.1829 -0.0393  1.3595
  142OSM    C9F15614   5.206   1.225   7.748  0.4912  0.1850  0.7248
  142OSM    H9F15615   5.203   1.316   7.687  0.9135 -0.7977 -0.8461
  142OSM   C10F15616   5.218   1.228   7.878  0.2787 -0.0968 -0.8311
  142OSM   H10F15617   5.243   1.325   7.923 -1.6587 -0.7979  2.0313
  142OSM   C11F15618   5.211   1.112   7.977  1.0510  0.0313 -0.0460
  142OSM   H11F15619   5.299   1.048   7.951  1.3801  1.6596 -3.5368
  142OSM   H11G15620   5.117   1.053   7.972  0.8088  0.4815 -1.0518
  142OSM   C12F15621   5.208   1.157   8.120 -0.6965  0.0575 -0.6460
  142OSM   H12F15622   5.294   1.221   8.149  1.0870 -2.7647  0.8169
  142OSM   H12G15623   5.229   1.062   8.175  2.5099  1.0011 -0.0567
  142OSM   C13F15624   5.076   1.224   8.161  0.0132 -0.6386  0.2899
  142OSM   H13F15625   5.017   1.248   8.070  0.5935  0.2396  0.1357
  142OSM   H13G15626   5.095   1.321   8.211  0.9240 -0.5024 -0.2945
  142OSM   C14F15627   4.980   1.134   8.236  0.4643  0.8849 -0.4382
  142OSM   H14F15628   4.975   1.032   8.193 -2.0134  0.5526  0.4381
  142OSM   H14G15629   4.878   1.179   8.229  0.3050  0.3514 -1.8924
  142OSM   C15F15630   5.019   1.114   8.387  0.2763 -0.2572 -0.1270
  142OSM   H15F15631   5.129   1.104   8.402  0.2586  0.0874  0.2418
  142OSM   H15G15632   4.969   1.021   8.423  0.6422  0.4280  2.2970
  142OSM   C16F15633   4.974   1.233   8.476  0.3654  0.1022  0.3317
  142OSM   H16F15634   4.863   1.244   8.477  0.1159 -1.9796  1.6936
  142OSM   H16G15635   5.017   1.322   8.426 -1.1608  1.0275  0.6061
  142OSM   C17F15636   5.031   1.219   8.619  0.1774 -0.1825  0.4203
  142OSM   H17F15637   5.138   1.190   8.610 -0.2112 -3.6298  4.1147
  142OSM   H17G15638   4.979   1.140   8.677 -4.1297  1.8317 -0.3166
  142OSM   C18F15639   5.018   1.351   8.696  0.4269 -0.0586 -0.6934
  142OSM   H18F15640   5.072   1.439   8.657  0.5364  0.4282  0.5140
  142OSM   H18G15641   5.061   1.336   8.797  0.5103  3.0127 -0.1799
  142OSM   H18H15642   4.913   1.380   8.719  0.1838 -1.2893 -0.1413
  143OSM      N15643   6.521   3.112   6.182 -0.1909 -0.3809  0.0322
  143OSM    C1515644   6.544   2.965   6.177  0.7156  1.3082 -0.2469
  143OSM   H15A15645   6.650   2.948   6.159  1.0748  1.4235  1.5797
  143OSM   H15B15646   6.492   2.913   6.098  0.4030  1.1534  0.0576
  143OSM   H15C15647   6.514   2.921   6.271  0.3528  0.5977 -0.6831
  143OSM    C1415648   6.605   3.172   6.076 -0.1322 -0.3578  0.6254
  143OSM   H14A15649   6.582   3.124   5.982  0.5429 -0.4157  0.4839
  143OSM   H14B15650   6.711   3.168   6.094  0.5328 -0.7861 -2.7271
  143OSM   H14C15651   6.588   3.278   6.076  1.5707 -0.0294 -0.9959
  143OSM    C1315652   6.372   3.136   6.139  0.2798  0.3256 -0.0531
  143OSM   H13A15653   6.341   3.058   6.072  1.7346 -1.3856  1.1660
  143OSM   H13B15654   6.344   3.227   6.088  0.6203  0.1289 -0.6043
  143OSM   H13C15655   6.309   3.128   6.226  2.5630  0.7297  1.7524
  143OSM    C1215656   6.554   3.175   6.313  0.5855 -0.1377  0.7498
  143OSM   H12A15657   6.530   3.278   6.297 -0.6827 -0.6190 -0.6130
  143OSM   H12B15658   6.662   3.167   6.322  0.7485 -0.5106 -1.1734
  143OSM    C1115659   6.477   3.132   6.446  0.2307 -0.3379  0.1282
  143OSM   H11A15660   6.499   3.200   6.531 -1.3578  0.2540  0.0915
  143OSM   H11B15661   6.508   3.030   6.477 -2.7061 -1.0240  1.1374
  143OSM      P15662   6.240   3.025   6.507  0.3976 -0.3140 -0.0155
  143OSM    O1315663   6.105   3.057   6.464  0.1290  0.4472  0.1969
  143OSM    O1415664   6.294   2.890   6.489  0.5721 -0.1251 -0.0635
  143OSM    O1115665   6.256   3.059   6.659  0.2462 -0.1293  0.2345
  143OSM    O1215666   6.331   3.121   6.429 -0.0498 -0.0907 -0.1592
  143OSM    C1S15667   6.184   3.173   6.716  0.6720  0.3893  0.1338
  143OSM    H1S15668   6.080   3.140   6.738  1.6023 -1.9589  1.4289
  143OSM    H1T15669   6.171   3.261   6.650 -1.5520  0.0980  0.0877
  143OSM     NF15670   6.185   3.351   6.879  0.1953 -0.0672 -0.4143
  143OSM    HNF15671   6.239   3.435   6.879 -1.2336  1.0470  2.6560
  143OSM    C2S15672   6.251   3.227   6.843 -0.7000 -0.4478  0.2371
  143OSM    H2S15673   6.225   3.163   6.930 -2.0311  0.8708  0.8476
  143OSM    C3S15674   6.405   3.241   6.834 -0.9048 -0.4213 -0.1474
  143OSM    H3S15675   6.448   3.316   6.764  2.8406 -1.3327  0.9899
  143OSM     O315676   6.474   3.120   6.794  0.3771 -0.3322 -0.0284
  143OSM    HO315677   6.400   3.066   6.767 -1.8082  2.1230  0.5624
  143OSM    C4S15678   6.458   3.290   6.968 -0.4292  0.4110 -0.5491
  143OSM    H4S15679   6.510   3.387   6.960 -3.0099  1.8255 -1.6833
  143OSM    C5S15680   6.452   3.225   7.085 -0.1678 -0.1075  0.1567
  143OSM    H5S15681   6.410   3.124   7.086 -0.1685 -0.1342 -1.0554
  143OSM    C6S15682   6.521   3.276   7.202  0.5298 -0.3816 -0.0005
  143OSM    H6S15683   6.586   3.363   7.178  1.1893 -1.3279 -1.8925
  143OSM    H6T15684   6.598   3.203   7.234 -1.6266 -2.6485  0.2903
  143OSM    C7S15685   6.433   3.314   7.324  0.2794  0.4166  0.3732
  143OSM    H7S15686   6.376   3.226   7.361  0.3761 -0.3251 -1.1437
  143OSM    H7T15687   6.359   3.389   7.288 -2.1912 -1.8943  0.3066
  143OSM    C8S15688   6.514   3.370   7.447  0.0078  0.6588 -0.0532
  143OSM    H8S15689   6.588   3.446   7.413  0.8922  0.1725  0.7244
  143OSM    H8T15690   6.573   3.284   7.486  1.5591  1.3652 -0.7618
  143OSM    C9S15691   6.425   3.434   7.553  0.0187  0.0477  0.8539
  143OSM    H9S15692   6.344   3.359   7.566 -0.4050  0.4410  0.5438
  143OSM    H9T15693   6.383   3.531   7.517  0.9720 -0.0987 -0.7374
  143OSM   C10S15694   6.496   3.473   7.679 -0.0323 -0.2117  0.6591
  143OSM   H10S15695   6.575   3.551   7.669  0.5925 -0.9646 -0.5471
  143OSM   H10T15696   6.550   3.379   7.705  1.8654  0.3804 -0.8634
  143OSM   C11S15697   6.406   3.525   7.784 -0.3346  0.5417  0.0014
  143OSM   H11S15698   6.323   3.456   7.810 -1.1568  0.0094 -3.5238
  143OSM   H11T15699   6.353   3.618   7.752  1.6125  1.7649  0.1424
  143OSM   C12S15700   6.486   3.547   7.915  0.1845  0.5790 -0.2213
  143OSM   H12S15701   6.576   3.604   7.885  1.1748 -0.9618 -0.2960
  143OSM   H12T15702   6.523   3.454   7.964  1.6362  1.0437 -0.3930
  143OSM   C13S15703   6.410   3.637   8.019  0.4956 -0.6109  0.9399
  143OSM   H13S15704   6.322   3.577   8.050 -2.0368  3.0081  1.3277
  143OSM   H13T15705   6.372   3.728   7.968 -1.6253 -1.9903 -0.0705
  143OSM   C14S15706   6.500   3.669   8.141 -0.5363  0.0384 -0.4001
  143OSM   H14S15707   6.604   3.699   8.118  0.5094 -2.4497  0.7103
  143OSM   H14T15708   6.511   3.573   8.196 -1.5048 -0.4545 -1.0387
  143OSM   C15S15709   6.435   3.771   8.231  0.7205  0.0368  0.3122
  143OSM   H15S15710   6.405   3.864   8.180  2.6038 -0.0999 -1.1031
  143OSM   H15T15711   6.503   3.802   8.313  0.8457 -0.9237  0.5846
  143OSM   C16S15712   6.305   3.707   8.291  0.1326 -0.4931  0.6002
  143OSM   H16S15713   6.316   3.600   8.317 -1.1179 -0.4683  1.3054
  143OSM   H16T15714   6.221   3.716   8.219 -1.7631 -0.2280  2.7390
  143OSM   C17S15715   6.268   3.767   8.420  0.2425 -0.2795 -0.5544
  143OSM   H17S15716   6.365   3.765   8.474 -1.4004 -2.3755  2.6237
  143OSM   H17T15717   6.187   3.712   8.472  1.6131 -1.2938  0.5887
  143OSM   C18S15718   6.216   3.911   8.393 -0.0041  0.0263 -0.4731
  143OSM   H18S15719   6.177   3.920   8.290 -1.2807  1.2961  0.0902
  143OSM   H18T15720   6.305   3.970   8.425 -0.3623  0.9168 -1.0858
  143OSM   H18U15721   6.138   3.935   8.469  0.0991  0.3577 -0.4703
  143OSM    C1F15722   6.059   3.364   6.912  0.1048 -0.3198  0.0178
  143OSM     OF15723   5.978   3.263   6.913  0.1509  0.0931 -0.6209
  143OSM    C2F15724   6.017   3.503   6.930  0.1158 -0.3232  0.4530
  143OSM    H2F15725   5.941   3.540   6.857 -1.1799 -3.0150  0.3089
  143OSM    H2G15726   6.102   3.572   6.912  2.1735 -2.0547  2.8827
  143OSM    C3F15727   5.959   3.522   7.066  0.5634  0.4986 -0.4244
  143OSM    H3F15728   5.867   3.461   7.077  0.7573  0.1294 -0.8430
  143OSM    H3G15729   5.922   3.627   7.075  0.0095  0.2669  0.0728
  143OSM    C4F15730   6.057   3.494   7.174  0.6474  0.3289  0.4979
  143OSM    H4F15731   6.151   3.525   7.124  0.0981  1.4244  0.1350
  143OSM    H4G15732   6.058   3.386   7.203 -1.3039  0.8754  3.0059
  143OSM    C5F15733   6.031   3.564   7.308 -0.7664  0.2216  0.5716
  143OSM    H5F15734   6.011   3.673   7.297 -0.0277  0.2389 -0.7592
  143OSM    H5G15735   6.128   3.566   7.363  0.5783 -1.7255 -1.5355
  143OSM    C6F15736   5.912   3.508   7.383 -0.0777  0.3540  0.0580
  143OSM    H6F15737   5.822   3.507   7.318 -0.9693 -0.6880  1.2801
  143OSM    H6G15738   5.894   3.587   7.460 -2.9044 -0.1152 -0.0140
  143OSM    C7F15739   5.926   3.376   7.454 -0.3765 -0.0036  0.6535
  143OSM    H7F15740   5.945   3.298   7.377  0.0448  0.8260 -0.0921
  143OSM    H7G15741   5.837   3.347   7.514 -0.2288  0.2521  0.9996
  143OSM    C8F15742   6.055   3.369   7.540 -0.5883  0.0114 -0.3377
  143OSM    H8F15743   6.067   3.459   7.603  2.2640  1.1497 -2.3044
  143OSM    H8G15744   6.130   3.372   7.459 -1.0676 -0.6877 -0.8173
  143OSM    C9F15745   6.071   3.251   7.633  0.2854  0.3909  0.0950
  143OSM    H9F15746   6.095   3.159   7.576 -1.1591 -0.6427  1.0785
  143OSM   C10F15747   6.054   3.255   7.770 -0.4973  0.0155 -0.4753
  143OSM   H10F15748   6.052   3.164   7.832  1.2179  1.4990  1.9582
  143OSM   C11F15749   6.016   3.375   7.854 -0.0387  0.3097  0.8453
  143OSM   H11F15750   6.065   3.468   7.821 -0.7033 -0.1496 -1.6721
  143OSM   H11G15751   6.052   3.372   7.958 -0.0700  1.0783  0.8806
  143OSM   C12F15752   5.871   3.417   7.836 -0.0401  0.0017  0.6677
  143OSM   H12F15753   5.801   3.332   7.824 -1.6466  1.3175  0.3010
  143OSM   H12G15754   5.864   3.483   7.746  0.5076 -0.5173  0.2389
  143OSM   C13F15755   5.814   3.497   7.959  0.6009  0.5465  0.2168
  143OSM   H13F15756   5.825   3.427   8.044 -0.8168  1.3212  1.0776
  143OSM   H13G15757   5.703   3.502   7.961  0.5614  1.1929 -1.8171
  143OSM   C14F15758   5.883   3.626   7.991  1.0607 -0.1329 -0.3697
  143OSM   H14F15759   5.841   3.692   7.912 -2.7830 -1.3158  0.4858
  143OSM   H14G15760   5.994   3.626   7.992  1.0743 -1.2918  0.5547
  143OSM   C15F15761   5.850   3.677   8.132 -0.7449  0.1819  0.1655
  143OSM   H15F15762   5.917   3.628   8.206 -1.1912  0.2552  0.6199
  143OSM   H15G15763   5.754   3.643   8.175 -1.4555  0.4263 -1.1933
  143OSM   C16F15764   5.877   3.824   8.138  0.2686  0.4137 -0.3161
  143OSM   H16F15765   5.822   3.888   8.065  0.4115  1.3071  0.3372
  143OSM   H16G15766   5.982   3.851   8.116  0.6011 -0.4786  0.1723
  143OSM   C17F15767   5.846   3.889   8.276  0.2943  0.1886  0.3194
  143OSM   H17F15768   5.858   3.998   8.261 -1.0302  0.1770 -1.1789
  143OSM   H17G15769   5.920   3.843   8.345  0.8767  0.2472 -0.2619
  143OSM   C18F15770   5.704   3.862   8.330  0.1286 -0.0899 -0.1408
  143OSM   H18F15771   5.698   3.753   8.353 -1.6839 -0.4603 -1.9858
  143OSM   H18G15772   5.639   3.888   8.243 -2.5597  1.1955  2.0962
  143OSM   H18H15773   5.667   3.921   8.416 -0.0092 -0.4966  0.0790
  144OSM      N15774   6.195   1.649   6.172 -0.5744 -1.1012 -0.2756
  144OSM    C1515775   6.341   1.618   6.135  0.3916  0.3707  0.7137
  144OSM   H15A15776   6.385   1.545   6.202  1.6990  0.4340 -0.0496
  144OSM   H15B15777   6.413   1.698   6.140  3.2075 -2.0638  1.4715
  144OSM   H15C15778   6.341   1.571   6.038  1.2489 -0.1382  0.9552
  144OSM    C1415779   6.112   1.718   6.064 -0.0370 -0.5961  0.4954
  144OSM   H14A15780   6.100   1.651   5.980 -1.3340 -0.2281  0.3653
  144OSM   H14B15781   6.152   1.813   6.030 -0.5742 -0.8813 -1.0295
  144OSM   H14C15782   6.019   1.744   6.112 -1.3897 -0.3422 -2.0844
  144OSM    C1315783   6.125   1.526   6.202 -0.1859  0.6757  0.2946
  144OSM   H13A15784   6.025   1.546   6.237 -0.9846 -1.8522 -0.3168
  144OSM   H13B15785   6.176   1.477   6.283  0.0170 -1.3940 -1.0012
  144OSM   H13C15786   6.125   1.448   6.127 -0.0569 -0.5368  1.5023
  144OSM    C1215787   6.188   1.746   6.294  0.8336 -0.3839  0.7941
  144OSM   H12A15788   6.229   1.834   6.247 -0.2150 -0.9613 -1.3475
  144OSM   H12B15789   6.270   1.720   6.360 -0.3835 -3.8745  1.1335
  144OSM    C1115790   6.044   1.765   6.362 -0.0396  0.4533  0.2342
  144OSM   H11A15791   6.059   1.849   6.434 -2.3757  0.5273  0.7060
  144OSM   H11B15792   6.029   1.667   6.413  0.3911  0.6241  0.7057
  144OSM      P15793   5.819   1.897   6.288 -0.1718 -0.2641  0.0963
  144OSM    O1315794   5.874   2.036   6.297  0.2456 -0.0526  0.6357
  144OSM    O1415795   5.716   1.873   6.182  0.1407 -0.1146 -0.7335
  144OSM    O1115796   5.765   1.855   6.430  0.3991  0.3631 -0.8230
  144OSM    O1215797   5.942   1.802   6.264 -0.3769  0.7590 -0.0121
  144OSM    C1S15798   5.736   1.714   6.461  0.2445  0.1105 -0.1633
  144OSM    H1S15799   5.798   1.651   6.393  1.0175 -0.0996  0.7234
  144OSM    H1T15800   5.632   1.693   6.427 -0.2090 -1.8214  2.1692
  144OSM     NF15801   5.739   1.532   6.635 -0.0654  0.5710 -0.3613
  144OSM    HNF15802   5.672   1.502   6.703  1.1612 -1.7130 -0.0789
  144OSM    C2S15803   5.753   1.675   6.611 -0.2431 -0.1422 -0.1441
  144OSM    H2S15804   5.860   1.697   6.626  0.0558 -1.8178  0.4599
  144OSM    C3S15805   5.653   1.758   6.702 -0.0235  0.5788 -0.5321
  144OSM    H3S15806   5.549   1.721   6.688 -0.0632  0.4518  0.0551
  144OSM     O315807   5.661   1.903   6.681  0.2328  0.2951  0.1156
  144OSM    HO315808   5.719   1.907   6.605 -0.5929 -1.5798 -0.6856
  144OSM    C4S15809   5.679   1.741   6.849  0.1969  0.7288 -0.6192
  144OSM    H4S15810   5.606   1.666   6.883 -0.8302  0.9891 -2.1622
  144OSM    C5S15811   5.767   1.802   6.942  0.4224 -0.1700  1.0231
  144OSM    H5S15812   5.847   1.872   6.915  1.6408 -0.6913  3.0879
  144OSM    C6S15813   5.763   1.766   7.096  0.2767  0.4751  0.0296
  144OSM    H6S15814   5.676   1.705   7.128  1.1363 -2.4179 -2.6381
  144OSM    H6T15815   5.764   1.857   7.160  1.6411 -0.2826  1.1491
  144OSM    C7S15816   5.888   1.684   7.144 -0.0076 -0.4877 -0.2948
  144OSM    H7S15817   5.989   1.728   7.130 -0.2329  1.1227  2.5642
  144OSM    H7T15818   5.889   1.595   7.076 -2.3566 -1.6058  1.0062
  144OSM    C8S15819   5.878   1.625   7.284 -0.1764 -0.2799 -0.2664
  144OSM    H8S15820   5.979   1.591   7.317  0.4722  0.0060 -1.8858
  144OSM    H8T15821   5.817   1.532   7.274  0.4192 -0.8567  1.1271
  144OSM    C9S15822   5.831   1.724   7.395 -0.3079  1.1400 -0.2432
  144OSM    H9S15823   5.732   1.774   7.383 -1.0764 -0.6520 -1.7824
  144OSM    H9T15824   5.907   1.804   7.406  1.4242 -0.6012  1.2982
  144OSM   C10S15825   5.833   1.642   7.529 -0.0509 -0.5995 -0.0225
  144OSM   H10S15826   5.912   1.564   7.528 -1.2842 -1.9326  1.8196
  144OSM   H10T15827   5.732   1.597   7.535 -0.2079 -0.0991  2.0763
  144OSM   C11S15828   5.849   1.734   7.651  0.1009  0.3104 -0.2471
  144OSM   H11S15829   5.781   1.822   7.655  3.1170  2.7685  1.4487
  144OSM   H11T15830   5.952   1.775   7.652  0.9445 -1.1638 -4.7102
  144OSM   C12S15831   5.829   1.650   7.781  0.1739  0.2706 -0.5045
  144OSM   H12S15832   5.888   1.556   7.777 -1.2915 -0.7299  0.1386
  144OSM   H12T15833   5.726   1.611   7.799  0.0845 -0.4261 -2.3423
  144OSM   C13S15834   5.870   1.732   7.910  0.5528  0.6527 -0.1128
  144OSM   H13S15835   5.809   1.822   7.932  0.0888  0.3956 -0.3045
  144OSM   H13T15836   5.976   1.762   7.898  0.9423 -0.8186 -0.6055
  144OSM   C14S15837   5.869   1.641   8.037 -0.0736 -0.7903 -0.4436
  144OSM   H14S15838   5.930   1.549   8.028 -0.0600 -0.7995 -0.2771
  144OSM   H14T15839   5.764   1.610   8.055 -0.5944  2.6460  4.7117
  144OSM   C15S15840   5.924   1.716   8.157  0.5309 -1.2777 -0.0310
  144OSM   H15S15841   5.858   1.806   8.162  0.1709 -1.5034 -0.6127
  144OSM   H15T15842   6.030   1.742   8.139 -0.4874  1.4257 -3.4409
  144OSM   C16S15843   5.904   1.625   8.280  1.1556  0.2771 -0.4858
  144OSM   H16S15844   5.947   1.687   8.362  0.2716  0.0208  0.1842
  144OSM   H16T15845   5.957   1.528   8.272 -0.4043 -0.5153 -2.0094
  144OSM   C17S15846   5.759   1.611   8.328  0.4792 -0.0836 -0.1481
  144OSM   H17S15847   5.694   1.546   8.264 -2.3673  1.2107  1.2379
  144OSM   H17T15848   5.698   1.703   8.335  1.8871  0.9186 -0.6482
  144OSM   C18S15849   5.754   1.550   8.466 -0.2731 -0.0143 -0.2539
  144OSM   H18S15850   5.832   1.471   8.480  0.7837  0.8268 -1.1902
  144OSM   H18T15851   5.660   1.501   8.498  0.6408 -0.5088  1.8532
  144OSM   H18U15852   5.791   1.617   8.546  3.2501 -0.5798 -1.2246
  144OSM    C1F15853   5.813   1.440   6.572 -1.3499 -0.4927 -0.8705
  144OSM     OF15854   5.902   1.464   6.494  0.3516  0.1769 -0.0250
  144OSM    C2F15855   5.789   1.298   6.602  0.2280  0.1825 -0.1728
  144OSM    H2F15856   5.803   1.241   6.507 -2.9738  1.4575 -1.5834
  144OSM    H2G15857   5.681   1.287   6.629  0.1843 -3.1996 -1.3087
  144OSM    C3F15858   5.885   1.222   6.701  0.0435 -0.7595  0.5445
  144OSM    H3F15859   5.992   1.224   6.672 -0.0477  3.1815 -0.1595
  144OSM    H3G15860   5.841   1.120   6.703 -2.2695 -0.0977 -3.7039
  144OSM    C4F15861   5.885   1.280   6.844  0.1966  0.7976 -0.2682
  144OSM    H4F15862   5.776   1.282   6.865  0.1429  0.2449 -0.4506
  144OSM    H4G15863   5.927   1.382   6.836  0.1634  0.7975 -0.4474
  144OSM    C5F15864   5.962   1.210   6.951 -0.5053  0.5166  0.1297
  144OSM    H5F15865   6.070   1.204   6.926  0.0485  1.8547  1.9708
  144OSM    H5G15866   5.933   1.103   6.957  0.8733  0.2025  2.2443
  144OSM    C6F15867   5.952   1.270   7.086  0.6936  1.1132  0.0793
  144OSM    H6F15868   5.856   1.255   7.139  1.0781  1.1015  0.7979
  144OSM    H6G15869   5.985   1.376   7.084 -0.7162  1.5475 -1.2730
  144OSM    C7F15870   6.044   1.189   7.183  0.1288 -0.2643 -0.3672
  144OSM    H7F15871   6.147   1.211   7.146  0.4186 -1.6865 -0.4621
  144OSM    H7G15872   6.007   1.087   7.159 -3.3583  0.9947 -0.8652
  144OSM    C8F15873   6.036   1.234   7.324  0.4045  0.3244  0.0023
  144OSM    H8F15874   6.056   1.342   7.339  2.7459 -0.1403  0.5534
  144OSM    H8G15875   6.122   1.192   7.382  1.8403  3.2939  0.1821
  144OSM    C9F15876   5.908   1.198   7.402  0.4118 -0.3383 -0.3632
  144OSM    H9F15877   5.826   1.271   7.405 -0.6090 -1.3859  3.9242
  144OSM   C10F15878   5.877   1.087   7.464  0.7455 -0.2554  0.2146
  144OSM   H10F15879   5.780   1.069   7.512  0.2446 -0.6333 -0.9111
  144OSM   C11F15880   5.967   0.969   7.488 -0.2994 -0.0079  0.2560
  144OSM   H11F15881   6.037   0.957   7.402  1.0035 -0.6022  1.3631
  144OSM   H11G15882   5.917   0.870   7.497  0.0590 -0.2551 -0.3556
  144OSM   C12F15883   6.056   0.969   7.613 -0.2839  0.2567 -0.6663
  144OSM   H12F15884   6.104   1.069   7.610  0.3308  0.0358  0.9624
  144OSM   H12G15885   6.124   0.881   7.617  0.1070  0.5921  1.2342
  144OSM   C13F15886   5.978   0.964   7.754 -0.5779 -0.4604  0.5225
  144OSM   H13F15887   5.915   0.872   7.752 -2.1768  0.6018 -0.9004
  144OSM   H13G15888   5.902   1.045   7.755  0.4251  0.5033  0.4122
  144OSM   C14F15889   6.058   0.992   7.876 -0.1910 -0.0509  0.9452
  144OSM   H14F15890   6.103   1.093   7.863  2.6609 -1.3076  0.1552
  144OSM   H14G15891   6.140   0.917   7.878 -0.7813 -0.8365 -1.1687
  144OSM   C15F15892   5.983   0.971   8.008 -0.6785 -0.0945  0.7008
  144OSM   H15F15893   5.925   0.876   8.010  0.0625 -0.6777 -1.8088
  144OSM   H15G15894   5.907   1.051   8.004  0.1497  0.6818  0.1305
  144OSM   C16F15895   6.077   0.999   8.124 -0.5116  0.2930  0.0028
  144OSM   H16F15896   6.081   1.110   8.135  0.2433  0.2242  0.4757
  144OSM   H16G15897   6.183   0.973   8.105 -0.3010 -0.6706  2.1773
  144OSM   C17F15898   6.040   0.934   8.254  1.0244  0.2633  0.0918
  144OSM   H17F15899   6.120   0.957   8.328  2.2972 -2.7331 -0.2104
  144OSM   H17G15900   6.040   0.823   8.251 -0.9710  0.2239  0.2237
  144OSM   C18F15901   5.894   0.966   8.292  0.3559  0.4042  0.3980
  144OSM   H18F15902   5.862   1.071   8.278  1.6457  0.5204 -2.2365
  144OSM   H18G15903   5.869   0.940   8.398  2.8566 -1.4391  0.6333
  144OSM   H18H15904   5.823   0.907   8.230  4.2467 -3.2787 -1.0922
  145SAPE     N15905   3.914   4.864  10.898  0.3983  0.0027  0.3941
  145SAPE   HN115906   3.842   4.930  10.933  0.3244 -0.3057  0.8261
  145SAPE   HN215907   3.983   4.921  10.845  0.8912  0.0674  1.0898
  145SAPE   HN315908   3.875   4.801  10.825 -0.3651  1.7773 -0.7944
  145SAPE   C1215909   3.975   4.777  10.999 -0.1095  0.5981 -0.8643
  145SAPE  H12A15910   3.903   4.698  11.029 -0.6629  1.4460  0.0883
  145SAPE  H12B15911   3.993   4.837  11.090 -1.4194 -0.4496  0.1267
  145SAPE   C1115912   4.109   4.716  10.943 -0.4054 -0.0195 -0.9471
  145SAPE  H11A15913   4.172   4.660  11.015 -2.4582 -1.7017 -0.3329
  145SAPE  H11B15914   4.166   4.804  10.909 -1.5936  1.6531  1.1562
  145SAPE     P15915   4.194   4.546  10.761 -0.2212  0.1765  0.0219
  145SAPE   O1315916   4.313   4.635  10.772 -0.5476  0.5583 -0.3417
  145SAPE   O1415917   4.196   4.405  10.812 -0.1084 -0.3211 -0.3197
  145SAPE   O1215918   4.078   4.633  10.833 -0.0417  0.5249  0.0382
  145SAPE   O1115919   4.135   4.542  10.618  0.0624  0.2236  0.3610
  145SAPE    C115920   4.010   4.483  10.595 -0.6904  0.6486 -0.1993
  145SAPE    HA15921   4.022   4.373  10.605  0.6195  0.9265  1.9495
  145SAPE    HB15922   3.938   4.520  10.671  0.4920 -0.7672  1.7189
  145SAPE    C215923   3.951   4.504  10.456 -0.6918 -0.2394 -0.8753
  145SAPE    HS15924   3.887   4.595  10.461  0.3764  0.5826 -1.6216
  145SAPE   O2115925   3.883   4.387  10.407 -0.3587 -0.2459 -0.7162
  145SAPE   C2115926   3.766   4.405  10.357  0.0030 -0.2668  0.4787
  145SAPE   O2215927   3.704   4.510  10.352 -0.2185 -0.4248  0.4676
  145SAPE   C2215928   3.724   4.270  10.293  0.7861 -0.8555 -0.5923
  145SAPE   H2R15929   3.793   4.247  10.209 -0.0899 -1.9955 -1.0282
  145SAPE   H2S15930   3.748   4.197  10.373  2.0207  0.4158  0.2419
  145SAPE    C315931   4.070   4.536  10.358  0.7500 -0.1188  0.5065
  145SAPE    HX15932   4.147   4.458  10.375  1.3342  0.0095 -1.2759
  145SAPE    HY15933   4.114   4.632  10.393 -0.6225  0.3783  0.9198
  145SAPE   O3115934   4.033   4.556  10.219 -0.3204  1.0815  0.5341
  145SAPE   C3115935   4.054   4.447  10.143  0.5081 -0.0696 -0.3372
  145SAPE   O3215936   4.094   4.340  10.180  0.7029 -0.1890 -0.4418
  145SAPE   C3215937   4.018   4.475  10.000 -0.7221 -0.1399 -0.1479
  145SAPE   H2X15938   4.090   4.545   9.952 -1.2900  1.7030  1.5520
  145SAPE   H2Y15939   3.930   4.542   9.995  0.0396  1.0778  1.6718
  145SAPE   C2315940   3.568   4.268  10.255 -1.3152 -0.3111 -0.2104
  145SAPE   H3R15941   3.531   4.368  10.223  0.9512  1.3715  2.0270
  145SAPE   H3S15942   3.518   4.259  10.354 -0.6127 -1.2193  0.0820
  145SAPE   C2415943   3.550   4.137  10.173 -0.6378  0.0714  0.9066
  145SAPE   H4R15944   3.621   4.056  10.201 -1.6027 -1.2460 -0.3397
  145SAPE   H4S15945   3.589   4.146  10.069  1.2433 -1.5891  1.4004
  145SAPE   C2515946   3.407   4.087  10.174 -0.1198 -0.6512  0.3740
  145SAPE   H5R15947   3.379   4.044  10.271 -0.4957  0.5068  0.7992
  145SAPE   C2615948   3.315   4.096  10.070  0.1185 -0.1541 -0.8508
  145SAPE   H6R15949   3.220   4.041  10.076  0.8434 -1.4869 -1.2815
  145SAPE   C2715950   3.341   4.159   9.937 -0.4826  0.4040 -0.4117
  145SAPE   H7R15951   3.421   4.234   9.955  0.9621 -1.0211 -0.7084
  145SAPE   H7S15952   3.250   4.213   9.904  0.0830  1.4641 -0.2967
  145SAPE   C2815953   3.406   4.065   9.838 -0.2393  0.6385  0.2958
  145SAPE   H8R15954   3.493   4.012   9.879  0.6402  0.8361 -1.2160
  145SAPE   C2915955   3.392   4.078   9.702 -0.4838  0.3401  0.0579
  145SAPE   H9R15956   3.435   3.994   9.646 -1.8571 -3.3838  4.0256
  145SAPE  C21015957   3.309   4.162   9.608  0.1836 -0.0809  0.1927
  145SAPE  H10R15958   3.367   4.212   9.528 -0.2513 -0.0950 -0.1369
  145SAPE  H10S15959   3.273   4.256   9.653 -2.9730 -1.2467  0.3561
  145SAPE  C21115960   3.190   4.079   9.561 -0.1360  0.1484  0.1630
  145SAPE  H11R15961   3.156   4.014   9.643  1.8105  0.6761  1.4475
  145SAPE  C21215962   3.143   4.063   9.432  0.1604  0.6271 -0.4940
  145SAPE  H12R15963   3.056   3.997   9.420 -0.3770  1.4508 -1.2410
  145SAPE  C21315964   3.196   4.131   9.307 -0.2541  0.3309 -0.2834
  145SAPE  H13R15965   3.303   4.157   9.323 -0.6501  1.5966  0.4697
  145SAPE  H13S15966   3.146   4.230   9.297 -0.4751  0.3100  0.5209
  145SAPE  C21415967   3.188   4.055   9.178  0.1263 -0.2525  0.3067
  145SAPE  H14R15968   3.208   3.948   9.188  0.7144 -0.2642 -0.9137
  145SAPE  C21515969   3.182   4.106   9.051 -0.0352  0.4865  0.1584
  145SAPE  H15R15970   3.177   4.032   8.970  1.1056  0.5690 -0.0107
  145SAPE  C21615971   3.169   4.247   9.010  0.8777 -0.5949 -0.4425
  145SAPE  H16R15972   3.215   4.278   8.914 -0.2019  4.4491  0.3605
  145SAPE  H16S15973   3.215   4.310   9.089  2.0586  0.7850 -2.1699
  145SAPE  C21715974   3.021   4.309   9.002 -0.6153 -0.3202  0.2503
  145SAPE  H17R15975   3.036   4.403   9.059 -0.6181 -0.0880 -0.1291
  145SAPE  H17S15976   2.944   4.247   9.053 -0.9466  1.1143  1.5671
  145SAPE  C21815977   2.981   4.352   8.860 -0.4476 -0.2367 -0.7252
  145SAPE  H18R15978   3.005   4.260   8.803  0.2859 -0.4956 -0.0130
  145SAPE  H18S15979   3.057   4.426   8.828 -0.5913  1.5440  2.5740
  145SAPE  C21915980   2.836   4.386   8.843  0.5106  0.0011  0.5999
  145SAPE  H19R15981   2.778   4.312   8.902 -0.2556 -0.8648 -1.1611
  145SAPE  H19S15982   2.810   4.366   8.737  0.1583 -0.5405  0.7841
  145SAPE  C22015983   2.809   4.529   8.886 -0.6813 -0.0234  0.3039
  145SAPE  H20R15984   2.891   4.595   8.851 -1.2936  0.5207 -0.1426
  145SAPE  H20S15985   2.818   4.535   8.996  0.5605  2.6529  0.1224
  145SAPE  H20T15986   2.710   4.571   8.857  0.1563  1.9156  0.1132
  145SAPE   C3315987   3.983   4.350   9.912 -0.0702 -0.0633 -0.3845
  145SAPE   H3X15988   3.897   4.301   9.962  0.7235 -0.7119  0.3569
  145SAPE   H3Y15989   4.075   4.289   9.903 -1.0101 -1.7164  0.6044
  145SAPE   C3415990   3.932   4.391   9.769 -0.7121 -0.1828 -0.2853
  145SAPE   H4X15991   4.019   4.432   9.714 -0.0596 -0.4927  0.5009
  145SAPE   H4Y15992   3.870   4.483   9.779  0.9970  1.0188 -0.2795
  145SAPE   C3515993   3.849   4.289   9.700  0.0517  0.6047  0.6061
  145SAPE   H5X15994   3.753   4.292   9.756 -0.3112 -2.0230  0.2545
  145SAPE   H5Y15995   3.895   4.188   9.694 -0.3587  0.4965 -1.3032
  145SAPE   C3615996   3.810   4.342   9.563 -0.8844  0.2691  0.2663
  145SAPE   H6X15997   3.784   4.450   9.564 -0.6959  0.3582 -1.7646
  145SAPE   H6Y15998   3.723   4.282   9.529 -0.6631  0.2494 -0.2679
  145SAPE   C3715999   3.923   4.320   9.462 -0.4233 -0.0892 -0.6769
  145SAPE   H7X16000   3.948   4.212   9.460  1.1230  0.2437 -0.0452
  145SAPE   H7Y16001   4.021   4.365   9.488  0.3304 -3.2732  2.9564
  145SAPE   C3816002   3.880   4.347   9.323  0.3107  0.4727 -0.0968
  145SAPE   H8X16003   3.771   4.330   9.308 -0.0957  1.2544  1.7618
  145SAPE   H8Y16004   3.949   4.292   9.256  2.7608  1.5559  1.4069
  145SAPE   C3916005   3.921   4.491   9.268  0.4029  0.4115 -0.8162
  145SAPE   H9X16006   4.027   4.514   9.290  0.1568  0.9153 -0.1289
  145SAPE   H9Y16007   3.868   4.553   9.344  0.7283 -0.1419 -0.1261
  145SAPE  C31016008   3.880   4.519   9.122 -0.8433  0.1793 -0.1963
  145SAPE  H10X16009   3.771   4.498   9.115 -0.7785  0.1302 -1.1298
  145SAPE  H10Y16010   3.930   4.454   9.048 -0.7771  1.2099 -1.0837
  145SAPE  C31116011   3.898   4.661   9.067 -0.3203 -0.3919 -0.0747
  145SAPE  H11X16012   4.007   4.672   9.085 -0.4244  1.2226 -0.2158
  145SAPE  H11Y16013   3.857   4.747   9.125  2.7552  0.8660  0.4151
  145SAPE  C31216014   3.847   4.677   8.918  0.5652 -0.1020  0.1509
  145SAPE  H12X16015   3.740   4.708   8.919  0.4716 -0.3964 -0.3772
  145SAPE  H12Y16016   3.842   4.576   8.874  0.4354  1.2038 -3.1005
  145SAPE  C31316017   3.936   4.765   8.836 -0.1578 -0.4504 -0.1894
  145SAPE  H13X16018   3.902   4.751   8.732 -1.9850  0.0724  0.3089
  145SAPE  H13Y16019   4.041   4.731   8.851  0.0391 -0.0043 -0.5392
  145SAPE  C31416020   3.910   4.913   8.880  0.1880 -0.2314  0.5948
  145SAPE  H14X16021   3.961   4.921   8.978  0.0325  0.8183  0.5933
  145SAPE  H14Y16022   3.801   4.927   8.898  0.1695  0.3188  0.0627
  145SAPE  C31516023   3.968   5.012   8.773 -0.1842  0.3079  0.5385
  145SAPE  H15X16024   3.948   4.983   8.668  3.3746 -1.7155  0.2450
  145SAPE  H15Y16025   4.076   4.987   8.774 -0.3951 -0.7912 -0.8916
  145SAPE  C31616026   3.948   5.160   8.802  0.2801  0.1119 -0.2721
  145SAPE  H16X16027   4.015   5.221   8.738  1.3269 -2.3425 -1.6805
  145SAPE  H16Y16028   3.966   5.186   8.908 -3.1525 -1.0567  0.7645
  145SAPE  C31716029   3.810   5.201   8.755  0.2644  0.0736  0.0727
  145SAPE  H17X16030   3.720   5.151   8.797  0.3777 -0.3054 -0.1342
  145SAPE  H17Y16031   3.810   5.187   8.645  1.1342  1.0808 -0.0726
  145SAPE  C31816032   3.791   5.349   8.776  0.5660 -0.6357 -0.4949
  145SAPE  H18X16033   3.700   5.388   8.725 -0.0381 -2.4299 -0.8769
  145SAPE  H18Y16034   3.868   5.405   8.720 -0.3240  0.0181 -1.1017
  145SAPE  H18Z16035   3.793   5.375   8.884  1.4623  0.3934 -0.7408
  146SAPE     N16036   3.243   6.573  10.999 -0.2070 -0.3314  0.1645
  146SAPE   HN116037   3.244   6.677  10.993 -0.0855 -0.2006  1.9074
  146SAPE   HN216038   3.155   6.541  11.044 -0.0145 -0.9710  0.0936
  146SAPE   HN316039   3.330   6.532  11.038  0.3859 -0.8149 -1.5792
  146SAPE   C1216040   3.236   6.530  10.858  0.3041 -0.9267  0.9718
  146SAPE  H12A16041   3.318   6.582  10.805  0.1081 -1.8465 -0.2645
  146SAPE  H12B16042   3.146   6.576  10.810  0.1904  0.4910  2.4396
  146SAPE   C1116043   3.253   6.379  10.841  0.3225 -0.2948 -0.0410
  146SAPE  H11A16044   3.337   6.352  10.908  0.3865  1.4089  0.6203
  146SAPE  H11B16045   3.287   6.354  10.739  2.4689  1.2335  0.2395
  146SAPE     P16046   3.127   6.156  10.874  0.0551  0.4841 -0.2656
  146SAPE   O1316047   3.214   6.099  10.980 -0.5282 -0.1233  0.3146
  146SAPE   O1416048   2.983   6.113  10.864 -0.6253 -0.2394  0.7640
  146SAPE   O1216049   3.131   6.316  10.880  0.0327 -0.2462 -0.2516
  146SAPE   O1116050   3.189   6.131  10.732  0.1821 -0.2942 -0.3835
  146SAPE    C116051   3.113   6.132  10.613 -0.1181  0.3534 -0.4470
  146SAPE    HA16052   3.033   6.208  10.624 -0.9643 -0.3300 -1.7033
  146SAPE    HB16053   3.175   6.152  10.522  0.2243  1.8055  0.0843
  146SAPE    C216054   3.049   5.990  10.597 -0.4943 -0.5067 -0.7362
  146SAPE    HS16055   3.051   5.942  10.698 -0.7382  3.0347  1.1227
  146SAPE   O2116056   3.122   5.919  10.495  0.1919 -0.2103  0.0447
  146SAPE   C2116057   3.105   5.786  10.498 -0.0185 -0.5384  0.1761
  146SAPE   O2216058   3.046   5.731  10.588 -0.2862 -0.3857  0.5835
  146SAPE   C2216059   3.147   5.722  10.371 -0.7708  0.6496 -0.6116
  146SAPE   H2R16060   3.079   5.757  10.291 -1.5593  0.4413 -0.0423
  146SAPE   H2S16061   3.252   5.752  10.351 -0.4750 -1.0297 -1.8098
  146SAPE    C316062   2.907   6.002  10.551  0.0502  0.2987  0.3157
  146SAPE    HX16063   2.849   6.052  10.631  1.1671  0.7066  0.8899
  146SAPE    HY16064   2.853   5.906  10.541  0.9651 -0.3831  1.7518
  146SAPE   O3116065   2.897   6.094  10.435 -0.6096  0.0353 -0.0651
  146SAPE   C3116066   2.881   6.040  10.323  1.0095  0.7800  0.7841
  146SAPE   O3216067   2.859   5.918  10.304 -0.1340  0.0994  0.3564
  146SAPE   C3216068   2.909   6.141  10.202 -0.8702  0.0734 -1.0221
  146SAPE   H2X16069   3.014   6.176  10.209 -0.2829 -1.9264  1.9777
  146SAPE   H2Y16070   2.851   6.234  10.225  0.6909  0.6968  0.6963
  146SAPE   C2316071   3.136   5.567  10.381 -0.1402 -0.0242  0.2988
  146SAPE   H3R16072   3.030   5.544  10.405  0.1019 -2.1010 -0.3782
  146SAPE   H3S16073   3.203   5.531  10.462  1.4272 -0.9644 -1.3182
  146SAPE   C2416074   3.188   5.476  10.262  0.0576  0.6763  0.0123
  146SAPE   H4R16075   3.105   5.482  10.189  1.5730 -1.8079 -2.0717
  146SAPE   H4S16076   3.190   5.371  10.299  1.1850  0.5665 -0.3096
  146SAPE   C2516077   3.321   5.522  10.205  0.2350 -0.3228 -0.1864
  146SAPE   H5R16078   3.409   5.521  10.271  0.1169 -1.1700 -0.0243
  146SAPE   C2616079   3.343   5.572  10.086 -0.1396 -0.0974  0.4495
  146SAPE   H6R16080   3.447   5.600  10.065 -1.0220  1.7489 -1.8084
  146SAPE   C2716081   3.240   5.592   9.975  0.2268  0.7642 -0.3362
  146SAPE   H7R16082   3.284   5.665   9.904  2.2732 -2.6187 -2.7894
  146SAPE   H7S16083   3.138   5.612  10.016  1.1082  0.1772  2.3324
  146SAPE   C2816084   3.228   5.469   9.889  0.3360 -0.5662 -0.2867
  146SAPE   H8R16085   3.158   5.393   9.927 -1.8615  0.5119 -1.9347
  146SAPE   C2916086   3.264   5.460   9.761  0.0124  0.5099 -0.0821
  146SAPE   H9R16087   3.253   5.359   9.719  0.3825 -0.4759  2.0533
  146SAPE  C21016088   3.340   5.572   9.680  0.2673 -0.4243 -0.9078
  146SAPE  H10R16089   3.392   5.657   9.729 -0.4936  0.2147 -1.2009
  146SAPE  H10S16090   3.273   5.618   9.605  0.3298 -0.3301 -0.9056
  146SAPE  C21116091   3.446   5.495   9.609 -0.4553 -0.4948  0.0091
  146SAPE  H11R16092   3.533   5.465   9.670  1.2397 -0.1765 -2.1503
  146SAPE  C21216093   3.460   5.475   9.475  0.1970 -0.5235 -0.0328
  146SAPE  H12R16094   3.555   5.430   9.443 -0.0423 -1.4726  0.5459
  146SAPE  C21316095   3.378   5.519   9.356 -0.1749 -0.3975  0.5081
  146SAPE  H13R16096   3.278   5.470   9.368 -0.8801  1.0111  0.5703
  146SAPE  H13S16097   3.437   5.475   9.273  0.3072  0.6126  0.3039
  146SAPE  C21416098   3.362   5.668   9.334 -0.0501  0.1646  0.6747
  146SAPE  H14R16099   3.375   5.720   9.431  0.4471 -3.1821  2.5494
  146SAPE  C21516100   3.312   5.720   9.223 -0.1040  0.0477  0.4367
  146SAPE  H15R16101   3.309   5.830   9.227  1.2396  0.0856  0.8471
  146SAPE  C21616102   3.271   5.648   9.099  0.1751  1.2081 -0.4640
  146SAPE  H16R16103   3.169   5.606   9.113  1.1317 -1.1241  0.0513
  146SAPE  H16S16104   3.338   5.561   9.082 -0.5124  0.8102 -1.1888
  146SAPE  C21716105   3.260   5.730   8.967 -0.5226  0.2923 -0.4194
  146SAPE  H17R16106   3.241   5.649   8.894  1.0918 -0.8025  0.3064
  146SAPE  H17S16107   3.355   5.785   8.946 -0.4692 -0.2403 -1.6520
  146SAPE  C21816108   3.145   5.832   8.962  0.1282 -0.4008  0.5905
  146SAPE  H18R16109   3.130   5.871   9.065  1.3550 -1.8106  1.3388
  146SAPE  H18S16110   3.051   5.778   8.936 -0.0732 -0.0888  0.6720
  146SAPE  C21916111   3.165   5.954   8.860 -0.2045  0.7431 -0.0791
  146SAPE  H19R16112   3.195   5.918   8.759 -0.5148 -1.0627  0.4347
  146SAPE  H19S16113   3.248   6.021   8.891 -0.5660  1.4440 -0.5876
  146SAPE  C22016114   3.045   6.049   8.857  0.3756 -0.3336 -0.6896
  146SAPE  H20R16115   3.022   6.083   8.960  0.0260 -1.5586 -0.3500
  146SAPE  H20S16116   2.948   6.004   8.828  0.0367 -1.2042  1.6172
  146SAPE  H20T16117   3.064   6.143   8.801  0.7457  2.0929  3.1420
  146SAPE   C3316118   2.877   6.087  10.058  0.1856  0.0280  0.1715
  146SAPE   H3X16119   2.797   6.012  10.072  0.8219 -0.4675  1.2301
  146SAPE   H3Y16120   2.966   6.037  10.014  1.3039  2.8431 -1.0416
  146SAPE   C3416121   2.825   6.208   9.966 -0.3201 -0.0471  0.2710
  146SAPE   H4X16122   2.890   6.296   9.981  0.4789 -0.8606  1.8102
  146SAPE   H4Y16123   2.721   6.238   9.992 -0.4106 -0.9893  1.0309
  146SAPE   C3516124   2.829   6.165   9.817  0.1474 -0.3332 -0.7457
  146SAPE   H5X16125   2.760   6.079   9.812  0.2503 -0.5593  1.0610
  146SAPE   H5Y16126   2.931   6.127   9.793  0.3904 -0.8345  0.9375
  146SAPE   C3616127   2.810   6.290   9.718  0.0914  1.1543 -0.4821
  146SAPE   H6X16128   2.898   6.356   9.733  0.1500  0.4983  2.8807
  146SAPE   H6Y16129   2.713   6.338   9.743 -0.8981 -1.4901  1.2134
  146SAPE   C3716130   2.800   6.240   9.576  0.2539  0.7317  0.1199
  146SAPE   H7X16131   2.714   6.172   9.558  0.6837  0.2060  0.0537
  146SAPE   H7Y16132   2.890   6.186   9.540  0.1700  2.1629 -2.5276
  146SAPE   C3816133   2.785   6.357   9.479 -0.6978 -0.3098 -0.0469
  146SAPE   H8X16134   2.853   6.440   9.509 -0.7910  0.3574 -1.5618
  146SAPE   H8Y16135   2.680   6.392   9.484 -0.6764 -0.1916 -0.3651
  146SAPE   C3916136   2.813   6.325   9.334  0.6129 -0.5024  0.2694
  146SAPE   H9X16137   2.790   6.413   9.270  2.6469  0.3323  0.6198
  146SAPE   H9Y16138   2.751   6.237   9.307 -1.2524  0.9307 -0.4218
  146SAPE  C31016139   2.962   6.295   9.311  0.2474 -0.9118 -0.4014
  146SAPE  H10X16140   2.966   6.192   9.353  0.7318 -0.4601  0.6981
  146SAPE  H10Y16141   3.025   6.368   9.366  0.8439 -2.0976  0.5320
  146SAPE  C31116142   3.008   6.305   9.162  0.0173 -0.0280 -0.1572
  146SAPE  H11X16143   2.937   6.245   9.100 -1.8812  2.1514 -0.2162
  146SAPE  H11Y16144   3.109   6.261   9.149 -0.3289 -1.0735  0.5824
  146SAPE  C31216145   3.007   6.453   9.107 -0.7663  0.0675  0.4889
  146SAPE  H12X16146   3.087   6.495   9.171 -0.3604 -1.7662  1.2641
  146SAPE  H12Y16147   2.913   6.503   9.139  0.5507  1.7077  2.0028
  146SAPE  C31316148   3.025   6.463   8.954 -0.8035 -0.1714 -0.2110
  146SAPE  H13X16149   2.927   6.430   8.913 -1.2553 -0.5048  1.1055
  146SAPE  H13Y16150   3.109   6.395   8.927 -1.1462 -0.8684  0.4456
  146SAPE  C31416151   3.060   6.603   8.911  1.0064  0.0726 -0.5963
  146SAPE  H14X16152   3.111   6.609   8.813  3.3460  1.3089  0.6123
  146SAPE  H14Y16153   3.139   6.636   8.982 -0.7765  0.5720  1.2491
  146SAPE  C31516154   2.940   6.701   8.913  0.1359  0.0344 -0.4391
  146SAPE  H15X16155   2.909   6.711   9.020 -0.1244 -0.7740 -0.4262
  146SAPE  H15Y16156   2.850   6.678   8.853  1.0263  1.1677 -2.2709
  146SAPE  C31616157   2.990   6.840   8.856  0.5848 -0.2648  0.0525
  146SAPE  H16X16158   3.030   6.823   8.754 -1.2336 -1.1460 -0.5740
  146SAPE  H16Y16159   3.077   6.872   8.917 -0.3559  1.5369  0.4941
  146SAPE  C31716160   2.879   6.949   8.869  0.1327  0.6156  0.1544
  146SAPE  H17X16161   2.934   7.044   8.857  2.4941 -0.4259  1.8198
  146SAPE  H17Y16162   2.828   6.949   8.968 -1.3351  0.4561 -0.5848
  146SAPE  C31816163   2.784   6.937   8.751 -0.0204 -0.5912  0.0215
  146SAPE  H18X16164   2.833   6.940   8.651 -1.4101 -2.7407 -0.7856
  146SAPE  H18Y16165   2.706   7.016   8.750  0.0611 -0.4897  0.8659
  146SAPE  H18Z16166   2.739   6.837   8.768 -0.2555 -0.7643 -1.4832
  147SAPE     N16167   4.545   1.678  11.407  0.3631 -0.2117  0.6521
  147SAPE   HN116168   4.611   1.621  11.464  0.9763 -0.6163 -0.4272
  147SAPE   HN216169   4.559   1.774  11.446  2.5073 -0.3348  0.3289
  147SAPE   HN316170   4.446   1.650  11.421  0.1518 -0.3258 -0.9747
  147SAPE   C1216171   4.587   1.649  11.261 -0.2250  0.1143 -0.1025
  147SAPE  H12A16172   4.563   1.545  11.234  1.3764 -0.5073  0.7100
  147SAPE  H12B16173   4.696   1.669  11.251 -0.0705 -0.4684  0.3700
  147SAPE   C1116174   4.516   1.746  11.171 -0.5619  0.2492  0.0985
  147SAPE  H11A16175   4.563   1.727  11.072 -1.9786 -1.2629 -0.3447
  147SAPE  H11B16176   4.524   1.851  11.207  1.6528  0.6711 -1.4236
  147SAPE     P16177   4.314   1.603  11.087 -0.4570 -0.2937 -0.0721
  147SAPE   O1316178   4.270   1.507  11.189 -0.1107  0.4077  0.1568
  147SAPE   O1416179   4.214   1.647  10.986  0.3193 -0.1388  0.2914
  147SAPE   O1216180   4.378   1.718  11.168 -0.1151  0.2377 -0.3874
  147SAPE   O1116181   4.443   1.549  11.009 -0.3297 -0.5127  0.3014
  147SAPE    C116182   4.476   1.414  10.980  0.4554  0.5339 -0.2880
  147SAPE    HA16183   4.558   1.375  11.045 -1.2851 -1.7929  0.6581
  147SAPE    HB16184   4.391   1.351  11.014 -1.5671  2.3617 -1.7342
  147SAPE    C216185   4.495   1.388  10.828  0.1748 -0.0103  0.6211
  147SAPE    HS16186   4.494   1.278  10.813  0.5577 -0.0329  0.7452
  147SAPE   O2116187   4.616   1.458  10.782 -0.5283  0.6514 -0.3820
  147SAPE   C2116188   4.674   1.403  10.679 -0.9293 -0.2324  0.3263
  147SAPE   O2216189   4.635   1.308  10.612  0.0624  0.3768  0.2339
  147SAPE   C2216190   4.791   1.495  10.633 -0.4104  0.1412 -0.1451
  147SAPE   H2R16191   4.758   1.574  10.561  0.7014 -0.8053 -1.7619
  147SAPE   H2S16192   4.834   1.543  10.723 -0.0550  2.8493 -1.6348
  147SAPE    C316193   4.376   1.439  10.752  0.0738  0.0550 -0.0262
  147SAPE    HX16194   4.369   1.548  10.767  0.3028  0.0430  0.1716
  147SAPE    HY16195   4.279   1.401  10.792  0.0791 -0.6459 -0.6641
  147SAPE   O3116196   4.387   1.400  10.614 -0.2693 -0.7653 -0.3039
  147SAPE   C3116197   4.339   1.277  10.586  0.3613 -0.5791 -0.4946
  147SAPE   O3216198   4.281   1.213  10.674  0.2418  0.2968  0.3650
  147SAPE   C3216199   4.377   1.226  10.449 -0.0936 -0.9066 -1.3729
  147SAPE   H2X16200   4.454   1.299  10.415 -1.5083  1.1013 -0.4848
  147SAPE   H2Y16201   4.296   1.262  10.382  0.5951  0.1728 -1.6556
  147SAPE   C2316202   4.906   1.422  10.556  0.0424  0.0833 -0.5266
  147SAPE   H3R16203   4.871   1.412  10.451 -1.0555 -0.4201 -0.1366
  147SAPE   H3S16204   4.925   1.321  10.599 -0.6119 -0.2333 -0.9585
  147SAPE   C2416205   5.045   1.487  10.568  0.1007 -0.1630  0.2152
  147SAPE   H4R16206   5.116   1.412  10.526  0.7820  1.1770 -1.1310
  147SAPE   H4S16207   5.076   1.508  10.672 -1.2131  1.9007  0.2374
  147SAPE   C2516208   5.041   1.609  10.484 -0.1509  0.0175  0.1412
  147SAPE   H5R16209   4.986   1.696  10.523  0.1402  0.5912 -0.6930
  147SAPE   C2616210   5.082   1.608  10.351 -0.1828  0.3780  0.2450
  147SAPE   H6R16211   5.072   1.705  10.300 -0.7629  0.2233  0.0592
  147SAPE   C2716212   5.135   1.489  10.266 -0.1711  0.1380  0.0076
  147SAPE   H7R16213   5.110   1.389  10.308 -1.0746 -0.8581 -2.6469
  147SAPE   H7S16214   5.245   1.498  10.262 -0.0730 -0.8420  0.2983
  147SAPE   C2816215   5.079   1.483  10.128  0.4061 -0.5485  0.2254
  147SAPE   H8R16216   4.972   1.493  10.106  0.8451  0.3565 -1.7043
  147SAPE   C2916217   5.157   1.451  10.019  0.3826  0.5262  0.1189
  147SAPE   H9R16218   5.104   1.441   9.923  0.1010 -0.2026  0.3449
  147SAPE  C21016219   5.303   1.421  10.009 -0.1210  0.1963 -1.1273
  147SAPE  H10R16220   5.351   1.412  10.109  0.6105 -5.8815 -1.6626
  147SAPE  H10S16221   5.354   1.504   9.954 -1.7347  1.5165 -0.7135
  147SAPE  C21116222   5.324   1.285   9.942 -0.4120 -0.2701  0.8525
  147SAPE  H11R16223   5.401   1.222   9.989 -0.4706 -1.4450 -0.5299
  147SAPE  C21216224   5.283   1.241   9.818  0.4591 -0.2318  0.1472
  147SAPE  H12R16225   5.304   1.136   9.792 -2.4949 -0.9682  0.3500
  147SAPE  C21316226   5.220   1.326   9.713  0.4738 -0.9742 -0.2406
  147SAPE  H13R16227   5.224   1.436   9.730  1.0877 -0.9080 -0.7985
  147SAPE  H13S16228   5.110   1.307   9.715  0.0641  1.0824 -0.4683
  147SAPE  C21416229   5.273   1.305   9.575 -0.7579 -0.0772 -0.2613
  147SAPE  H14R16230   5.370   1.253   9.574 -0.6081  0.0327  2.2392
  147SAPE  C21516231   5.210   1.342   9.462  0.1744  0.3315  0.2165
  147SAPE  H15R16232   5.251   1.310   9.366  2.0378 -0.5132  1.2406
  147SAPE  C21616233   5.080   1.413   9.475  0.1585 -0.1252 -0.3574
  147SAPE  H16R16234   5.095   1.503   9.538 -0.1863 -2.3501  3.2623
  147SAPE  H16S16235   5.004   1.350   9.526 -1.3134  1.0279 -1.0578
  147SAPE  C21716236   5.025   1.451   9.340 -0.7736  0.3013  0.0670
  147SAPE  H17R16237   5.093   1.512   9.278 -1.1243 -1.5298 -2.2851
  147SAPE  H17S16238   4.937   1.517   9.353  1.2174  3.6203 -1.9838
  147SAPE  C21816239   4.979   1.322   9.265  0.1651  0.5400  0.3720
  147SAPE  H18R16240   4.922   1.258   9.336 -0.5772  2.2091  1.3611
  147SAPE  H18S16241   5.070   1.265   9.237 -0.7439 -0.9228  0.3061
  147SAPE  C21916242   4.880   1.340   9.146  0.2309 -0.0056 -0.5022
  147SAPE  H19R16243   4.907   1.426   9.082 -0.6823 -1.5482 -3.0852
  147SAPE  H19S16244   4.785   1.375   9.191  0.5095  1.2247 -0.8454
  147SAPE  C22016245   4.862   1.211   9.057 -1.0906 -0.1747  0.1201
  147SAPE  H20R16246   4.858   1.127   9.129 -0.2223 -0.7213 -0.4655
  147SAPE  H20S16247   4.955   1.204   8.997 -0.0571  4.3051  0.8306
  147SAPE  H20T16248   4.777   1.229   8.987 -0.7466  1.0578 -0.0137
  147SAPE   C3316249   4.433   1.086  10.445 -0.4438 -0.5291 -0.0129
  147SAPE   H3X16250   4.381   1.026  10.523 -2.1122  1.1721  0.2606
  147SAPE   H3Y16251   4.542   1.088  10.467 -0.4127  0.5730 -0.2058
  147SAPE   C3416252   4.399   1.007  10.316  0.0279  0.4867  0.4112
  147SAPE   H4X16253   4.463   1.045  10.234 -1.8938  0.7175 -1.0625
  147SAPE   H4Y16254   4.295   1.023  10.282 -0.0814 -1.3217 -0.2260
  147SAPE   C3516255   4.421   0.853  10.337  0.3989 -0.3850 -0.1333
  147SAPE   H5X16256   4.334   0.812  10.394 -1.2763  0.8022 -1.7185
  147SAPE   H5Y16257   4.515   0.841  10.395  0.1092 -0.4982  0.3179
  147SAPE   C3616258   4.441   0.777  10.205  1.3692  0.0657  0.0324
  147SAPE   H6X16259   4.449   0.670  10.233  2.3068  0.5980  2.0102
  147SAPE   H6Y16260   4.538   0.804  10.158  1.3657 -0.4799 -0.2867
  147SAPE   C3716261   4.322   0.793  10.106 -0.5118 -0.0775 -0.0535
  147SAPE   H7X16262   4.319   0.900  10.076 -2.4414  0.5477  2.0726
  147SAPE   H7Y16263   4.230   0.771  10.165 -0.2778 -2.5759 -0.5246
  147SAPE   C3816264   4.334   0.702   9.985  0.3304  0.0570 -0.2535
  147SAPE   H8X16265   4.234   0.691   9.940 -1.5501  1.0478  3.3143
  147SAPE   H8Y16266   4.356   0.595  10.008  2.7464 -0.0098 -2.3992
  147SAPE   C3916267   4.419   0.759   9.868 -0.3963  0.0461 -0.2084
  147SAPE   H9X16268   4.526   0.766   9.898 -0.5308 -0.2434  0.3577
  147SAPE   H9Y16269   4.380   0.862   9.854 -1.4923 -0.4168 -0.6178
  147SAPE  C31016270   4.409   0.682   9.736 -0.4027 -0.0816  0.6460
  147SAPE  H10X16271   4.299   0.685   9.722 -0.5774  1.2437  2.0586
  147SAPE  H10Y16272   4.445   0.578   9.750  0.8142  0.4778  1.9434
  147SAPE  C31116273   4.472   0.766   9.616 -0.6012  0.0694 -0.2518
  147SAPE  H11X16274   4.579   0.780   9.644 -0.7337 -1.0313  0.8624
  147SAPE  H11Y16275   4.426   0.866   9.632 -0.9082 -0.0697 -0.2777
  147SAPE  C31216276   4.440   0.719   9.473 -0.6960  0.3927  0.2312
  147SAPE  H12X16277   4.464   0.800   9.401  0.9437 -1.0071 -0.8677
  147SAPE  H12Y16278   4.330   0.701   9.476 -0.4524 -1.1415  2.3253
  147SAPE  C31316279   4.515   0.598   9.422  0.3594  0.2882  0.1023
  147SAPE  H13X16280   4.488   0.503   9.474 -3.3647  1.5715  0.8537
  147SAPE  H13Y16281   4.620   0.624   9.448  0.0275  0.6008  1.2076
  147SAPE  C31416282   4.483   0.589   9.274  0.1533  0.4874  0.6970
  147SAPE  H14X16283   4.517   0.683   9.225 -0.6852  0.7641  0.6233
  147SAPE  H14Y16284   4.373   0.574   9.261  0.8036 -4.2421 -1.4420
  147SAPE  C31516285   4.549   0.463   9.211  0.2091 -0.1801 -0.5571
  147SAPE  H15X16286   4.502   0.377   9.264  1.2585 -2.0746 -2.5504
  147SAPE  H15Y16287   4.657   0.456   9.234  0.9124  3.7074 -1.9432
  147SAPE  C31616288   4.532   0.442   9.059  0.9162 -0.3781  0.2064
  147SAPE  H16X16289   4.613   0.371   9.029  0.6023 -0.3148 -0.7949
  147SAPE  H16Y16290   4.548   0.537   9.004 -0.6183 -0.1253  0.1727
  147SAPE  C31716291   4.393   0.385   9.017  0.0955  0.4181  0.0914
  147SAPE  H17X16292   4.312   0.455   9.044 -0.8980 -0.4709 -0.5006
  147SAPE  H17Y16293   4.364   0.295   9.076  1.2821 -0.7268 -0.9892
  147SAPE  C31816294   4.389   0.329   8.873 -0.0780 -0.2554  0.4352
  147SAPE  H18X16295   4.396   0.412   8.800  0.6009  0.5561  1.3830
  147SAPE  H18Y16296   4.301   0.267   8.846  0.3657 -0.2846 -1.0128
  147SAPE  H18Z16297   4.480   0.265   8.866  0.4296  0.5410 -0.5293
  148SAPE     N16298   5.779   3.862  10.820 -0.0302  0.7138  0.3029
  148SAPE   HN116299   5.806   3.960  10.843  2.0202  0.7659 -1.8392
  148SAPE   HN216300   5.675   3.854  10.812 -0.1339  2.9203 -2.4610
  148SAPE   HN316301   5.810   3.785  10.882 -3.6715  0.0142  1.4695
  148SAPE   C1216302   5.836   3.841  10.681  0.4424 -0.0245 -0.4162
  148SAPE  H12A16303   5.814   3.738  10.646 -0.6915  0.2307 -0.4797
  148SAPE  H12B16304   5.943   3.870  10.693  1.0721 -2.2447 -0.3102
  148SAPE   C1116305   5.767   3.940  10.585  0.1674  0.0844 -0.3163
  148SAPE  H11A16306   5.808   3.939  10.481  0.5429  0.4735 -0.1735
  148SAPE  H11B16307   5.773   4.046  10.617 -3.4548  0.0137  1.0689
  148SAPE     P16308   5.503   3.990  10.583 -0.1462  0.2855  0.0035
  148SAPE   O1316309   5.405   3.917  10.667 -0.3746  0.0885  0.2067
  148SAPE   O1416310   5.544   4.129  10.617  0.7347  0.3440 -0.1701
  148SAPE   O1216311   5.634   3.897  10.574 -0.3161 -0.7788  0.1977
  148SAPE   O1116312   5.458   3.991  10.432  0.3741  0.7017  0.3875
  148SAPE    C116313   5.451   4.110  10.358  0.0534 -0.4785 -0.2331
  148SAPE    HA16314   5.546   4.168  10.353 -1.7504  2.6011 -1.2372
  148SAPE    HB16315   5.435   4.084  10.252 -0.5988 -0.0876 -0.2345
  148SAPE    C216316   5.341   4.212  10.412 -0.1163  0.5552  0.1442
  148SAPE    HS16317   5.359   4.242  10.518 -0.4785  2.8168 -0.3807
  148SAPE   O2116318   5.206   4.167  10.403 -0.3584 -0.2094  0.0518
  148SAPE   C2116319   5.111   4.246  10.455  0.3881  0.4019 -0.5990
  148SAPE   O2216320   5.134   4.349  10.515 -0.3864 -0.5876 -0.3454
  148SAPE   C2216321   4.970   4.181  10.438  0.3326  0.2234 -0.2361
  148SAPE   H2R16322   4.985   4.087  10.382  1.2301  0.0963  0.2129
  148SAPE   H2S16323   4.930   4.146  10.536 -0.3265 -1.7840 -1.1729
  148SAPE    C316324   5.358   4.350  10.336 -0.3625  0.6683  0.3518
  148SAPE    HX16325   5.465   4.378  10.326  0.5780 -2.6897 -0.1948
  148SAPE    HY16326   5.316   4.431  10.399 -1.1612 -0.7082  1.6532
  148SAPE   O3116327   5.292   4.347  10.205 -0.0215  0.5275 -0.1045
  148SAPE   C3116328   5.360   4.323  10.096 -0.3509 -0.3791 -0.0734
  148SAPE   O3216329   5.480   4.308  10.098 -0.8773  0.0388  0.2431
  148SAPE   C3216330   5.274   4.358   9.980 -0.0855  0.1577 -0.3095
  148SAPE   H2X16331   5.260   4.468   9.988 -0.1470  0.2796 -1.8007
  148SAPE   H2Y16332   5.176   4.308   9.998  0.5769 -1.3006 -0.5927
  148SAPE   C2316333   4.876   4.276  10.363  0.1348  0.2074 -0.8634
  148SAPE   H3R16334   4.885   4.380  10.400 -0.9912 -0.0698  0.2490
  148SAPE   H3S16335   4.773   4.243  10.388  0.8637 -1.1290  0.5622
  148SAPE   C2416336   4.888   4.288  10.210 -0.5486 -0.1350 -0.7761
  148SAPE   H4R16337   4.991   4.306  10.171 -0.0935 -0.5821  0.1870
  148SAPE   H4S16338   4.829   4.378  10.184 -0.6578  0.0312  0.0109
  148SAPE   C2516339   4.829   4.178  10.130  0.4840  0.4439 -0.2648
  148SAPE   H5R16340   4.779   4.107  10.198  1.0454  0.4857  0.2005
  148SAPE   C2616341   4.825   4.160   9.998  0.3631  0.3657  0.3452
  148SAPE   H6R16342   4.793   4.060   9.963 -0.9536  0.2921  1.6341
  148SAPE   C2716343   4.882   4.256   9.902  0.6454 -0.4255  0.1514
  148SAPE   H7R16344   4.973   4.215   9.852  0.0073 -1.4121 -0.2229
  148SAPE   H7S16345   4.903   4.353   9.952  1.3120 -1.7131  2.4848
  148SAPE   C2816346   4.769   4.280   9.812 -0.5307  0.3642 -0.0358
  148SAPE   H8R16347   4.694   4.356   9.839 -0.9521  0.4760 -1.4014
  148SAPE   C2916348   4.747   4.225   9.690  0.1425 -0.0917  0.2001
  148SAPE   H9R16349   4.657   4.252   9.633 -0.4259  2.0535  1.9720
  148SAPE  C21016350   4.835   4.140   9.609 -0.3666  0.3805  0.4696
  148SAPE  H10R16351   4.768   4.057   9.579  0.4789 -0.0364 -0.3383
  148SAPE  H10S16352   4.930   4.097   9.647  1.4880  2.8175 -1.0256
  148SAPE  C21116353   4.877   4.218   9.482 -0.3848 -0.4260 -0.4337
  148SAPE  H11R16354   4.953   4.294   9.505 -1.1539 -0.4626  2.7615
  148SAPE  C21216355   4.833   4.205   9.355  0.1914  0.7279  0.4242
  148SAPE  H12R16356   4.875   4.272   9.279  0.2739 -0.3537 -0.5242
  148SAPE  C21316357   4.726   4.107   9.308  0.2445 -0.1492  0.2064
  148SAPE  H13R16358   4.672   4.150   9.220 -0.0523 -1.9365 -0.5259
  148SAPE  H13S16359   4.658   4.087   9.393  0.8423 -0.2329  0.6716
  148SAPE  C21416360   4.787   3.969   9.275  0.7079  0.0185 -0.4583
  148SAPE  H14R16361   4.849   3.933   9.358  0.3799 -0.9956 -0.6458
  148SAPE  C21516362   4.766   3.897   9.172 -0.1578  0.0217  0.0843
  148SAPE  H15R16363   4.797   3.792   9.183 -1.4984 -0.5655 -1.3596
  148SAPE  C21616364   4.672   3.922   9.053  0.3601  0.6421  0.1586
  148SAPE  H16R16365   4.641   4.028   9.041 -2.3052 -0.1913 -1.1424
  148SAPE  H16S16366   4.571   3.880   9.073  0.7288  0.5455  2.0927
  148SAPE  C21716367   4.719   3.889   8.912 -0.2377  0.8111 -0.0907
  148SAPE  H17R16368   4.715   3.779   8.898  1.1384  1.0443 -3.1571
  148SAPE  H17S16369   4.825   3.921   8.901 -0.4738  1.8455  0.5174
  148SAPE  C21816370   4.620   3.924   8.806  0.3222  0.2183  0.0343
  148SAPE  H18R16371   4.596   4.031   8.820 -1.0166 -0.1792  1.0431
  148SAPE  H18S16372   4.529   3.869   8.839  0.0285 -0.1842 -1.3951
  148SAPE  C21916373   4.660   3.915   8.658  0.1461 -0.4235 -0.6054
  148SAPE  H19R16374   4.735   3.992   8.633 -0.8271  0.7059 -0.1717
  148SAPE  H19S16375   4.572   3.921   8.590  0.8873 -2.7861 -1.9075
  148SAPE  C22016376   4.724   3.778   8.622  1.2253 -0.5598  0.0641
  148SAPE  H20R16377   4.666   3.692   8.662  0.4666 -0.7301 -1.3370
  148SAPE  H20S16378   4.821   3.778   8.678  0.9680 -0.0872  0.5170
  148SAPE  H20T16379   4.739   3.759   8.514 -1.6676  1.0100 -0.6911
  148SAPE   C3316380   5.333   4.323   9.843 -0.1585 -0.6469  0.0356
  148SAPE   H3X16381   5.351   4.214   9.829 -0.2896 -0.5363 -1.0727
  148SAPE   H3Y16382   5.433   4.372   9.840 -1.3455  2.0217  1.2224
  148SAPE   C3416383   5.233   4.374   9.739 -1.0162 -0.2185  0.2298
  148SAPE   H4X16384   5.224   4.483   9.759 -0.9115 -0.3105  0.7972
  148SAPE   H4Y16385   5.138   4.326   9.772 -2.0914  1.4701 -0.2159
  148SAPE   C3516386   5.279   4.351   9.601  0.0878  0.0016  0.0863
  148SAPE   H5X16387   5.384   4.385   9.587  0.1734 -0.4856 -0.5000
  148SAPE   H5Y16388   5.213   4.415   9.539 -0.2056 -0.0660  0.3300
  148SAPE   C3616389   5.267   4.200   9.549  0.2986 -0.3263 -0.2819
  148SAPE   H6X16390   5.158   4.180   9.551  0.1654  0.3829 -0.4105
  148SAPE   H6Y16391   5.318   4.127   9.616 -0.2642  0.0966  0.6321
  148SAPE   C3716392   5.311   4.187   9.407 -0.0592  0.1087  0.7689
  148SAPE   H7X16393   5.353   4.085   9.395 -1.5792 -0.6257  1.5135
  148SAPE   H7Y16394   5.390   4.263   9.390 -0.8271  1.2205  2.0171
  148SAPE   C3816395   5.201   4.206   9.304 -0.1077  0.4410 -1.0207
  148SAPE   H8X16396   5.146   4.301   9.317 -0.3066  0.1740  0.2005
  148SAPE   H8Y16397   5.116   4.138   9.325  0.3491  0.1850  0.0904
  148SAPE   C3916398   5.252   4.195   9.162 -0.2408  0.0013  0.2557
  148SAPE   H9X16399   5.323   4.112   9.147  0.4530  0.7949 -1.0060
  148SAPE   H9Y16400   5.317   4.282   9.143 -1.1017  0.7189  0.4990
  148SAPE  C31016401   5.144   4.177   9.055 -0.4385  0.1230  0.0352
  148SAPE  H10X16402   5.063   4.252   9.066 -1.3723 -0.9743  0.8760
  148SAPE  H10Y16403   5.092   4.084   9.088 -1.5997  0.9308  0.5473
  148SAPE  C31116404   5.199   4.176   8.916  0.2942 -0.2388 -0.0647
  148SAPE  H11X16405   5.290   4.112   8.920 -1.0198 -2.1284  1.2960
  148SAPE  H11Y16406   5.237   4.278   8.896  0.0753  0.0032  0.6911
  148SAPE  C31216407   5.100   4.127   8.814  0.4423 -0.1255  0.1077
  148SAPE  H12X16408   5.000   4.171   8.834  0.0786 -1.7036  2.0142
  148SAPE  H12Y16409   5.091   4.016   8.813  1.3481 -0.2754 -3.0937
  148SAPE  C31316410   5.139   4.174   8.673  0.6751  1.1600  0.4110
  148SAPE  H13X16411   5.152   4.284   8.671  1.7111  1.0391 -0.4705
  148SAPE  H13Y16412   5.052   4.148   8.608 -0.2503 -2.4329  2.7931
  148SAPE  C31416413   5.270   4.106   8.617 -0.2757  0.1009 -0.2125
  148SAPE  H14X16414   5.353   4.126   8.689  1.7048 -0.3136 -2.2685
  148SAPE  H14Y16415   5.295   4.160   8.523  0.4265  0.5958  0.2472
  148SAPE  C31516416   5.255   3.956   8.581 -0.4649 -0.6327 -0.5392
  148SAPE  H15X16417   5.220   3.907   8.674  0.5998  0.2396  0.3368
  148SAPE  H15Y16418   5.349   3.901   8.561 -0.7240 -1.1756 -0.3034
  148SAPE  C31616419   5.150   3.933   8.470 -0.0195 -0.1858  0.0796
  148SAPE  H16X16420   5.168   4.010   8.393  1.1511  2.0426  2.4227
  148SAPE  H16Y16421   5.053   3.955   8.521  1.2530  1.7550  1.8299
  148SAPE  C31716422   5.160   3.785   8.419 -0.2640 -0.3590  0.1456
  148SAPE  H17X16423   5.076   3.771   8.348 -1.1945 -0.9669  1.3346
  148SAPE  H17Y16424   5.138   3.726   8.511  1.1889 -0.0133  0.7478
  148SAPE  C31816425   5.292   3.752   8.357  0.1653  0.1492  0.7753
  148SAPE  H18X16426   5.381   3.816   8.376  0.6132  0.6125 -2.2868
  148SAPE  H18Y16427   5.281   3.761   8.247  3.2463 -1.2720  0.2499
  148SAPE  H18Z16428   5.322   3.648   8.381  1.9402 -0.3789 -2.9379
  149SAPE     N16429   1.807   5.391  11.028  0.0603 -0.3997  0.1012
  149SAPE   HN116430   1.846   5.297  11.009  0.3612 -0.1345 -0.6463
  149SAPE   HN216431   1.734   5.390  11.101 -2.6775  0.2355 -2.4221
  149SAPE   HN316432   1.757   5.427  10.944  0.3357 -0.6072 -0.1539
  149SAPE   C1216433   1.907   5.495  11.060  0.9484 -0.5382 -0.3879
  149SAPE  H12A16434   1.939   5.547  10.967  0.6423 -1.7126 -1.1624
  149SAPE  H12B16435   1.997   5.447  11.105  1.6667  0.4682 -0.7037
  149SAPE   C1116436   1.843   5.596  11.162  0.4216  1.2840  0.6681
  149SAPE  H11A16437   1.920   5.674  11.179  0.7627  0.9866  0.5164
  149SAPE  H11B16438   1.822   5.545  11.258 -0.9452  2.0782  0.8047
  149SAPE     P16439   1.669   5.783  11.115 -0.2244 -0.0462  0.0273
  149SAPE   O1316440   1.525   5.802  11.065 -0.1270 -0.1650  0.1724
  149SAPE   O1416441   1.708   5.831  11.252 -0.2025  0.1252 -0.6971
  149SAPE   O1216442   1.724   5.643  11.107 -0.1457 -0.5320 -0.1608
  149SAPE   O1116443   1.757   5.859  11.013 -0.6123  0.1561 -0.1365
  149SAPE    C116444   1.771   5.813  10.881 -0.7494  0.4343  0.2152
  149SAPE    HA16445   1.804   5.707  10.886 -0.2653  0.6284  1.4737
  149SAPE    HB16446   1.677   5.827  10.823 -0.6026  2.3433  0.3950
  149SAPE    C216447   1.882   5.899  10.813 -0.0260 -0.3031 -0.6096
  149SAPE    HS16448   1.871   5.998  10.863  1.5782 -0.0800 -0.6599
  149SAPE   O2116449   1.854   5.907  10.672 -0.3504  0.0823 -0.1719
  149SAPE   C2116450   1.922   6.008  10.615  0.3951  0.5724  0.0965
  149SAPE   O2216451   2.011   6.076  10.666 -0.5068  0.2912  0.3988
  149SAPE   C2216452   1.860   6.020  10.475  1.2621  0.1185 -0.1964
  149SAPE   H2R16453   1.854   5.915  10.437 -2.5730  1.0695 -2.7163
  149SAPE   H2S16454   1.753   6.048  10.484  1.5933  0.8537  2.1642
  149SAPE    C316455   2.021   5.840  10.849  0.6258  0.0414  0.2774
  149SAPE    HX16456   2.020   5.825  10.960 -2.1884 -0.2471  0.2922
  149SAPE    HY16457   2.110   5.904  10.834  1.6280 -0.7886  2.2438
  149SAPE   O3116458   2.043   5.707  10.785 -0.1156 -0.2979  0.2821
  149SAPE   C3116459   2.135   5.710  10.680 -0.2707 -0.1645 -0.2676
  149SAPE   O3216460   2.210   5.801  10.651 -0.0299  0.4295  0.4014
  149SAPE   C3216461   2.135   5.576  10.615 -0.3274  0.3740  0.2064
  149SAPE   H2X16462   2.041   5.522  10.641 -0.6457  0.3735 -0.8823
  149SAPE   H2Y16463   2.221   5.520  10.657  1.1051 -0.8875 -3.8994
  149SAPE   C2316464   1.931   6.114  10.379  0.2959 -0.1674 -0.3778
  149SAPE   H3R16465   2.032   6.073  10.360 -0.0634 -0.7267 -1.1403
  149SAPE   H3S16466   1.941   6.204  10.444  0.2785  0.0832 -0.7192
  149SAPE   C2416467   1.845   6.149  10.255  0.3706  0.2343 -0.3549
  149SAPE   H4R16468   1.744   6.185  10.283 -0.1695 -1.1272 -0.4635
  149SAPE   H4S16469   1.837   6.053  10.199  0.4696  0.1046 -0.1459
  149SAPE   C2516470   1.920   6.248  10.166  0.2441  1.2547  0.1938
  149SAPE   H5R16471   1.964   6.326  10.230  1.8983  0.4545  0.0783
  149SAPE   C2616472   1.939   6.246  10.033 -0.5669 -0.7970 -0.3627
  149SAPE   H6R16473   1.996   6.325   9.983 -1.0239 -0.0671  0.2430
  149SAPE   C2716474   1.888   6.139   9.939 -0.5437 -0.0524  0.1999
  149SAPE   H7R16475   1.779   6.152   9.921 -0.3443 -0.7687 -1.8425
  149SAPE   H7S16476   1.911   6.040   9.984  0.5847  0.3962  0.6394
  149SAPE   C2816477   1.961   6.147   9.806  0.1392 -0.3530  0.9842
  149SAPE   H8R16478   2.041   6.074   9.785  0.3372  0.1554 -0.0811
  149SAPE   C2916479   1.935   6.232   9.702  0.2696 -0.6026  0.2461
  149SAPE   H9R16480   1.995   6.233   9.611 -0.0011 -0.5078  0.0672
  149SAPE  C21016481   1.835   6.341   9.714  0.2573 -0.0100 -0.8575
  149SAPE  H10R16482   1.859   6.419   9.639  1.3042  0.4573 -0.0660
  149SAPE  H10S16483   1.856   6.397   9.807 -1.0553  0.7959 -1.0224
  149SAPE  C21116484   1.694   6.306   9.708  0.0342  0.1517  0.1181
  149SAPE  H11R16485   1.633   6.330   9.796 -0.4754  1.4679 -0.5792
  149SAPE  C21216486   1.635   6.241   9.600 -0.3984  0.2824 -0.3192
  149SAPE  H12R16487   1.527   6.222   9.603 -0.1179 -1.5062  0.0266
  149SAPE  C21316488   1.711   6.207   9.473 -0.0069  0.2156  0.0173
  149SAPE  H13R16489   1.642   6.156   9.401 -0.2786  1.3312 -0.5306
  149SAPE  H13S16490   1.794   6.136   9.493 -0.3472  0.3619  2.1650
  149SAPE  C21416491   1.760   6.322   9.386 -0.2016  0.4782  0.3686
  149SAPE  H14R16492   1.686   6.403   9.389 -1.8583 -1.0127  1.3553
  149SAPE  C21516493   1.866   6.331   9.309 -0.4736 -0.0284 -0.2668
  149SAPE  H15R16494   1.876   6.419   9.244 -0.5115 -1.0525 -1.6952
  149SAPE  C21616495   1.970   6.226   9.274  0.4446  0.1397 -0.6454
  149SAPE  H16R16496   1.933   6.131   9.318 -2.3104  1.6769  0.6262
  149SAPE  H16S16497   2.066   6.255   9.320 -0.1932 -1.2047  1.6551
  149SAPE  C21716498   1.954   6.202   9.115  1.0747 -0.2392 -0.3921
  149SAPE  H17R16499   1.967   6.294   9.055  4.7827 -2.1247 -2.8863
  149SAPE  H17S16500   1.848   6.172   9.100  0.1302  1.5894  2.0483
  149SAPE  C21816501   2.052   6.098   9.062 -0.0550 -0.6279 -0.6260
  149SAPE  H18R16502   2.039   6.003   9.117 -0.6249 -0.3201 -0.2191
  149SAPE  H18S16503   2.154   6.138   9.085 -0.3813 -1.0210  1.8014
  149SAPE  C21916504   2.049   6.089   8.915 -0.0193  0.8585  0.8127
  149SAPE  H19R16505   1.955   6.052   8.870  2.0355 -3.0738 -0.7454
  149SAPE  H19S16506   2.116   6.005   8.886 -0.6697  0.9765 -1.1571
  149SAPE  C22016507   2.084   6.222   8.836  0.1990 -0.2998 -0.2354
  149SAPE  H20R16508   2.099   6.199   8.728  3.2469  0.1635  0.0093
  149SAPE  H20S16509   2.176   6.264   8.881 -0.3820 -1.4659  2.2153
  149SAPE  H20T16510   2.004   6.295   8.860  1.1194 -0.2659  3.2806
  149SAPE   C3316511   2.170   5.584  10.464 -0.0070 -0.7728 -0.0078
  149SAPE   H3X16512   2.184   5.480  10.427 -0.7029 -0.2194 -1.9749
  149SAPE   H3Y16513   2.259   5.642  10.435 -1.5924 -0.2900 -4.7383
  149SAPE   C3416514   2.051   5.629  10.382 -0.0066 -0.3294  1.1062
  149SAPE   H4X16515   2.010   5.720  10.431 -1.4961  0.4081 -1.3028
  149SAPE   H4Y16516   1.974   5.549  10.394 -0.0577 -0.0342  3.0211
  149SAPE   C3516517   2.076   5.655  10.230 -1.1134  0.3804  0.0095
  149SAPE   H5X16518   2.149   5.737  10.216  0.6409 -1.3400 -1.7749
  149SAPE   H5Y16519   1.989   5.701  10.178 -1.1384  1.0532  0.6413
  149SAPE   C3616520   2.125   5.532  10.150 -0.2469  0.2411  0.0659
  149SAPE   H6X16521   2.053   5.453  10.181 -1.0787  0.8597 -0.2687
  149SAPE   H6Y16522   2.229   5.506  10.180 -0.3159  1.3069  1.3087
  149SAPE   C3716523   2.129   5.552   9.996 -0.3675 -0.0002  0.4924
  149SAPE   H7X16524   2.023   5.564   9.963 -0.5637 -2.0717  0.2686
  149SAPE   H7Y16525   2.168   5.463   9.943  3.0194  0.6099  1.7420
  149SAPE   C3816526   2.213   5.676   9.949  0.3575  0.7567 -0.0775
  149SAPE   H8X16527   2.317   5.651   9.981 -0.3239 -3.1338 -0.4159
  149SAPE   H8Y16528   2.179   5.767  10.002  0.6297  1.5157 -1.1808
  149SAPE   C3916529   2.200   5.707   9.798  0.3836  0.0675 -0.1433
  149SAPE   H9X16530   2.230   5.616   9.742 -0.8742 -1.3270  1.3631
  149SAPE   H9Y16531   2.279   5.784   9.780  0.4963 -0.0840 -0.2974
  149SAPE  C31016532   2.065   5.752   9.755 -0.6046 -0.4593 -0.2578
  149SAPE  H10X16533   2.026   5.824   9.830  0.1835  0.7391 -0.9503
  149SAPE  H10Y16534   1.990   5.671   9.755 -1.9351  0.7361 -0.2774
  149SAPE  C31116535   2.067   5.820   9.614  0.1552  0.0642  0.5362
  149SAPE  H11X16536   2.156   5.886   9.602  1.4029 -1.2995  1.8137
  149SAPE  H11Y16537   1.976   5.882   9.608  0.0526  0.0222  1.4930
  149SAPE  C31216538   2.072   5.715   9.501 -0.0192  0.1234 -0.0053
  149SAPE  H12X16539   1.991   5.640   9.514 -1.3909  1.7880  1.6620
  149SAPE  H12Y16540   2.171   5.666   9.509 -0.4077 -0.5913  0.5475
  149SAPE  C31316541   2.055   5.783   9.364 -0.0242  0.3895  0.4737
  149SAPE  H13X16542   2.135   5.857   9.342 -0.3602  0.6010 -0.0561
  149SAPE  H13Y16543   1.956   5.830   9.348 -0.4511 -0.1439  1.4554
  149SAPE  C31416544   2.062   5.666   9.257 -0.2046 -0.0496  0.3974
  149SAPE  H14X16545   1.985   5.589   9.279  0.5129 -0.4519  1.6045
  149SAPE  H14Y16546   2.161   5.615   9.262  0.3542  1.0953  1.7608
  149SAPE  C31516547   2.032   5.711   9.110  0.2852  0.6362  0.3116
  149SAPE  H15X16548   2.105   5.791   9.084  1.4867 -0.2547  0.9110
  149SAPE  H15Y16549   1.929   5.754   9.106  0.0281  0.0927  0.9974
  149SAPE  C31616550   2.044   5.603   8.999 -1.0430  0.3036  0.1199
  149SAPE  H16X16551   1.988   5.511   9.027  1.3347 -0.6250  2.2067
  149SAPE  H16Y16552   2.147   5.566   8.981 -2.2403 -1.9461 -2.8867
  149SAPE  C31716553   2.003   5.653   8.856 -0.6837 -0.0044 -0.3741
  149SAPE  H17X16554   2.055   5.590   8.781  1.7135  1.3708  0.0211
  149SAPE  H17Y16555   2.029   5.762   8.854 -1.0232  0.1522  1.7081
  149SAPE  C31816556   1.850   5.648   8.832 -0.1591 -0.2459 -0.4332
  149SAPE  H18X16557   1.780   5.704   8.898  2.2160 -0.9732  3.0432
  149SAPE  H18Y16558   1.809   5.546   8.820 -1.1810  0.2732 -1.5981
  149SAPE  H18Z16559   1.838   5.693   8.731  0.3318  1.9309  0.4134
  150SAPE     N16560   3.136   5.679  11.029 -0.3161  0.0763  0.5134
  150SAPE   HN116561   3.200   5.724  10.961 -1.8328  2.8856  0.7649
  150SAPE   HN216562   3.047   5.725  11.000  1.0701  1.9463 -1.0822
  150SAPE   HN316563   3.162   5.729  11.117 -0.8644  0.3921  0.5060
  150SAPE   C1216564   3.147   5.525  11.041 -0.6558  0.1980  0.2996
  150SAPE  H12A16565   3.068   5.476  10.980  0.0886 -0.4828 -0.1213
  150SAPE  H12B16566   3.137   5.491  11.146 -0.3014  0.1105  0.3046
  150SAPE   C1116567   3.293   5.488  11.001  0.1647 -0.0042 -0.1679
  150SAPE  H11A16568   3.369   5.544  11.060  0.3602  0.2151 -0.6270
  150SAPE  H11B16569   3.309   5.517  10.895  0.6580  0.0306 -0.0840
  150SAPE     P16570   3.465   5.289  10.974 -0.0508  0.0508 -0.0662
  150SAPE   O1316571   3.575   5.383  11.013  0.3868 -0.0524  0.5225
  150SAPE   O1416572   3.476   5.155  11.031 -0.3522 -0.2736  0.3115
  150SAPE   O1216573   3.322   5.353  11.018 -0.7426  0.0918  0.1564
  150SAPE   O1116574   3.445   5.279  10.815  0.1254  0.3491 -0.0837
  150SAPE    C116575   3.536   5.199  10.742 -0.3812  0.9040 -0.4856
  150SAPE    HA16576   3.563   5.105  10.794 -0.4331  0.7774 -0.6845
  150SAPE    HB16577   3.487   5.176  10.645 -0.3808  0.9382 -0.4938
  150SAPE    C216578   3.675   5.273  10.721  0.3911 -0.1010 -0.0042
  150SAPE    HS16579   3.701   5.287  10.828 -1.9571  2.1957  0.3879
  150SAPE   O2116580   3.644   5.401  10.666 -0.3137  0.2705 -0.3122
  150SAPE   C2116581   3.748   5.482  10.667  0.4587  0.4660 -0.3398
  150SAPE   O2216582   3.847   5.472  10.738 -0.1328 -0.5275 -0.2137
  150SAPE   C2216583   3.724   5.589  10.561 -0.5508 -0.0204 -0.6508
  150SAPE   H2R16584   3.621   5.627  10.576  0.1904  1.6842  0.5698
  150SAPE   H2S16585   3.792   5.676  10.576 -2.7684  1.5160  1.0566
  150SAPE    C316586   3.783   5.185  10.648  1.0384 -0.7289 -0.4958
  150SAPE    HX16587   3.781   5.082  10.689  0.9989 -0.2145  0.8277
  150SAPE    HY16588   3.883   5.223  10.679  0.6354  0.3931 -0.5254
  150SAPE   O3116589   3.783   5.192  10.497 -0.6356 -0.0622  0.2836
  150SAPE   C3116590   3.703   5.107  10.447  0.6102 -0.0573  0.7434
  150SAPE   O3216591   3.628   5.032  10.506  0.3875  0.1724  0.6502
  150SAPE   C3216592   3.706   5.117  10.291  0.2261  0.1875 -0.1832
  150SAPE   H2X16593   3.788   5.191  10.277  2.7469 -0.9675  5.4914
  150SAPE   H2Y16594   3.607   5.153  10.258 -1.0465 -3.3907 -0.6296
  150SAPE   C2316595   3.749   5.524  10.418 -0.1137 -0.1653 -1.0997
  150SAPE   H3R16596   3.678   5.438  10.419 -2.7438  1.8354  1.8120
  150SAPE   H3S16597   3.851   5.481  10.412  0.1173  0.3024 -0.5645
  150SAPE   C2416598   3.723   5.614  10.304 -0.9333 -0.6567  0.3604
  150SAPE   H4R16599   3.621   5.658  10.309 -0.3100  1.1923 -1.5017
  150SAPE   H4S16600   3.736   5.555  10.211  2.7227 -1.1239  1.0086
  150SAPE   C2516601   3.822   5.727  10.297  0.2736 -0.6399  1.2533
  150SAPE   H5R16602   3.842   5.783  10.390  4.8183  0.6327 -0.2390
  150SAPE   C2616603   3.891   5.770  10.186 -0.0231  0.3701 -0.2955
  150SAPE   H6R16604   3.958   5.858  10.195  0.1309  0.2767 -0.5300
  150SAPE   C2716605   3.895   5.705  10.050 -0.6993  0.6852 -0.4619
  150SAPE   H7R16606   3.938   5.603  10.054  0.7722  1.1871 -2.0560
  150SAPE   H7S16607   3.954   5.776   9.987 -2.1714  0.6731 -1.9238
  150SAPE   C2816608   3.771   5.706   9.976  0.1287 -0.1000  0.2988
  150SAPE   H8R16609   3.724   5.805   9.967 -1.4169 -0.7016  1.2832
  150SAPE   C2916610   3.713   5.601   9.912 -0.5129  0.5969 -0.0777
  150SAPE   H9R16611   3.617   5.622   9.862  0.8608  1.1067 -2.6480
  150SAPE  C21016612   3.768   5.461   9.902 -0.6342  0.7616 -0.2130
  150SAPE  H10R16613   3.858   5.447   9.967  1.2777  2.2836 -2.3911
  150SAPE  H10S16614   3.807   5.443   9.800  0.4914 -0.7446  0.4417
  150SAPE  C21116615   3.662   5.355   9.935  0.1894  0.3192  0.3821
  150SAPE  H11R16616   3.600   5.373  10.025 -1.6724  0.2920 -0.8435
  150SAPE  C21216617   3.633   5.237   9.859 -0.0998 -0.1923 -0.0840
  150SAPE  H12R16618   3.552   5.168   9.887  0.5098 -1.7509 -1.9531
  150SAPE  C21316619   3.708   5.176   9.738  0.1092  0.5293  0.2653
  150SAPE  H13R16620   3.815   5.204   9.740  1.5139 -4.0407 -0.3117
  150SAPE  H13S16621   3.667   5.229   9.649 -1.2261  1.8098  1.5778
  150SAPE  C21416622   3.688   5.027   9.727  0.8170  0.4130  0.7994
  150SAPE  H14R16623   3.712   4.979   9.823  1.5874  0.1378  0.4733
  150SAPE  C21516624   3.645   4.952   9.617  0.2995 -0.0663 -0.5757
  150SAPE  H15R16625   3.629   4.846   9.641 -2.6623  0.3596 -0.4067
  150SAPE  C21616626   3.607   4.998   9.482 -1.0682  0.6138  0.3473
  150SAPE  H16R16627   3.572   5.103   9.489  2.0450  1.6660  2.1821
  150SAPE  H16S16628   3.527   4.932   9.441 -1.0780 -0.7214  2.3707
  150SAPE  C21716629   3.721   4.999   9.378  0.0965  0.1486 -0.0920
  150SAPE  H17R16630   3.750   4.892   9.373  3.2602  0.9170 -0.1866
  150SAPE  H17S16631   3.808   5.062   9.405  0.1597  1.8688 -3.7659
  150SAPE  C21816632   3.682   5.048   9.238  0.1951  0.2352 -0.0899
  150SAPE  H18R16633   3.589   4.997   9.205  0.5587 -0.2869 -0.3279
  150SAPE  H18S16634   3.759   5.036   9.159  0.0981  1.2921 -0.3632
  150SAPE  C21916635   3.651   5.202   9.230  0.5140 -0.0076  0.9549
  150SAPE  H19R16636   3.561   5.224   9.292 -0.2899 -4.3001  1.6373
  150SAPE  H19S16637   3.625   5.213   9.123 -1.1309  0.9276  1.4138
  150SAPE  C22016638   3.774   5.289   9.263 -0.9081 -0.1440 -0.0511
  150SAPE  H20R16639   3.800   5.289   9.370  1.5978  0.3213 -0.6099
  150SAPE  H20S16640   3.760   5.396   9.236  0.0881  0.2700  1.0186
  150SAPE  H20T16641   3.870   5.262   9.215 -0.0133  2.8596 -0.1578
  150SAPE   C3316642   3.731   4.977  10.216 -0.0565 -0.4316 -0.5531
  150SAPE   H3X16643   3.801   4.909  10.270  1.1219  1.0877 -0.1155
  150SAPE   H3Y16644   3.774   5.003  10.117 -1.6302 -2.3935 -1.8342
  150SAPE   C3416645   3.597   4.904  10.188 -0.0561 -0.2392  0.9823
  150SAPE   H4X16646   3.530   4.976  10.135  2.0223  0.5989 -0.6758
  150SAPE   H4Y16647   3.560   4.875  10.289 -1.6055 -0.5705  0.3475
  150SAPE   C3516648   3.618   4.772  10.109 -0.8835 -0.1946  0.1177
  150SAPE   H5X16649   3.714   4.728  10.143 -0.5217  0.0455 -0.5732
  150SAPE   H5Y16650   3.647   4.805  10.007 -1.2594  1.4835  0.5230
  150SAPE   C3616651   3.498   4.680  10.115 -0.1566  0.2100 -0.3129
  150SAPE   H6X16652   3.404   4.734  10.090 -0.7985 -0.4531  0.6148
  150SAPE   H6Y16653   3.488   4.650  10.221 -0.6637  0.2334 -0.3565
  150SAPE   C3716654   3.515   4.556  10.026 -0.1519 -0.2459 -0.2513
  150SAPE   H7X16655   3.437   4.478  10.040  0.5249 -0.5450  2.1808
  150SAPE   H7Y16656   3.616   4.513  10.042  0.9732  1.5846 -1.9979
  150SAPE   C3816657   3.522   4.581   9.878 -0.6274  0.9118 -0.1247
  150SAPE   H8X16658   3.560   4.487   9.832  0.2440  0.1687  1.9637
  150SAPE   H8Y16659   3.594   4.662   9.854 -0.4342  0.4634 -1.1353
  150SAPE   C3916660   3.383   4.618   9.827  0.5779 -0.2854  0.5325
  150SAPE   H9X16661   3.346   4.710   9.877 -0.8814 -0.2974 -0.4571
  150SAPE   H9Y16662   3.312   4.533   9.837  1.3890 -1.3622 -1.9645
  150SAPE  C31016663   3.377   4.625   9.672 -0.6060 -0.0406 -0.4106
  150SAPE  H10X16664   3.421   4.726   9.655 -0.3349 -0.2228 -0.8230
  150SAPE  H10Y16665   3.274   4.644   9.634 -0.0563  1.7749 -1.1097
  150SAPE  C31116666   3.460   4.516   9.595  0.2558  0.3734  0.0439
  150SAPE  H11X16667   3.443   4.418   9.645 -1.2894  1.8727  2.6889
  150SAPE  H11Y16668   3.563   4.555   9.596 -0.5020  2.5732 -1.5316
  150SAPE  C31216669   3.424   4.503   9.444  0.1408 -1.3123 -0.3735
  150SAPE  H12X16670   3.320   4.474   9.419 -0.1947 -1.7688  1.4234
  150SAPE  H12Y16671   3.497   4.428   9.405  1.3287 -0.0893 -0.5523
  150SAPE  C31316672   3.453   4.631   9.359 -0.3952 -0.2033  0.0773
  150SAPE  H13X16673   3.555   4.671   9.376 -0.6707  0.3791  0.3856
  150SAPE  H13Y16674   3.372   4.705   9.378 -0.2218 -0.2759  1.1234
  150SAPE  C31416675   3.462   4.599   9.208 -0.2222  0.2254  0.2240
  150SAPE  H14X16676   3.356   4.576   9.186  0.1183 -0.2211 -1.0916
  150SAPE  H14Y16677   3.524   4.511   9.180 -0.7112  0.8572 -3.3101
  150SAPE  C31516678   3.499   4.721   9.126 -0.0273 -0.3330 -0.0143
  150SAPE  H15X16679   3.610   4.718   9.120  0.1303 -2.1533  2.2780
  150SAPE  H15Y16680   3.477   4.820   9.172 -2.2449 -0.1648 -1.3127
  150SAPE  C31616681   3.431   4.729   8.985 -0.1841 -0.2350  0.3909
  150SAPE  H16X16682   3.412   4.627   8.945  2.8573 -1.7052  2.3104
  150SAPE  H16Y16683   3.490   4.793   8.915 -2.3972 -0.0328 -1.3980
  150SAPE  C31716684   3.284   4.784   8.991  1.8635 -0.4711  0.8655
  150SAPE  H17X16685   3.296   4.894   9.008 -0.1642  0.6249 -3.4260
  150SAPE  H17Y16686   3.233   4.747   9.082 -1.0101  2.0115  0.4110
  150SAPE  C31816687   3.195   4.773   8.868  0.5218 -0.1436 -0.6157
  150SAPE  H18X16688   3.239   4.822   8.778 -0.3821 -1.0177 -1.5712
  150SAPE  H18Y16689   3.097   4.822   8.887 -1.0164 -3.3578  0.4082
  150SAPE  H18Z16690   3.157   4.672   8.840 -0.6980  0.4323 -1.1137
  151SAPE     N16691   0.384   2.344  10.400  0.3397  0.1074  0.2845
  151SAPE   HN116692   0.420   2.249  10.422  1.0066  0.5714  1.2475
  151SAPE   HN216693   0.365   2.383  10.494 -3.4642 -2.5033  0.8727
  151SAPE   HN316694   0.290   2.337  10.356  0.9717 -0.9460 -0.9874
  151SAPE   C1216695   0.475   2.416  10.302 -0.3507  0.1830 -0.4022
  151SAPE  H12A16696   0.440   2.389  10.200  1.3656 -0.5288 -0.8471
  151SAPE  H12B16697   0.577   2.375  10.323  0.0772  0.0519 -2.5193
  151SAPE   C1116698   0.473   2.574  10.309 -0.3136  0.5879  0.0825
  151SAPE  H11A16699   0.365   2.596  10.297 -1.1263 -2.0710  1.6265
  151SAPE  H11B16700   0.521   2.618  10.219 -1.3918 -0.9004 -1.2825
  151SAPE     P16701   0.447   2.662  10.544  0.2324 -0.0660 -0.2230
  151SAPE   O1316702   0.367   2.543  10.588  0.3896  0.1262  0.3325
  151SAPE   O1416703   0.532   2.715  10.650 -0.7174 -0.6495  0.3854
  151SAPE   O1216704   0.541   2.624  10.425  0.1028 -0.1116 -0.2953
  151SAPE   O1116705   0.351   2.776  10.490  0.0564  0.3271  0.7014
  151SAPE    C116706   0.397   2.894  10.426 -1.4021  0.1699  0.4414
  151SAPE    HA16707   0.504   2.917  10.445 -1.1853  0.8496 -1.3639
  151SAPE    HB16708   0.393   2.874  10.317  3.3732 -2.6934  0.5241
  151SAPE    C216709   0.313   3.021  10.459  0.5136 -0.2675 -0.0497
  151SAPE    HS16710   0.295   3.032  10.568 -1.7099  1.2830 -0.4996
  151SAPE   O2116711   0.194   2.991  10.401  1.0417  0.5544 -0.8997
  151SAPE   C2116712   0.092   3.080  10.420  0.7087  0.4492 -0.1165
  151SAPE   O2216713   0.094   3.171  10.497 -0.3857  0.1802  0.0061
  151SAPE   C2216714  -0.032   3.046  10.337 -0.0024  0.5898 -0.0581
  151SAPE   H2R16715  -0.083   2.953  10.369  1.7686 -0.3464  0.1770
  151SAPE   H2S16716  -0.100   3.132  10.355 -0.8696 -0.3466  1.3031
  151SAPE    C316717   0.382   3.150  10.397  0.1095  0.1935 -0.4525
  151SAPE    HX16718   0.476   3.168  10.454 -0.2437 -0.1144  0.2279
  151SAPE    HY16719   0.310   3.232  10.419 -1.4259 -0.7831 -1.6353
  151SAPE   O3116720   0.404   3.133  10.252  0.3478  1.0651  0.2862
  151SAPE   C3116721   0.497   3.210  10.202  0.1771  0.0587  0.7851
  151SAPE   O3216722   0.559   3.291  10.266 -0.2463 -0.5626 -0.1261
  151SAPE   C3216723   0.518   3.176  10.053 -0.6045 -0.2413  0.2618
  151SAPE   H2X16724   0.420   3.137  10.020  0.3492 -1.2971 -1.4879
  151SAPE   H2Y16725   0.586   3.088  10.051 -0.7554 -0.3768  0.8037
  151SAPE   C2316726   0.007   3.046  10.183 -0.0057 -0.2217 -0.0372
  151SAPE   H3R16727   0.054   2.951  10.150  1.5290  1.6718 -3.8870
  151SAPE   H3S16728   0.086   3.123  10.172 -0.1667  0.1997  1.4815
  151SAPE   C2416729  -0.105   3.073  10.076  0.5066 -1.0516 -0.1602
  151SAPE   H4R16730  -0.069   3.080   9.971 -1.0179 -0.6647 -0.6794
  151SAPE   H4S16731  -0.159   3.167  10.098 -0.2222 -1.3991 -0.4347
  151SAPE   C2516732  -0.202   2.959  10.101  0.8499  0.6087  0.1137
  151SAPE   H5R16733  -0.251   2.955  10.200 -1.8327 -0.6459 -1.1693
  151SAPE   C2616734  -0.248   2.869  10.010 -0.2279 -0.8181  0.6230
  151SAPE   H6R16735  -0.306   2.779  10.034 -0.7091 -1.4563 -2.4980
  151SAPE   C2716736  -0.211   2.866   9.858 -0.8685 -0.0365 -0.0096
  151SAPE   H7R16737  -0.122   2.800   9.852 -0.1674  0.8521  0.2547
  151SAPE   H7S16738  -0.185   2.968   9.820 -1.4264 -0.5026 -1.7238
  151SAPE   C2816739  -0.324   2.830   9.773  0.1092  0.0363  0.4919
  151SAPE   H8R16740  -0.418   2.879   9.801 -0.3103 -0.8437  0.6691
  151SAPE   C2916741  -0.323   2.738   9.668  0.4684  0.4557 -0.4280
  151SAPE   H9R16742  -0.422   2.730   9.622 -0.3789  0.7290  1.2909
  151SAPE  C21016743  -0.221   2.644   9.616  0.0988 -0.6582  0.0754
  151SAPE  H10R16744  -0.261   2.544   9.643 -3.1835  0.5274 -0.0773
  151SAPE  H10S16745  -0.127   2.655   9.675 -0.8619 -0.5315  1.6385
  151SAPE  C21116746  -0.188   2.659   9.470  0.0965 -0.7308  0.0525
  151SAPE  H11R16747  -0.160   2.563   9.424  2.4859 -0.9246  1.7092
  151SAPE  C21216748  -0.198   2.763   9.383 -0.8013  0.4790 -0.0749
  151SAPE  H12R16749  -0.174   2.727   9.282  0.4759  0.1289  0.3386
  151SAPE  C21316750  -0.236   2.909   9.393 -0.1061  0.4224 -0.2907
  151SAPE  H13R16751  -0.203   2.960   9.486  0.4827  0.2857 -0.4191
  151SAPE  H13S16752  -0.346   2.919   9.391 -0.2308 -0.8443 -0.9186
  151SAPE  C21416753  -0.169   2.993   9.289  0.1134  0.1021  0.1225
  151SAPE  H14R16754  -0.073   3.041   9.313  0.2550  0.2950 -0.7959
  151SAPE  C21516755  -0.224   3.024   9.168 -0.6335 -0.3083 -0.4062
  151SAPE  H15R16756  -0.161   3.086   9.102 -0.2192 -2.3575 -2.0336
  151SAPE  C21616757  -0.358   2.983   9.111  0.0325 -0.9221  0.0872
  151SAPE  H16R16758  -0.443   3.052   9.131  1.0979  0.9641 -1.5379
  151SAPE  H16S16759  -0.369   2.880   9.152  3.6942 -1.3043  0.4825
  151SAPE  C21716760  -0.366   2.963   8.955  0.3092 -1.3599  0.2702
  151SAPE  H17R16761  -0.458   2.912   8.920  0.4687 -0.7874 -1.0160
  151SAPE  H17S16762  -0.292   2.886   8.922 -0.4385 -1.4857 -1.1875
  151SAPE  C21816763  -0.353   3.099   8.885  0.5423 -0.5234 -0.0063
  151SAPE  H18R16764  -0.254   3.148   8.898  0.4388  0.6675 -3.0380
  151SAPE  H18S16765  -0.436   3.168   8.912  0.8321  0.2438 -1.0360
  151SAPE  C21916766  -0.361   3.078   8.730 -0.6072  0.3233 -0.1262
  151SAPE  H19R16767  -0.430   2.994   8.705 -0.3684  0.0005  0.2719
  151SAPE  H19S16768  -0.263   3.028   8.711 -1.7219 -1.2470 -2.1676
  151SAPE  C22016769  -0.380   3.211   8.656  0.3638 -0.0503 -0.3032
  151SAPE  H20R16770  -0.486   3.240   8.669  1.4118  3.1830  2.1981
  151SAPE  H20S16771  -0.361   3.193   8.548 -3.4811  1.5795 -1.4241
  151SAPE  H20T16772  -0.319   3.289   8.705  0.4996 -0.6328  0.4635
  151SAPE   C3316773   0.559   3.287   9.956 -0.0267  0.8207 -0.4030
  151SAPE   H3X16774   0.577   3.227   9.864  2.4994  0.3607  0.2893
  151SAPE   H3Y16775   0.658   3.335   9.974 -0.9494  2.5061  0.2748
  151SAPE   C3416776   0.447   3.383   9.929  0.5851 -0.5679  0.2641
  151SAPE   H4X16777   0.430   3.437  10.025  0.1649  0.1494 -0.2009
  151SAPE   H4Y16778   0.356   3.329   9.898  2.1587 -2.4894 -1.3013
  151SAPE   C3516779   0.474   3.479   9.821  0.0066 -0.0949  0.4648
  151SAPE   H5X16780   0.576   3.523   9.824  0.2715 -0.7267  1.7038
  151SAPE   H5Y16781   0.402   3.563   9.823  0.5753  0.4366  3.0611
  151SAPE   C3616782   0.463   3.419   9.679  0.2841  0.6352  0.1101
  151SAPE   H6X16783   0.363   3.369   9.680 -0.1189  1.3773  2.4194
  151SAPE   H6Y16784   0.516   3.323   9.661 -1.0473  0.2667 -2.3518
  151SAPE   C3716785   0.476   3.506   9.557 -1.1822 -0.4317 -0.2712
  151SAPE   H7X16786   0.572   3.562   9.561 -0.9553 -0.8812  1.0270
  151SAPE   H7Y16787   0.397   3.584   9.546 -1.1789 -0.5379 -1.0900
  151SAPE   C3816788   0.495   3.429   9.430 -0.3222  0.0149  0.7763
  151SAPE   H8X16789   0.411   3.359   9.408  0.8143 -0.9723 -0.6484
  151SAPE   H8Y16790   0.589   3.371   9.436 -0.8336 -1.0346 -0.7726
  151SAPE   C3916791   0.501   3.524   9.308 -0.0558 -0.7557  0.2051
  151SAPE   H9X16792   0.592   3.588   9.320 -1.7119  1.3969  2.1129
  151SAPE   H9Y16793   0.413   3.591   9.310  0.4381 -0.0078 -1.2098
  151SAPE  C31016794   0.512   3.447   9.176  0.0519  0.8348 -0.3634
  151SAPE  H10X16795   0.447   3.357   9.186  0.9699  0.2889  1.0292
  151SAPE  H10Y16796   0.616   3.413   9.156  0.0456  1.4535 -1.5566
  151SAPE  C31116797   0.487   3.531   9.048 -0.1824  0.0139  0.1920
  151SAPE  H11X16798   0.535   3.631   9.055  0.7176 -0.1767 -2.2760
  151SAPE  H11Y16799   0.377   3.546   9.047 -0.1036  0.9659  2.1114
  151SAPE  C31216800   0.537   3.476   8.904 -0.0352  0.0187 -0.1479
  151SAPE  H12X16801   0.500   3.373   8.883 -0.7865 -0.1495  1.8465
  151SAPE  H12Y16802   0.647   3.475   8.920 -0.4432 -2.3117  4.3694
  151SAPE  C31316803   0.510   3.565   8.787 -0.2503 -0.0131 -0.0798
  151SAPE  H13X16804   0.578   3.653   8.797  0.7436 -0.8904  1.1780
  151SAPE  H13Y16805   0.405   3.601   8.791 -1.3678 -3.1561  0.9503
  151SAPE  C31416806   0.541   3.496   8.652  0.3254 -0.1293  0.5447
  151SAPE  H14X16807   0.501   3.568   8.578 -2.4386  2.2026  3.9625
  151SAPE  H14Y16808   0.493   3.395   8.648  0.5429 -0.1959 -1.6395
  151SAPE  C31516809   0.688   3.470   8.622  0.3296 -0.6080  0.0420
  151SAPE  H15X16810   0.735   3.406   8.699  0.7096  0.7131  0.9542
  151SAPE  H15Y16811   0.742   3.567   8.617  0.4868 -0.6724  0.4914
  151SAPE  C31616812   0.697   3.408   8.479 -0.6131 -0.4579  0.3221
  151SAPE  H16X16813   0.670   3.487   8.406 -0.8655  0.8224  1.7657
  151SAPE  H16Y16814   0.608   3.342   8.466  0.3392 -1.7546  0.1435
  151SAPE  C31716815   0.833   3.340   8.453 -0.1447 -0.3741  0.0613
  151SAPE  H17X16816   0.859   3.258   8.524 -0.9118 -0.2756  0.4537
  151SAPE  H17Y16817   0.911   3.419   8.459  0.0465 -0.5132 -0.4284
  151SAPE  C31816818   0.829   3.289   8.306 -0.2398 -0.7074  0.3724
  151SAPE  H18X16819   0.801   3.362   8.227 -3.3360 -2.4824 -0.3857
  151SAPE  H18Y16820   0.742   3.220   8.301 -2.2499  1.7631 -2.1861
  151SAPE  H18Z16821   0.915   3.224   8.277 -0.8868 -1.9252  1.0876
  152SAPE     N16822   1.513   0.822  10.666 -0.4385 -0.2332 -0.0429
  152SAPE   HN116823   1.438   0.891  10.687  1.6628  2.1282  0.2239
  152SAPE   HN216824   1.481   0.764  10.586  0.9972 -1.0890 -0.0260
  152SAPE   HN316825   1.533   0.775  10.756 -0.2834 -0.0201  0.0363
  152SAPE   C1216826   1.631   0.915  10.621  0.6500  0.3437 -0.5627
  152SAPE  H12A16827   1.606   0.951  10.519 -0.8861 -1.7583 -0.9999
  152SAPE  H12B16828   1.724   0.855  10.611 -0.3395 -1.8471  2.0622
  152SAPE   C1116829   1.648   1.033  10.718  0.1211  1.0580 -0.2685
  152SAPE  H11A16830   1.727   1.089  10.663  1.2357 -2.4214 -2.5700
  152SAPE  H11B16831   1.690   0.984  10.808 -1.4903 -2.7339 -1.3745
  152SAPE     P16832   1.516   1.210  10.836 -0.3691  0.5913  0.5460
  152SAPE   O1316833   1.431   1.165  10.946  0.0759  0.5164  0.1561
  152SAPE   O1416834   1.641   1.282  10.870 -0.1938  0.0076 -0.3859
  152SAPE   O1216835   1.533   1.094  10.737  1.1543 -0.7456 -0.7050
  152SAPE   O1116836   1.426   1.302  10.748  0.7145 -0.3358  0.2219
  152SAPE    C116837   1.462   1.361  10.625  0.0666  0.5969  0.3000
  152SAPE    HA16838   1.409   1.459  10.623 -0.4993  0.2915  0.3955
  152SAPE    HB16839   1.567   1.399  10.616  0.0932  0.5297  0.3323
  152SAPE    C216840   1.408   1.270  10.513 -0.7549  0.2317  0.2126
  152SAPE    HS16841   1.466   1.175  10.520  1.0175  1.0443 -2.1993
  152SAPE   O2116842   1.427   1.321  10.378  0.2864 -0.4730 -0.3658
  152SAPE   C2116843   1.550   1.335  10.339 -0.2395 -0.7470  0.1097
  152SAPE   O2216844   1.645   1.286  10.396  0.3856 -0.1214  0.4759
  152SAPE   C2216845   1.542   1.423  10.210  0.2924 -0.4998 -0.3960
  152SAPE   H2R16846   1.457   1.384  10.149 -0.9736 -0.2270  1.1250
  152SAPE   H2S16847   1.527   1.525  10.249 -0.6011 -0.9548  0.4965
  152SAPE    C316848   1.263   1.225  10.551 -0.6026 -0.1418  0.7244
  152SAPE    HX16849   1.213   1.321  10.577  0.1345  1.1087 -2.0880
  152SAPE    HY16850   1.252   1.180  10.652 -1.8691 -0.1537  0.5968
  152SAPE   O3116851   1.196   1.146  10.452  0.4358 -0.0037  0.2982
  152SAPE   C3116852   1.252   1.020  10.455  0.0717  0.4695 -0.3488
  152SAPE   O3216853   1.333   0.981  10.539  0.0274  0.4471  0.3859
  152SAPE   C3216854   1.193   0.935  10.349  0.0469 -0.1275  0.0505
  152SAPE   H2X16855   1.089   0.967  10.327  0.1806 -0.4183 -1.0702
  152SAPE   H2Y16856   1.177   0.838  10.401  2.3001 -1.1138 -0.9914
  152SAPE   C2316857   1.681   1.421  10.140  0.1655  0.6592  0.4954
  152SAPE   H3R16858   1.765   1.442  10.211  0.3745  0.0023  0.4490
  152SAPE   H3S16859   1.676   1.504  10.067  1.3596  0.8575  0.6143
  152SAPE   C2416860   1.708   1.289  10.058 -0.7636 -0.6744  0.6924
  152SAPE   H4R16861   1.733   1.214  10.136 -0.0796  1.6587  2.8574
  152SAPE   H4S16862   1.795   1.303   9.990 -2.7099  1.0795 -1.5856
  152SAPE   C2516863   1.595   1.247   9.979  0.2158 -0.1340  0.6378
  152SAPE   H5R16864   1.520   1.196  10.041  2.4481 -0.2815  3.4038
  152SAPE   C2616865   1.574   1.287   9.858 -0.0319 -0.9323  0.1093
  152SAPE   H6R16866   1.481   1.257   9.809  0.9651 -0.5096 -2.1886
  152SAPE   C2716867   1.646   1.371   9.751  0.2431 -0.1649  0.6608
  152SAPE   H7R16868   1.742   1.403   9.798  0.6954 -1.3028  0.5384
  152SAPE   H7S16869   1.588   1.461   9.722 -0.5064 -0.1572  2.0919
  152SAPE   C2816870   1.698   1.293   9.632 -0.9188  0.4862  0.0254
  152SAPE   H8R16871   1.773   1.218   9.662 -2.0403 -0.7155 -0.0898
  152SAPE   C2916872   1.668   1.299   9.499 -0.0458  0.1020  0.0865
  152SAPE   H9R16873   1.719   1.226   9.435 -1.0441 -0.3184 -0.2432
  152SAPE  C21016874   1.573   1.386   9.431  0.0310  0.2704 -0.4186
  152SAPE  H10R16875   1.614   1.489   9.418  1.7153 -0.4584 -1.1531
  152SAPE  H10S16876   1.482   1.398   9.493 -0.3738  1.9385 -1.2558
  152SAPE  C21116877   1.524   1.335   9.297  0.2791  0.0312  0.0302
  152SAPE  H11R16878   1.416   1.318   9.284  0.3389  0.6165 -1.3057
  152SAPE  C21216879   1.595   1.324   9.180 -0.4242 -0.3400  0.2294
  152SAPE  H12R16880   1.549   1.294   9.085  1.0416  3.0714 -1.7398
  152SAPE  C21316881   1.741   1.358   9.169  0.0539 -0.0885  0.1031
  152SAPE  H13R16882   1.801   1.267   9.192  0.9455  0.3147 -0.5719
  152SAPE  H13S16883   1.773   1.427   9.250 -2.2375  0.9298  0.2133
  152SAPE  C21416884   1.774   1.439   9.045  0.2304 -0.1164  0.3906
  152SAPE  H14R16885   1.753   1.547   9.052  0.3163 -0.1941  2.7343
  152SAPE  C21516886   1.820   1.385   8.924  0.3925 -0.3739  0.2066
  152SAPE  H15R16887   1.845   1.454   8.843  1.1262 -0.0671  0.6858
  152SAPE  C21616888   1.847   1.241   8.897 -0.9312  0.5400 -0.4466
  152SAPE  H16R16889   1.819   1.190   8.991 -1.8176  2.5825  0.4728
  152SAPE  H16S16890   1.955   1.219   8.883 -0.5685  0.9002  1.4278
  152SAPE  C21716891   1.771   1.178   8.775  0.4036  0.0319 -0.0245
  152SAPE  H17R16892   1.810   1.223   8.681  0.3179  1.1308  0.4558
  152SAPE  H17S16893   1.665   1.211   8.773  0.1044 -0.8981 -0.1265
  152SAPE  C21816894   1.760   1.025   8.767  0.5563 -0.1212  1.0316
  152SAPE  H18R16895   1.669   1.002   8.709  1.0923 -1.7546  0.7951
  152SAPE  H18S16896   1.744   1.001   8.874 -2.1796  2.3922  1.3160
  152SAPE  C21916897   1.884   0.956   8.716 -0.2538 -0.4341 -0.4744
  152SAPE  H19R16898   1.970   0.995   8.776 -0.4647  1.5506 -1.3598
  152SAPE  H19S16899   1.913   1.001   8.619  0.8379 -0.2481 -0.0794
  152SAPE  C22016900   1.871   0.803   8.703 -0.1417  0.1777 -0.0133
  152SAPE  H20R16901   1.966   0.746   8.696 -1.1018 -1.5175  0.4237
  152SAPE  H20S16902   1.810   0.775   8.615  0.0808 -0.2105 -0.0457
  152SAPE  H20T16903   1.815   0.769   8.792 -0.4717  1.7567  0.4245
  152SAPE   C3316904   1.282   0.914  10.224 -0.0210  0.8470  0.3884
  152SAPE   H3X16905   1.248   0.815  10.187 -0.8046  0.9644  0.7815
  152SAPE   H3Y16906   1.388   0.902  10.253 -0.1127 -0.5459  0.2187
  152SAPE   C3416907   1.257   1.016  10.115  0.1259  0.1534 -0.2590
  152SAPE   H4X16908   1.296   1.118  10.137 -0.3764  0.4569 -0.7364
  152SAPE   H4Y16909   1.146   1.017  10.117  0.1090 -0.6884  1.6457
  152SAPE   C3516910   1.317   0.977   9.972 -0.7499 -0.1063 -0.5922
  152SAPE   H5X16911   1.294   0.868   9.963  0.1141 -0.2101 -1.8310
  152SAPE   H5Y16912   1.426   0.999   9.977 -0.9384  0.6205  1.3139
  152SAPE   C3616913   1.246   1.051   9.857  0.4510 -0.1355  0.5725
  152SAPE   H6X16914   1.256   1.161   9.872  0.3710 -0.1081  0.4266
  152SAPE   H6Y16915   1.137   1.029   9.856 -0.3221  3.1426  0.6960
  152SAPE   C3716916   1.297   1.024   9.720  0.4591 -0.3112 -0.1685
  152SAPE   H7X16917   1.276   0.917   9.699 -0.4163 -0.2033  0.1608
  152SAPE   H7Y16918   1.406   1.046   9.713  0.1601  1.4200  0.3225
  152SAPE   C3816919   1.231   1.113   9.616  0.0557 -0.8437  0.0632
  152SAPE   H8X16920   1.264   1.219   9.620  1.8720 -1.3454 -0.3892
  152SAPE   H8Y16921   1.121   1.098   9.614 -0.0418 -0.0711 -1.1304
  152SAPE   C3916922   1.276   1.055   9.481  0.1519 -0.1451  0.8621
  152SAPE   H9X16923   1.254   0.947   9.478  0.8648 -0.2792  0.0828
  152SAPE   H9Y16924   1.385   1.071   9.464  0.1008 -0.3078  0.3637
  152SAPE  C31016925   1.210   1.130   9.367  1.2932 -0.1685 -0.2295
  152SAPE  H10X16926   1.242   1.236   9.367  0.5485  0.1103 -2.1029
  152SAPE  H10Y16927   1.101   1.128   9.391  1.4204  3.6267  1.2921
  152SAPE  C31116928   1.222   1.067   9.226 -0.2396 -0.5440  0.0908
  152SAPE  H11X16929   1.183   1.139   9.150  0.2452  0.2675  0.5959
  152SAPE  H11Y16930   1.152   0.981   9.224 -0.3734 -0.4491  0.5794
  152SAPE  C31216931   1.361   1.024   9.178  0.0189 -0.5479 -0.6503
  152SAPE  H12X16932   1.421   0.989   9.265 -2.5253  1.6020  2.2339
  152SAPE  H12Y16933   1.413   1.108   9.128  0.1913 -1.0949 -1.4056
  152SAPE  C31316934   1.351   0.918   9.075  0.2365  0.8911 -0.0452
  152SAPE  H13X16935   1.294   0.960   8.990 -1.4293  1.1069  1.1190
  152SAPE  H13Y16936   1.299   0.831   9.120 -1.6948  1.5751 -0.8528
  152SAPE  C31416937   1.485   0.890   9.015  0.1616  0.0915  0.5459
  152SAPE  H14X16938   1.564   0.866   9.089 -1.9896 -1.7894  2.3756
  152SAPE  H14Y16939   1.512   0.990   8.975 -1.3698  0.9016  1.4430
  152SAPE  C31516940   1.486   0.791   8.896  0.3260  0.1134 -0.2539
  152SAPE  H15X16941   1.587   0.774   8.854 -0.3712 -1.0023 -1.5650
  152SAPE  H15Y16942   1.430   0.831   8.809  0.6326  0.6945 -0.1856
  152SAPE  C31616943   1.413   0.654   8.934 -0.1875  0.0153 -0.0385
  152SAPE  H16X16944   1.304   0.675   8.944 -0.0418  0.3581  0.8539
  152SAPE  H16Y16945   1.457   0.635   9.034 -1.0198  0.2791  0.3848
  152SAPE  C31716946   1.431   0.546   8.832  0.2179  0.4379 -0.2737
  152SAPE  H17X16947   1.536   0.531   8.797 -0.1514  1.1046 -1.7657
  152SAPE  H17Y16948   1.386   0.587   8.739  2.3812 -0.8546 -1.9858
  152SAPE  C31816949   1.360   0.416   8.868  0.3430  0.1819  0.3604
  152SAPE  H18X16950   1.250   0.428   8.864  0.4515  0.9275 -1.1607
  152SAPE  H18Y16951   1.388   0.383   8.970  1.1430 -2.1052 -0.5396
  152SAPE  H18Z16952   1.396   0.340   8.795 -0.7195  0.3455 -0.3561
  153SAPE     N16953   2.229   3.267  10.798  0.3471  0.1627 -0.2629
  153SAPE   HN116954   2.143   3.253  10.856  0.0914 -1.1962 -0.9233
  153SAPE   HN216955   2.227   3.367  10.769  1.7405  0.0125 -0.9398
  153SAPE   HN316956   2.218   3.207  10.714 -0.8549  2.3080 -1.7252
  153SAPE   C1216957   2.357   3.259  10.865 -0.4050 -0.0243  0.3781
  153SAPE  H12A16958   2.429   3.216  10.792 -2.7037 -1.1424 -1.3676
  153SAPE  H12B16959   2.346   3.183  10.945  0.7077 -0.6205 -0.0100
  153SAPE   C1116960   2.405   3.396  10.917 -0.2857 -0.3131  0.3886
  153SAPE  H11A16961   2.515   3.407  10.928  0.0844  1.5597 -3.3483
  153SAPE  H11B16962   2.352   3.401  11.014  0.6456  1.8507  0.8578
  153SAPE     P16963   2.427   3.648  10.836  0.1304 -0.0696  0.4006
  153SAPE   O1316964   2.320   3.741  10.802 -0.7301 -0.0282 -0.4238
  153SAPE   O1416965   2.478   3.670  10.975  0.0437  0.6297 -0.1393
  153SAPE   O1216966   2.371   3.499  10.823  0.4513  0.6572  0.1690
  153SAPE   O1116967   2.542   3.658  10.737 -0.0266 -0.3593 -0.4322
  153SAPE    C116968   2.637   3.562  10.689 -0.1245 -0.5814 -0.2293
  153SAPE    HA16969   2.702   3.623  10.621 -0.2701 -0.7872 -0.5544
  153SAPE    HB16970   2.691   3.526  10.779  0.0997  0.8472  0.2310
  153SAPE    C216971   2.582   3.441  10.601  0.1465 -0.9933  0.2049
  153SAPE    HS16972   2.525   3.370  10.665 -0.0263 -1.2087 -0.1813
  153SAPE   O2116973   2.689   3.388  10.524 -0.0159  0.0507  0.3830
  153SAPE   C2116974   2.738   3.279  10.585 -0.5152 -0.3710  0.2780
  153SAPE   O2216975   2.711   3.233  10.689  0.7402  0.4283 -0.0170
  153SAPE   C2216976   2.833   3.218  10.480  0.5851 -0.4755 -0.4001
  153SAPE   H2R16977   2.832   3.107  10.483  0.2646 -0.5063 -1.2133
  153SAPE   H2S16978   2.800   3.239  10.376  0.3622 -0.1833 -0.2742
  153SAPE    C316979   2.479   3.495  10.492  0.0558 -0.9895  0.3930
  153SAPE    HX16980   2.525   3.583  10.443 -1.7384 -0.0456  0.3359
  153SAPE    HY16981   2.390   3.526  10.549  0.2963  0.2923  0.1040
  153SAPE   O3116982   2.435   3.401  10.386  0.6584  0.0093 -0.1321
  153SAPE   C3116983   2.338   3.311  10.419 -0.5031  0.2664 -0.1516
  153SAPE   O3216984   2.290   3.288  10.530 -0.3335 -0.0025 -0.5409
  153SAPE   C3216985   2.309   3.230  10.296 -0.1435  0.2706  0.0989
  153SAPE   H2X16986   2.401   3.238  10.235 -0.3591 -0.1700 -0.2847
  153SAPE   H2Y16987   2.221   3.262  10.236  3.3222  1.8365 -4.6855
  153SAPE   C2316988   2.979   3.259  10.504  0.1398 -0.5053  0.1357
  153SAPE   H3R16989   3.031   3.179  10.561  0.5694 -0.9065 -0.7863
  153SAPE   H3S16990   2.985   3.359  10.551 -1.1365 -0.0206 -0.6938
  153SAPE   C2416991   3.059   3.279  10.375  0.0998  0.3272  0.1678
  153SAPE   H4R16992   3.155   3.331  10.397  0.6434 -1.3157  1.8933
  153SAPE   H4S16993   3.001   3.345  10.306  1.4225  1.3102 -0.0488
  153SAPE   C2516994   3.084   3.147  10.311 -0.5187 -0.0336  0.2349
  153SAPE   H5R16995   3.081   3.057  10.375  1.5811 -1.7596 -1.9262
  153SAPE   C2616996   3.116   3.127  10.181 -0.7848  1.0198  0.4215
  153SAPE   H6R16997   3.107   3.025  10.142 -0.5010  1.5472 -1.1194
  153SAPE   C2716998   3.126   3.234  10.069 -0.4259  0.2138 -0.1743
  153SAPE   H7R16999   3.214   3.292  10.101 -0.6883 -0.5522  2.1043
  153SAPE   H7S17000   3.037   3.301  10.064 -0.0875  0.6444 -0.4775
  153SAPE   C2817001   3.150   3.176   9.935  0.1336  0.0214  0.4682
  153SAPE   H8R17002   3.255   3.149   9.917 -0.2419 -1.1343 -0.0913
  153SAPE   C2917003   3.063   3.174   9.826  0.4914  0.5426 -0.2991
  153SAPE   H9R17004   3.094   3.116   9.738 -0.4606 -0.1177 -0.2181
  153SAPE  C21017005   2.927   3.223   9.822  0.0815  0.3353  0.5946
  153SAPE  H10R17006   2.874   3.187   9.913 -2.0404 -2.4680 -1.5728
  153SAPE  H10S17007   2.869   3.171   9.743 -0.8522  0.5060  1.1475
  153SAPE  C21117008   2.919   3.370   9.798 -0.4039  0.5596 -0.5936
  153SAPE  H11R17009   2.993   3.429   9.854  1.1624 -0.4521 -1.5358
  153SAPE  C21217010   2.836   3.435   9.718 -0.0295  0.4008  1.2342
  153SAPE  H12R17011   2.839   3.544   9.708 -1.9119  0.3426 -0.9532
  153SAPE  C21317012   2.727   3.366   9.645  0.1204  0.3020 -0.3860
  153SAPE  H13R17013   2.698   3.268   9.690 -0.0736  1.0398  1.1811
  153SAPE  H13S17014   2.770   3.331   9.549  0.2360  0.1438 -0.2799
  153SAPE  C21417015   2.607   3.450   9.620  0.7342 -0.0949  0.0319
  153SAPE  H14R17016   2.592   3.527   9.697  1.2665 -0.8561  0.9173
  153SAPE  C21517017   2.522   3.434   9.516 -0.0627 -0.5256 -0.1363
  153SAPE  H15R17018   2.428   3.491   9.520 -0.4772 -1.2464  0.5621
  153SAPE  C21617019   2.531   3.336   9.399 -0.5237 -0.2933 -0.9671
  153SAPE  H16R17020   2.436   3.281   9.379 -2.0729  2.6559 -2.4087
  153SAPE  H16S17021   2.608   3.259   9.421 -0.7182 -0.7832 -1.9100
  153SAPE  C21717022   2.559   3.410   9.266  0.3873 -0.0818  0.4686
  153SAPE  H17R17023   2.595   3.337   9.189  0.4132  0.7055 -0.2803
  153SAPE  H17S17024   2.632   3.492   9.279  0.7941 -0.7425  2.8568
  153SAPE  C21817025   2.426   3.461   9.213  0.4490 -0.6913 -0.1619
  153SAPE  H18R17026   2.401   3.531   9.296  1.5397  0.2536 -0.6038
  153SAPE  H18S17027   2.343   3.389   9.207 -1.4127  1.0321  2.3943
  153SAPE  C21917028   2.436   3.555   9.095  0.1069  0.2364  0.4325
  153SAPE  H19R17029   2.518   3.629   9.110  2.1410 -1.5758 -1.0729
  153SAPE  H19S17030   2.345   3.615   9.074  0.7041  1.0164 -0.0113
  153SAPE  C22017031   2.467   3.479   8.968 -0.4741 -0.0728  0.1580
  153SAPE  H20R17032   2.483   3.546   8.881 -2.2333 -1.1974 -1.1284
  153SAPE  H20S17033   2.384   3.412   8.936  0.8627 -2.6530  1.7239
  153SAPE  H20T17034   2.556   3.413   8.981 -0.5538 -0.6399 -1.7890
  153SAPE   C3317035   2.272   3.078  10.313  0.3050 -0.2894 -0.1200
  153SAPE   H3X17036   2.174   3.067  10.365  1.3138 -0.1302  1.9547
  153SAPE   H3Y17037   2.334   3.034  10.395 -1.8302  1.9311  2.9079
  153SAPE   C3417038   2.297   2.991  10.188 -0.1613  0.8830  0.4531
  153SAPE   H4X17039   2.400   2.999  10.145 -0.2600 -0.8415 -0.1967
  153SAPE   H4Y17040   2.219   3.009  10.110 -0.4127 -1.8675 -0.0099
  153SAPE   C3517041   2.281   2.837  10.206  0.3274  0.2802  0.7181
  153SAPE   H5X17042   2.179   2.806  10.239  1.1150 -0.4024  2.5956
  153SAPE   H5Y17043   2.359   2.799  10.275  1.7307  0.9730 -0.4357
  153SAPE   C3617044   2.304   2.764  10.063 -0.1823  0.2682 -0.0761
  153SAPE   H6X17045   2.402   2.801  10.027  0.3829 -1.0560  0.0246
  153SAPE   H6Y17046   2.227   2.810   9.997  1.0947  3.5853  0.5438
  153SAPE   C3717047   2.315   2.607  10.074  0.4353 -0.1470 -0.2762
  153SAPE   H7X17048   2.210   2.573  10.088  0.1012  1.7053  2.2832
  153SAPE   H7Y17049   2.368   2.576  10.166  0.8793 -0.7434 -0.7263
  153SAPE   C3817050   2.364   2.540   9.944  0.2972 -0.0278 -0.3337
  153SAPE   H8X17051   2.357   2.430   9.945 -1.2488 -0.0058 -2.4235
  153SAPE   H8Y17052   2.465   2.583   9.929 -0.2304  1.4496  0.1567
  153SAPE   C3917053   2.291   2.568   9.806 -0.8065 -0.6806  0.0611
  153SAPE   H9X17054   2.294   2.678   9.791  0.7500 -0.5780  0.9480
  153SAPE   H9Y17055   2.187   2.528   9.812 -0.7803 -0.5935  1.7728
  153SAPE  C31017056   2.377   2.513   9.689 -0.2616  0.0919 -0.0220
  153SAPE  H10X17057   2.369   2.403   9.680  0.6490  0.0847 -0.8799
  153SAPE  H10Y17058   2.486   2.534   9.700 -0.2231  0.4687 -1.0187
  153SAPE  C31117059   2.329   2.547   9.543  0.1419 -0.5482  0.7761
  153SAPE  H11X17060   2.358   2.652   9.517 -0.1367 -0.9552 -1.2769
  153SAPE  H11Y17061   2.220   2.536   9.529 -0.0766  1.5917  0.4381
  153SAPE  C31217062   2.413   2.477   9.437  0.3519  0.3285 -0.0471
  153SAPE  H12X17063   2.373   2.373   9.428 -0.9536  0.5980  1.8807
  153SAPE  H12Y17064   2.520   2.479   9.466  0.2457 -0.9599  0.4988
  153SAPE  C31317065   2.405   2.532   9.294 -0.4025  0.4679 -0.4167
  153SAPE  H13X17066   2.301   2.551   9.260 -1.2851  0.4192  2.0340
  153SAPE  H13Y17067   2.447   2.456   9.224 -0.9574  1.6355 -2.0740
  153SAPE  C31417068   2.485   2.657   9.262 -0.1687 -1.0211 -0.3547
  153SAPE  H14X17069   2.585   2.641   9.310 -1.3185 -0.3789  2.4834
  153SAPE  H14Y17070   2.443   2.753   9.299  1.3300 -0.9625  1.3999
  153SAPE  C31517071   2.518   2.659   9.110  0.4622  0.1797 -0.4338
  153SAPE  H15X17072   2.563   2.560   9.086  0.5811  0.2174 -0.3694
  153SAPE  H15Y17073   2.603   2.729   9.096  0.5755 -0.1024 -1.2008
  153SAPE  C31617074   2.399   2.694   9.021 -0.2814  0.3709  0.3700
  153SAPE  H16X17075   2.334   2.764   9.078 -0.0254  1.3912 -0.5526
  153SAPE  H16Y17076   2.353   2.595   9.001 -0.7521  0.7981 -0.7940
  153SAPE  C31717077   2.440   2.763   8.886  0.6879  0.4423 -0.2085
  153SAPE  H17X17078   2.526   2.701   8.854 -1.5516 -2.0721 -1.7240
  153SAPE  H17Y17079   2.479   2.867   8.896  0.8184  0.3125  0.7641
  153SAPE  C31817080   2.337   2.745   8.778 -0.3870  0.2816  0.0967
  153SAPE  H18X17081   2.292   2.646   8.799 -0.2000  0.3899  1.0953
  153SAPE  H18Y17082   2.384   2.752   8.678 -1.4992 -2.9930 -0.7732
  153SAPE  H18Z17083   2.251   2.815   8.786 -0.3588  0.2598  0.6928
  154SAPE     N17084   2.017   2.560  10.910 -0.1135  0.3116  0.0735
  154SAPE   HN117085   2.059   2.490  10.846 -0.7064  0.3871 -0.4050
  154SAPE   HN217086   1.953   2.504  10.970  3.1726 -5.3137 -1.0000
  154SAPE   HN317087   1.959   2.628  10.857  0.0238 -0.6032 -1.3077
  154SAPE   C1217088   2.126   2.619  10.996  0.3578  0.1656  0.0319
  154SAPE  H12A17089   2.171   2.544  11.064 -3.3419 -0.1727  2.4309
  154SAPE  H12B17090   2.063   2.684  11.061 -0.4978  1.5862 -2.0931
  154SAPE   C1117091   2.217   2.706  10.909 -0.0497  0.0501 -0.1328
  154SAPE  H11A17092   2.264   2.650  10.825  0.4483  0.6732 -0.2848
  154SAPE  H11B17093   2.293   2.753  10.976 -0.9541  0.9501  0.2861
  154SAPE     P17094   2.208   2.908  10.747  0.0247 -0.1040 -0.4408
  154SAPE   O1317095   2.111   3.009  10.706  0.8315  0.6402  0.4059
  154SAPE   O1417096   2.330   2.959  10.815 -0.4150  0.1279 -1.1835
  154SAPE   O1217097   2.133   2.808  10.852 -0.2943 -0.2257  0.1847
  154SAPE   O1117098   2.247   2.807  10.627 -0.1166  0.0064 -0.6203
  154SAPE    C117099   2.158   2.730  10.551  0.1205 -0.0938 -0.3352
  154SAPE    HA17100   2.055   2.741  10.589  0.2109  3.7163 -0.7445
  154SAPE    HB17101   2.136   2.780  10.454 -1.4910 -2.8620 -1.5065
  154SAPE    C217102   2.204   2.584  10.527 -0.0878 -0.2186  0.2393
  154SAPE    HS17103   2.200   2.544  10.631 -0.3824 -0.6837  0.0484
  154SAPE   O2117104   2.331   2.583  10.460 -0.1793 -0.2109  0.0362
  154SAPE   C2117105   2.422   2.502  10.514  0.2494 -0.9341 -0.4359
  154SAPE   O2217106   2.395   2.427  10.604  0.6227 -0.5041 -0.0990
  154SAPE   C2217107   2.549   2.509  10.437  0.2324 -0.2384  0.4304
  154SAPE   H2R17108   2.544   2.544  10.331  1.2302  0.3895  0.5796
  154SAPE   H2S17109   2.617   2.583  10.483  1.7928 -1.2939 -0.0966
  154SAPE    C317110   2.099   2.501  10.450 -0.3281  0.0139 -0.2338
  154SAPE    HX17111   2.024   2.488  10.531  2.0494 -1.5789  1.8437
  154SAPE    HY17112   2.151   2.405  10.430  1.1721  0.5169  1.0288
  154SAPE   O3117113   2.054   2.558  10.330  0.3195 -0.1296 -0.1196
  154SAPE   C3117114   1.938   2.631  10.342  0.3432  0.0282  1.0182
  154SAPE   O3217115   1.888   2.662  10.444  0.4386  0.1769  0.2142
  154SAPE   C3217116   1.872   2.665  10.214  0.0280 -0.4893  1.1102
  154SAPE   H2X17117   1.932   2.736  10.154 -1.4148 -1.2165 -1.2982
  154SAPE   H2Y17118   1.777   2.716  10.240 -0.5770 -0.8935 -0.2292
  154SAPE   C2317119   2.624   2.375  10.426 -0.2496 -0.3985 -0.4857
  154SAPE   H3R17120   2.616   2.309  10.516 -1.9332  1.4267  0.7974
  154SAPE   H3S17121   2.729   2.400  10.403  0.4965 -2.2235  0.7045
  154SAPE   C2417122   2.585   2.285  10.299 -0.0712 -0.3044  0.1548
  154SAPE   H4R17123   2.666   2.210  10.290 -1.5447 -1.7578 -1.5540
  154SAPE   H4S17124   2.598   2.354  10.213  0.9748  0.8204  1.1540
  154SAPE   C2517125   2.454   2.214  10.303  0.4314  0.4658 -0.4940
  154SAPE   H5R17126   2.409   2.221  10.403 -0.2124  0.6028 -0.7902
  154SAPE   C2617127   2.399   2.144  10.202  0.5805  0.3731  0.0103
  154SAPE   H6R17128   2.306   2.093  10.229  0.9036 -0.2424 -0.0143
  154SAPE   C2717129   2.452   2.115  10.065  0.3951  0.7366 -0.0168
  154SAPE   H7R17130   2.555   2.153  10.050  1.8274 -2.0312  2.0596
  154SAPE   H7S17131   2.383   2.165   9.994 -0.7434  0.8336  1.1249
  154SAPE   C2817132   2.442   1.968  10.043 -1.0408 -1.0431  0.7150
  154SAPE   H8R17133   2.427   1.903  10.131  1.4741 -0.5572  1.5920
  154SAPE   C2917134   2.444   1.915   9.922  0.1096  0.0958  0.1886
  154SAPE   H9R17135   2.433   1.805   9.920 -1.8232  0.2462  0.4549
  154SAPE  C21017136   2.462   1.998   9.793  0.6955 -0.4622  0.2537
  154SAPE  H10R17137   2.569   2.027   9.799  1.2337 -2.3565  0.6247
  154SAPE  H10S17138   2.392   2.084   9.790  0.7582 -0.2898  2.4756
  154SAPE  C21117139   2.453   1.920   9.663 -0.0999  0.0592 -0.0433
  154SAPE  H11R17140   2.435   1.812   9.674  1.8720 -0.2052  1.0660
  154SAPE  C21217141   2.456   1.970   9.543  0.0166 -0.2455  0.9082
  154SAPE  H12R17142   2.431   1.917   9.450  1.4572 -0.7099  0.7687
  154SAPE  C21317143   2.469   2.116   9.525 -0.3530  0.2569  0.2488
  154SAPE  H13R17144   2.524   2.157   9.613 -1.1103 -1.5850  1.6457
  154SAPE  H13S17145   2.373   2.172   9.520 -0.2595  0.5131  1.0851
  154SAPE  C21417146   2.540   2.154   9.387  0.3051 -0.3105 -1.4907
  154SAPE  H14R17147   2.648   2.174   9.396  0.3549 -0.2009 -2.2590
  154SAPE  C21517148   2.484   2.160   9.266 -0.8072 -0.6013  0.0544
  154SAPE  H15R17149   2.551   2.169   9.179  1.3452  0.4604  1.7254
  154SAPE  C21617150   2.344   2.131   9.218  0.2946  0.0446  0.2036
  154SAPE  H16R17151   2.311   2.205   9.143 -0.5361  1.7100  2.1240
  154SAPE  H16S17152   2.273   2.145   9.302 -0.3973 -1.4215 -0.1085
  154SAPE  C21717153   2.320   1.981   9.175  0.8032 -0.1659 -0.2112
  154SAPE  H17R17154   2.345   1.913   9.259  1.0617 -0.0373 -0.1839
  154SAPE  H17S17155   2.377   1.956   9.083 -0.5435  0.8505 -1.3786
  154SAPE  C21817156   2.175   1.962   9.134  0.3923  0.4681  0.7431
  154SAPE  H18R17157   2.154   2.024   9.045  0.0338 -2.1230 -1.0760
  154SAPE  H18S17158   2.097   1.985   9.210  0.2958  0.2576  0.7067
  154SAPE  C21917159   2.151   1.817   9.077 -0.0282 -0.0042  0.4396
  154SAPE  H19R17160   2.204   1.757   9.154 -0.8540 -1.7436 -0.2920
  154SAPE  H19S17161   2.210   1.809   8.983 -1.9752  0.5182 -0.9047
  154SAPE  C22017162   2.015   1.750   9.059  0.2303 -0.0010 -0.5473
  154SAPE  H20R17163   1.939   1.816   9.011 -0.0846  0.0114 -0.0430
  154SAPE  H20S17164   1.980   1.727   9.162  1.6983  1.4529  0.3254
  154SAPE  H20T17165   2.035   1.654   9.008  1.1976 -0.3179  0.3909
  154SAPE   C3317166   1.853   2.538  10.132 -0.1026 -0.4648 -0.4514
  154SAPE   H3X17167   1.802   2.462  10.196  0.3447 -1.2044 -0.9612
  154SAPE   H3Y17168   1.945   2.491  10.094 -1.0722 -1.4317 -1.6769
  154SAPE   C3417169   1.775   2.567   9.999 -0.6777 -0.0655 -0.5872
  154SAPE   H4X17170   1.680   2.602  10.044 -1.1458  2.2497 -3.1057
  154SAPE   H4Y17171   1.743   2.480   9.937 -1.0535  0.2826 -0.8852
  154SAPE   C3517172   1.865   2.656   9.901 -0.2465  0.7172 -0.0038
  154SAPE   H5X17173   1.965   2.607   9.901 -0.8875 -0.6769 -1.1341
  154SAPE   H5Y17174   1.880   2.756   9.947 -2.6977  0.8060  0.7346
  154SAPE   C3617175   1.813   2.664   9.757 -0.2168  0.4797  1.1809
  154SAPE   H6X17176   1.718   2.722   9.759  0.9005  2.3968  0.9216
  154SAPE   H6Y17177   1.788   2.562   9.722 -1.2596  1.4313 -1.0271
  154SAPE   C3717178   1.928   2.701   9.660  0.2228  0.0499 -0.3234
  154SAPE   H7X17179   1.878   2.705   9.560 -0.5212 -1.2052 -0.0146
  154SAPE   H7Y17180   2.006   2.623   9.649  1.1244  0.7940  0.5785
  154SAPE   C3817181   1.983   2.838   9.693 -0.4838 -0.2977  0.6158
  154SAPE   H8X17182   2.060   2.827   9.772  2.1450 -2.9789 -2.0186
  154SAPE   H8Y17183   1.909   2.909   9.734 -2.0308 -1.2274 -0.4499
  154SAPE   C3917184   2.062   2.902   9.577  0.3917  0.1707  0.1246
  154SAPE   H9X17185   2.147   2.835   9.550  0.7636  1.3609 -1.8787
  154SAPE   H9Y17186   2.109   2.995   9.616 -1.7618  0.4351  2.3314
  154SAPE  C31017187   1.991   2.927   9.441 -0.1749 -0.2152  0.0999
  154SAPE  H10X17188   1.979   2.831   9.386 -0.4341  0.6055 -1.3132
  154SAPE  H10Y17189   2.064   2.984   9.380 -0.5763  2.0211  1.6071
  154SAPE  C31117190   1.851   2.987   9.442 -0.1599 -0.5692 -0.5415
  154SAPE  H11X17191   1.850   3.073   9.512  1.9944  0.4375 -1.6461
  154SAPE  H11Y17192   1.781   2.914   9.489  1.2667 -1.8071 -0.2891
  154SAPE  C31217193   1.805   3.018   9.303  0.5357 -0.0464 -0.2198
  154SAPE  H12X17194   1.770   2.928   9.249 -0.6109  0.9853 -1.2556
  154SAPE  H12Y17195   1.880   3.075   9.245 -1.0944  0.1929 -2.2031
  154SAPE  C31317196   1.686   3.111   9.308  0.1635 -0.7150 -0.3795
  154SAPE  H13X17197   1.709   3.200   9.370 -1.3693 -1.1121  0.8127
  154SAPE  H13Y17198   1.606   3.059   9.365  0.4835  2.0210  2.8548
  154SAPE  C31417199   1.658   3.151   9.164  0.2776  0.1390 -1.0035
  154SAPE  H14X17200   1.647   3.056   9.109  0.5712  0.7887 -2.2138
  154SAPE  H14Y17201   1.740   3.209   9.116 -1.4282  0.5266 -3.6420
  154SAPE  C31517202   1.533   3.237   9.161 -0.0777  0.1610 -0.8230
  154SAPE  H15X17203   1.548   3.319   9.234 -0.1102 -1.5749  1.2217
  154SAPE  H15Y17204   1.441   3.185   9.194  0.2725  0.4564  0.6828
  154SAPE  C31617205   1.508   3.299   9.024 -0.2782 -0.6664  0.5547
  154SAPE  H16X17206   1.608   3.320   8.980  0.1164 -0.1089  1.6694
  154SAPE  H16Y17207   1.450   3.390   9.050  0.2204 -0.4836  1.0534
  154SAPE  C31717208   1.446   3.196   8.925 -0.4763  0.1367 -0.5396
  154SAPE  H17X17209   1.352   3.157   8.971 -0.1869 -1.9064 -1.5305
  154SAPE  H17Y17210   1.520   3.112   8.925  0.2819  0.7620  1.1267
  154SAPE  C31817211   1.425   3.236   8.785 -1.6287 -0.0960  0.0566
  154SAPE  H18X17212   1.383   3.335   8.759  2.3331  1.4123 -1.3413
  154SAPE  H18Y17213   1.362   3.155   8.743 -2.0966 -0.8601  2.1216
  154SAPE  H18Z17214   1.516   3.233   8.722 -2.6884  2.2733 -1.7184
  155SAPE     N17215   3.399   4.196  10.895  0.1970 -0.0328 -0.0090
  155SAPE   HN117216   3.303   4.218  10.928  1.1208  2.2880  1.3733
  155SAPE   HN217217   3.394   4.100  10.857  0.1823  0.6065 -1.7041
  155SAPE   HN317218   3.460   4.210  10.978 -0.7362  0.0412  0.6797
  155SAPE   C1217219   3.419   4.304  10.795 -0.1372  0.3877  1.0604
  155SAPE  H12A17220   3.335   4.285  10.725  1.8522  2.8531 -2.2688
  155SAPE  H12B17221   3.518   4.292  10.747 -0.3072  1.3235  0.4400
  155SAPE   C1117222   3.404   4.447  10.849 -0.3710  0.2525  0.2247
  155SAPE  H11A17223   3.303   4.470  10.890  0.0263  0.0702  1.3363
  155SAPE  H11B17224   3.399   4.516  10.762  1.3253 -0.1053 -0.1876
  155SAPE     P17225   3.557   4.636  10.963  0.1430  0.3620  0.1498
  155SAPE   O1317226   3.608   4.650  11.100  0.1913  0.4060  0.0495
  155SAPE   O1417227   3.638   4.680  10.852 -0.0794 -0.4483 -0.1977
  155SAPE   O1217228   3.505   4.487  10.942  0.0274 -0.3726 -0.2243
  155SAPE   O1117229   3.419   4.711  10.954 -0.1687 -0.5952  0.4693
  155SAPE    C117230   3.414   4.852  10.936  0.2392 -0.3811  0.0594
  155SAPE    HA17231   3.407   4.913  11.029  1.3964  2.0449 -1.3299
  155SAPE    HB17232   3.508   4.890  10.890  1.6309 -0.9214  2.3200
  155SAPE    C217233   3.298   4.899  10.850 -0.6186 -0.9352  0.0505
  155SAPE    HS17234   3.307   5.010  10.859 -1.8756 -0.8862  0.8756
  155SAPE   O2117235   3.169   4.863  10.900  0.1906  0.0271  0.0975
  155SAPE   C2117236   3.062   4.925  10.856 -0.7640  0.2368 -0.0126
  155SAPE   O2217237   3.060   5.030  10.795  0.6974 -0.0995  0.2648
  155SAPE   C2217238   2.941   4.838  10.885 -0.7659  0.6052  0.0660
  155SAPE   H2R17239   2.981   4.780  10.971  2.4572  0.7621 -1.1824
  155SAPE   H2S17240   2.855   4.895  10.926  1.3941  3.6457  0.7397
  155SAPE    C317241   3.320   4.843  10.706 -0.0079  0.4694 -0.5071
  155SAPE    HX17242   3.302   4.734  10.697  0.8182  0.4810 -3.8104
  155SAPE    HY17243   3.429   4.847  10.685 -0.2111 -2.2966 -2.7920
  155SAPE   O3117244   3.251   4.924  10.605  0.2379 -0.1987  0.0652
  155SAPE   C3117245   3.263   4.869  10.482 -0.4620 -0.2131  0.3075
  155SAPE   O3217246   3.313   4.760  10.457 -0.1300 -0.4417 -0.0455
  155SAPE   C3217247   3.188   4.951  10.381  0.2263 -0.0403 -0.5504
  155SAPE   H2X17248   3.170   5.051  10.427  0.8862  0.2725 -0.9535
  155SAPE   H2Y17249   3.090   4.899  10.381  1.0499 -1.6589 -0.7480
  155SAPE   C2317250   2.902   4.744  10.770 -0.5931  0.2313 -0.1505
  155SAPE   H3R17251   2.855   4.795  10.684 -3.2395 -1.6106  0.0777
  155SAPE   H3S17252   2.824   4.681  10.818  1.5290 -3.6623 -1.3766
  155SAPE   C2417253   3.012   4.648  10.728 -0.1989  0.1812 -0.1342
  155SAPE   H4R17254   3.072   4.621  10.818  0.5303  1.1268 -0.3128
  155SAPE   H4S17255   3.087   4.690  10.657 -0.6400 -0.3947 -0.9542
  155SAPE   C2517256   2.948   4.535  10.653 -0.5528  0.4520 -0.2521
  155SAPE   H5R17257   2.874   4.490  10.719 -0.8982  0.7846 -0.4077
  155SAPE   C2617258   2.946   4.502  10.520  0.4857 -0.6264  0.8040
  155SAPE   H6R17259   2.881   4.418  10.493  0.0928 -0.3238  0.8114
  155SAPE   C2717260   3.033   4.569  10.413  0.1856 -0.2151  0.1164
  155SAPE   H7R17261   3.096   4.651  10.454 -0.5753  0.2231  0.4109
  155SAPE   H7S17262   2.968   4.622  10.341 -0.9645  1.0668  2.0080
  155SAPE   C2817263   3.124   4.474  10.335  0.4560  0.6938 -0.0719
  155SAPE   H8R17264   3.206   4.439  10.399 -1.6312 -0.2861  2.2230
  155SAPE   C2917265   3.118   4.440  10.210  0.5114 -0.4667  0.6452
  155SAPE   H9R17266   3.186   4.364  10.169  1.5512  1.2705 -0.9807
  155SAPE  C21017267   3.015   4.489  10.108  0.1603 -0.6466  0.0270
  155SAPE  H10R17268   2.914   4.504  10.152  0.0374  0.5223 -0.6092
  155SAPE  H10S17269   3.005   4.407  10.034 -0.8916 -0.7348  0.2523
  155SAPE  C21117270   3.042   4.624  10.039 -0.0639 -0.1654 -0.7171
  155SAPE  H11R17271   3.049   4.714  10.102 -1.3899  1.1333 -2.3286
  155SAPE  C21217272   3.049   4.642   9.907  0.8233  0.5503 -0.6014
  155SAPE  H12R17273   3.101   4.729   9.865  0.8749  0.0162 -1.6668
  155SAPE  C21317274   3.020   4.537   9.799  0.3494 -0.2433  0.1177
  155SAPE  H13R17275   3.088   4.452   9.820  1.8909  0.8087 -0.4025
  155SAPE  H13S17276   3.047   4.582   9.701  2.0066 -0.7533  0.2971
  155SAPE  C21417277   2.876   4.494   9.789 -0.2147  0.3801  0.0371
  155SAPE  H14R17278   2.807   4.580   9.787  0.0175  0.5758  0.3087
  155SAPE  C21517279   2.822   4.367   9.777 -0.1539 -0.4469 -0.6750
  155SAPE  H15R17280   2.713   4.352   9.778 -0.0769 -1.0806  0.9620
  155SAPE  C21617281   2.901   4.240   9.774 -0.5452 -0.1357 -0.0236
  155SAPE  H16R17282   2.951   4.212   9.869  0.2491 -0.6394 -0.5811
  155SAPE  H16S17283   2.971   4.247   9.688  0.4171 -0.4348  0.7224
  155SAPE  C21717284   2.811   4.122   9.730  0.2125  0.4098  0.1221
  155SAPE  H17R17285   2.750   4.144   9.639 -1.6830 -3.2623  0.3149
  155SAPE  H17S17286   2.742   4.112   9.816  1.5892 -0.3978  1.1753
  155SAPE  C21817287   2.881   3.988   9.702  0.1255  0.3169 -0.0548
  155SAPE  H18R17288   2.964   3.978   9.777  1.8925 -1.3767 -2.0914
  155SAPE  H18S17289   2.912   3.988   9.596 -0.3433 -2.4697 -0.2791
  155SAPE  C21917290   2.795   3.858   9.731 -0.2264  0.1340  0.2708
  155SAPE  H19R17291   2.850   3.768   9.698 -0.7732 -0.7428  1.6610
  155SAPE  H19S17292   2.700   3.852   9.674 -0.8040 -0.5528  1.2651
  155SAPE  C22017293   2.769   3.844   9.882  0.3289  1.2286 -0.1528
  155SAPE  H20R17294   2.867   3.813   9.924 -0.0233  0.6485  0.2640
  155SAPE  H20S17295   2.695   3.762   9.894  0.6324  1.0717  0.7262
  155SAPE  H20T17296   2.738   3.942   9.926 -1.8616 -0.0896  1.4795
  155SAPE   C3317297   3.249   4.971  10.241  0.5804  0.6914 -0.3265
  155SAPE   H3X17298   3.319   4.887  10.221  0.3182  0.4872 -0.3838
  155SAPE   H3Y17299   3.317   5.059  10.240  2.1332 -0.4594 -0.2034
  155SAPE   C3417300   3.145   4.986  10.139  0.3313  0.1692 -0.0322
  155SAPE   H4X17301   3.099   5.087  10.144 -0.1462 -0.0146 -0.5621
  155SAPE   H4Y17302   3.058   4.918  10.151 -0.1946  0.7614 -0.3868
  155SAPE   C3517303   3.196   4.967   9.992 -0.3484  0.0279  0.0525
  155SAPE   H5X17304   3.118   4.928   9.924  0.7180  2.8218 -3.0076
  155SAPE   H5Y17305   3.270   4.885   9.982 -0.6518 -0.0618 -1.6546
  155SAPE   C3617306   3.237   5.096   9.923 -0.3900  0.2921 -0.0279
  155SAPE   H6X17307   3.319   5.135   9.987 -0.4099 -0.6931  0.6183
  155SAPE   H6Y17308   3.150   5.165   9.916  0.2939  1.0218 -2.1064
  155SAPE   C3717309   3.293   5.066   9.782 -0.0125  0.2358 -0.1291
  155SAPE   H7X17310   3.378   4.998   9.806  0.3251  0.2716 -1.1455
  155SAPE   H7Y17311   3.327   5.161   9.735  0.1006 -1.4956 -3.9372
  155SAPE   C3817312   3.191   5.005   9.677  1.0182  0.2151  0.2479
  155SAPE   H8X17313   3.107   5.072   9.648 -1.1681 -2.3262  0.3255
  155SAPE   H8Y17314   3.137   4.918   9.719 -0.5394 -0.7248 -3.2849
  155SAPE   C3917315   3.274   4.987   9.548 -0.3885 -0.0262 -0.1568
  155SAPE   H9X17316   3.350   4.906   9.559  1.3054  1.5135 -0.1167
  155SAPE   H9Y17317   3.327   5.083   9.532 -0.2906 -0.2030 -0.9937
  155SAPE  C31017318   3.191   4.961   9.414 -0.1441  0.0544  0.7608
  155SAPE  H10X17319   3.265   4.949   9.332  0.5014 -0.0135  1.3398
  155SAPE  H10Y17320   3.121   5.042   9.387 -1.1496 -1.6287 -2.0676
  155SAPE  C31117321   3.113   4.833   9.427  0.1139  0.0991  0.1248
  155SAPE  H11X17322   3.046   4.819   9.515 -0.1135 -1.4359 -0.2582
  155SAPE  H11Y17323   3.184   4.748   9.426 -1.1350 -1.0064 -1.2065
  155SAPE  C31217324   3.016   4.816   9.304  0.3892 -0.9060 -0.5522
  155SAPE  H12X17325   3.069   4.837   9.208  1.3415 -1.4452 -0.1636
  155SAPE  H12Y17326   2.930   4.886   9.306 -0.6004 -2.0475  2.2554
  155SAPE  C31317327   2.952   4.681   9.289 -0.1107 -0.0223 -0.1012
  155SAPE  H13X17328   3.031   4.609   9.316 -1.5599 -1.1975  1.1848
  155SAPE  H13Y17329   2.925   4.670   9.182  2.3796 -1.5441 -0.6492
  155SAPE  C31417330   2.829   4.663   9.383 -0.6840 -0.6352 -0.2668
  155SAPE  H14X17331   2.762   4.750   9.369  0.9176  0.7669  0.3856
  155SAPE  H14Y17332   2.869   4.659   9.486 -1.2501 -0.1456 -0.0271
  155SAPE  C31517333   2.745   4.539   9.350 -0.0587  0.5461  0.8828
  155SAPE  H15X17334   2.698   4.560   9.252  1.3693 -1.3197 -0.2550
  155SAPE  H15Y17335   2.656   4.536   9.418  0.2799 -0.9626  1.3175
  155SAPE  C31617336   2.827   4.408   9.346  0.3343 -0.4969 -0.8360
  155SAPE  H16X17337   2.906   4.419   9.424 -0.3283  1.6714 -0.4023
  155SAPE  H16Y17338   2.870   4.391   9.245 -0.8431 -0.0798 -1.4197
  155SAPE  C31717339   2.740   4.287   9.385  0.7029  0.2201  0.0799
  155SAPE  H17X17340   2.700   4.288   9.489  0.2869 -2.4563  0.0137
  155SAPE  H17Y17341   2.805   4.198   9.398  0.6830  0.4899  2.5345
  155SAPE  C31817342   2.638   4.257   9.280  0.3283  0.4943  0.2287
  155SAPE  H18X17343   2.682   4.238   9.180  1.0210  1.8763  0.2414
  155SAPE  H18Y17344   2.575   4.346   9.259  0.3397 -0.0538 -2.4371
  155SAPE  H18Z17345   2.582   4.169   9.317 -0.0001  0.8490  0.5918
  156SAPE     N17346   0.937   2.392  10.706  1.5289  0.2815  0.4895
  156SAPE   HN117347   0.980   2.447  10.783 -0.3122  1.2097  0.9257
  156SAPE   HN217348   0.973   2.295  10.700 -0.5497 -0.6947  2.3637
  156SAPE   HN317349   0.971   2.448  10.625 -0.2307  0.6305 -0.0647
  156SAPE   C1217350   0.782   2.396  10.709  0.4519 -0.1946 -0.2272
  156SAPE  H12A17351   0.754   2.501  10.736  0.0692 -0.3115 -0.1617
  156SAPE  H12B17352   0.753   2.333  10.795  0.2376  2.2148  1.5794
  156SAPE   C1117353   0.722   2.350  10.577  0.2827 -0.2681  0.2019
  156SAPE  H11A17354   0.770   2.395  10.487 -1.5547  2.7093  0.5554
  156SAPE  H11B17355   0.616   2.383  10.574  0.6132  1.0615  1.8948
  156SAPE     P17356   0.700   2.118  10.461  0.0050 -0.1334  0.1214
  156SAPE   O1317357   0.732   1.980  10.499  0.3556  0.3120  0.2486
  156SAPE   O1417358   0.562   2.138  10.410  0.5107 -0.0751 -0.1779
  156SAPE   O1217359   0.732   2.209  10.585  0.2530  0.5700  0.6963
  156SAPE   O1117360   0.798   2.176  10.347  0.2600 -0.1339  0.1919
  156SAPE    C117361   0.940   2.171  10.377 -0.0089  0.2646 -0.8597
  156SAPE    HA17362   0.976   2.256  10.438  1.8355 -0.0938 -1.3977
  156SAPE    HB17363   0.964   2.082  10.440 -1.1493  1.0935  0.8473
  156SAPE    C217364   1.035   2.177  10.249  0.2243 -0.0324  0.4801
  156SAPE    HS17365   1.136   2.214  10.275  0.1973 -0.7269  1.6593
  156SAPE   O2117366   0.968   2.263  10.153  0.2411  0.2709  0.0014
  156SAPE   C2117367   0.975   2.387  10.171 -0.0029  0.4016 -0.5203
  156SAPE   O2217368   1.048   2.443  10.251 -0.1762 -0.0601  0.5107
  156SAPE   C2217369   0.885   2.454  10.072  0.0884  0.7806 -0.4722
  156SAPE   H2R17370   0.931   2.435   9.973  0.9721  1.2835 -0.1752
  156SAPE   H2S17371   0.789   2.399  10.065  0.8503 -0.6142 -0.2153
  156SAPE    C317372   1.049   2.037  10.185 -0.0393  0.2025 -0.2624
  156SAPE    HX17373   0.944   2.004  10.170 -0.9508  2.4132  0.8853
  156SAPE    HY17374   1.099   1.974  10.262  1.0481  1.4036  0.0497
  156SAPE   O3117375   1.131   2.042  10.068 -0.4076  0.1831  0.4361
  156SAPE   C3117376   1.057   2.041   9.961  0.1462 -0.6337 -0.3692
  156SAPE   O3217377   0.938   2.047   9.958 -0.2113 -0.4986  0.2900
  156SAPE   C3217378   1.142   2.042   9.837 -0.2978  0.1556 -0.4727
  156SAPE   H2X17379   1.217   1.960   9.835 -0.9435 -0.4899  0.7330
  156SAPE   H2Y17380   1.192   2.141   9.832 -1.6407  0.9725  1.3881
  156SAPE   C2317381   0.890   2.609  10.083  0.4547  0.7410  0.1610
  156SAPE   H3R17382   0.988   2.661  10.089 -0.3533  2.4445 -0.6445
  156SAPE   H3S17383   0.834   2.643  10.172  0.5611  0.2802  0.4066
  156SAPE   C2417384   0.819   2.684   9.962 -0.4304 -0.6574 -0.6868
  156SAPE   H4R17385   0.719   2.637   9.959 -1.9875  2.0556  2.4526
  156SAPE   H4S17386   0.877   2.661   9.870 -0.6694  0.2493 -1.0685
  156SAPE   C2517387   0.801   2.832  10.002  0.3215 -0.1183 -0.2522
  156SAPE   H5R17388   0.822   2.862  10.106  0.1974  0.6863 -0.4541
  156SAPE   C2617389   0.778   2.920   9.904  0.3698 -0.6536  0.6014
  156SAPE   H6R17390   0.779   3.025   9.936 -0.0627 -0.0200 -1.2849
  156SAPE   C2717391   0.747   2.899   9.755 -0.0310  0.8777  0.2068
  156SAPE   H7R17392   0.739   2.791   9.729  2.1591  1.3210 -2.8985
  156SAPE   H7S17393   0.836   2.935   9.698  1.2363  2.4066  2.9671
  156SAPE   C2817394   0.622   2.974   9.715  0.1697  0.5630 -0.9806
  156SAPE   H8R17395   0.543   2.972   9.792  0.0670 -1.3740 -1.0707
  156SAPE   C2917396   0.593   3.039   9.596 -1.0883  0.5530  0.2519
  156SAPE   H9R17397   0.495   3.090   9.592 -0.4243  1.8476 -0.0732
  156SAPE  C21017398   0.692   3.052   9.478  0.3422  0.3068 -0.1476
  156SAPE  H10R17399   0.788   3.095   9.512  0.0880 -0.5957  1.8157
  156SAPE  H10S17400   0.641   3.121   9.407  0.9909 -0.0147 -0.9415
  156SAPE  C21117401   0.726   2.924   9.403 -0.6873 -0.2296  0.0269
  156SAPE  H11R17402   0.679   2.831   9.439 -1.0662 -0.4631 -1.0293
  156SAPE  C21217403   0.799   2.910   9.293 -0.4759 -0.4632  0.2949
  156SAPE  H12R17404   0.809   2.817   9.233  0.4693 -0.0620 -0.1932
  156SAPE  C21317405   0.860   3.033   9.216  0.1247 -0.4414 -0.0218
  156SAPE  H13R17406   0.784   3.101   9.172  2.1687  0.9776 -1.6030
  156SAPE  H13S17407   0.909   3.001   9.121  4.4439 -0.1165  1.8658
  156SAPE  C21417408   0.967   3.116   9.278 -0.4184 -0.8723 -0.4882
  156SAPE  H14R17409   0.927   3.192   9.346  1.0751  0.9721 -1.5920
  156SAPE  C21517410   1.104   3.094   9.271  0.9247 -0.1281  0.8740
  156SAPE  H15R17411   1.169   3.152   9.338  1.0140  0.9518 -0.1273
  156SAPE  C21617412   1.176   2.983   9.196 -0.1273 -0.0051 -0.3804
  156SAPE  H16R17413   1.258   3.027   9.135  0.6019 -0.7005  0.0794
  156SAPE  H16S17414   1.106   2.936   9.124  0.7674 -0.4828 -0.9556
  156SAPE  C21717415   1.223   2.878   9.295 -0.7520 -0.1499  0.1121
  156SAPE  H17R17416   1.276   2.795   9.244 -0.4431 -2.3159  3.6247
  156SAPE  H17S17417   1.136   2.829   9.344 -1.5132 -0.2309 -1.2942
  156SAPE  C21817418   1.333   2.921   9.392 -0.0134  0.0005  0.2497
  156SAPE  H18R17419   1.293   2.996   9.464  2.1183  0.4521  1.0535
  156SAPE  H18S17420   1.412   2.973   9.333 -0.2649 -0.5500 -0.5985
  156SAPE  C21917421   1.398   2.814   9.476  0.2313  0.1605  0.1539
  156SAPE  H19R17422   1.324   2.738   9.509 -0.2632 -0.0366 -1.3491
  156SAPE  H19S17423   1.429   2.873   9.565 -1.3223 -0.4949  1.1683
  156SAPE  C22017424   1.522   2.745   9.418 -0.6098 -0.0747 -0.2111
  156SAPE  H20R17425   1.572   2.675   9.488 -0.1209  0.8387  0.3655
  156SAPE  H20S17426   1.590   2.829   9.392 -0.0919 -0.5712 -0.4849
  156SAPE  H20T17427   1.482   2.697   9.325 -1.1120  0.6189 -0.3627
  156SAPE   C3317428   1.069   2.029   9.704  0.2067  0.6319  0.5897
  156SAPE   H3X17429   0.998   2.113   9.688 -0.9272 -0.2508  0.8171
  156SAPE   H3Y17430   1.019   1.930   9.711 -0.4129  0.7858 -1.2684
  156SAPE   C3417431   1.165   2.009   9.584  0.8412 -0.3862 -1.1550
  156SAPE   H4X17432   1.227   1.920   9.603 -0.2546 -0.4497  3.2179
  156SAPE   H4Y17433   1.239   2.092   9.588  3.0610 -2.3181 -0.1929
  156SAPE   C3517434   1.089   1.995   9.454 -0.2706 -0.2035 -0.1312
  156SAPE   H5X17435   1.058   2.099   9.433  1.4586  0.4098  0.2462
  156SAPE   H5Y17436   1.002   1.925   9.458 -0.7940  0.3206 -1.4898
  156SAPE   C3617437   1.185   1.955   9.338  0.2428  0.3376  0.2129
  156SAPE   H6X17438   1.199   1.845   9.339 -1.3520  0.0587 -1.7661
  156SAPE   H6Y17439   1.285   2.005   9.338 -0.0860  1.2336 -2.7440
  156SAPE   C3717440   1.125   2.001   9.199 -0.4033 -0.2032  0.3548
  156SAPE   H7X17441   1.139   2.112   9.202  2.7106 -0.5071  1.9826
  156SAPE   H7Y17442   1.023   1.958   9.195  0.5265 -2.6208  1.2151
  156SAPE   C3817443   1.211   1.955   9.078 -0.8204  0.1114  0.4670
  156SAPE   H8X17444   1.239   1.848   9.088  2.6687  0.6879 -1.4769
  156SAPE   H8Y17445   1.309   2.008   9.071  0.5282 -2.4380 -2.7281
  156SAPE   C3917446   1.116   1.967   8.956  0.0781  1.1811  0.3294
  156SAPE   H9X17447   1.064   2.064   8.941 -0.8320  0.8241  1.0483
  156SAPE   H9Y17448   1.046   1.883   8.976  0.4934  0.4315 -1.1879
  156SAPE  C31017449   1.181   1.929   8.818 -0.6833  0.4454  0.0343
  156SAPE  H10X17450   1.114   1.889   8.739  2.0043  1.2132 -2.8684
  156SAPE  H10Y17451   1.266   1.858   8.820 -0.2477  0.9826  1.0217
  156SAPE  C31117452   1.253   2.062   8.766  0.6704  0.2279 -0.0230
  156SAPE  H11X17453   1.312   2.028   8.678 -0.9074  0.3954 -1.1865
  156SAPE  H11Y17454   1.318   2.095   8.850 -0.1456 -0.6959  0.9909
  156SAPE  C31217455   1.163   2.173   8.709  0.2440 -0.4495  0.6528
  156SAPE  H12X17456   1.066   2.123   8.688  0.4885 -1.1506  1.1500
  156SAPE  H12Y17457   1.200   2.212   8.611 -2.2896 -0.5817 -0.4381
  156SAPE  C31317458   1.150   2.292   8.815  0.7124  0.0714  0.3128
  156SAPE  H13X17459   1.242   2.308   8.876  0.6670  2.4023 -0.1286
  156SAPE  H13Y17460   1.078   2.262   8.894  0.7199  1.6811  0.9627
  156SAPE  C31417461   1.124   2.435   8.759  0.6608  0.2933  0.1111
  156SAPE  H14X17462   1.209   2.457   8.691 -0.0131 -1.8540 -1.5506
  156SAPE  H14Y17463   1.132   2.508   8.842  0.5669 -0.6857  1.0037
  156SAPE  C31517464   0.998   2.447   8.672 -0.0931  0.1479  0.2451
  156SAPE  H15X17465   0.903   2.431   8.729  1.8895 -1.5155  3.3755
  156SAPE  H15Y17466   1.000   2.372   8.590  0.7575  1.6073 -1.1135
  156SAPE  C31617467   0.988   2.586   8.605  0.2515 -0.4428  0.5778
  156SAPE  H16X17468   0.915   2.568   8.523  1.5204  0.6023 -0.8286
  156SAPE  H16Y17469   1.087   2.609   8.560 -1.0751 -0.4296 -2.6316
  156SAPE  C31717470   0.917   2.700   8.695 -0.1528 -0.2835  0.0831
  156SAPE  H17X17471   0.967   2.708   8.794 -1.6721  1.6713  0.7514
  156SAPE  H17Y17472   0.810   2.689   8.722  0.3455  0.9301  2.9535
  156SAPE  C31817473   0.944   2.841   8.639  0.0890 -0.2112 -0.4493
  156SAPE  H18X17474   0.893   2.918   8.701  2.5123  0.1110  1.2679
  156SAPE  H18Y17475   0.900   2.844   8.538  0.3981  1.8953 -0.5662
  156SAPE  H18Z17476   1.053   2.864   8.639  0.1020  0.0431  2.3032
  157SAPE     N17477   6.637   1.859  10.799  0.0059  0.4439  0.2312
  157SAPE   HN117478   6.640   1.958  10.769  2.2435 -0.1788 -1.9683
  157SAPE   HN217479   6.734   1.828  10.779  0.0882  0.7109  0.2142
  157SAPE   HN317480   6.580   1.815  10.724  1.5961  0.0657 -0.8144
  157SAPE   C1217481   6.609   1.833  10.945  0.1704  0.3018  0.7432
  157SAPE  H12A17482   6.640   1.923  11.002 -1.6685  1.1936  0.3886
  157SAPE  H12B17483   6.657   1.739  10.980  0.8978  0.6243  0.6274
  157SAPE   C1117484   6.459   1.822  10.978  0.9022  0.9635  0.6036
  157SAPE  H11A17485   6.437   1.796  11.084 -2.7532 -0.6600 -0.3858
  157SAPE  H11B17486   6.409   1.740  10.922 -0.5458  2.9107 -1.0642
  157SAPE     P17487   6.280   1.945  10.840  0.0142 -0.0762  0.2542
  157SAPE   O1317488   6.186   1.829  10.863 -0.0403 -0.4214  0.2429
  157SAPE   O1417489   6.227   2.084  10.833 -0.4383 -0.1234 -1.0165
  157SAPE   O1217490   6.381   1.942  10.954 -0.1486 -0.0406 -0.5154
  157SAPE   O1117491   6.369   1.901  10.716 -0.1990 -0.1377 -0.8314
  157SAPE    C117492   6.317   1.847  10.593 -0.0915  0.2558  0.1133
  157SAPE    HA17493   6.208   1.864  10.576 -0.0168  0.6620  0.0129
  157SAPE    HB17494   6.353   1.901  10.503  0.7264  0.8988  0.7986
  157SAPE    C217495   6.354   1.701  10.594 -0.5805  0.1330 -0.2055
  157SAPE    HS17496   6.417   1.693  10.685 -1.2442 -1.7274  0.1380
  157SAPE   O2117497   6.427   1.664  10.474 -0.3774 -0.2122  0.3974
  157SAPE   C2117498   6.552   1.709  10.469  0.0701 -0.1319 -0.1844
  157SAPE   O2217499   6.612   1.754  10.565 -0.4994  0.1935  0.1078
  157SAPE   C2217500   6.603   1.698  10.326  0.6685  0.0910  0.7722
  157SAPE   H2R17501   6.609   1.591  10.299 -0.0131  0.1012  0.5683
  157SAPE   H2S17502   6.525   1.742  10.260  2.1914 -0.8036 -1.7515
  157SAPE    C317503   6.226   1.608  10.622 -1.1197 -0.4573 -0.6532
  157SAPE    HX17504   6.171   1.666  10.700  2.8432  1.5657  0.9464
  157SAPE    HY17505   6.268   1.516  10.667  0.4821  0.9251  0.8885
  157SAPE   O3117506   6.147   1.591  10.505 -0.0637  0.0219 -0.2054
  157SAPE   C3117507   6.089   1.473  10.483 -0.0539 -1.1149  0.7479
  157SAPE   O3217508   6.084   1.383  10.564 -0.0487 -0.3096  0.3012
  157SAPE   C3217509   6.030   1.470  10.333  0.4413 -0.3605 -0.6944
  157SAPE   H2X17510   5.937   1.531  10.326  1.8436  1.7212 -2.5438
  157SAPE   H2Y17511   6.009   1.362  10.342 -1.9743  0.1210  0.3060
  157SAPE   C2317512   6.736   1.777  10.301  0.0403  0.4764  0.2323
  157SAPE   H3R17513   6.818   1.746  10.369  0.4892  2.6354  0.7468
  157SAPE   H3S17514   6.722   1.883  10.328  1.9121  0.6365  0.7436
  157SAPE   C2417515   6.782   1.770  10.154 -0.0211 -0.1229  0.3055
  157SAPE   H4R17516   6.886   1.807  10.153 -1.0331  2.9827 -0.7732
  157SAPE   H4S17517   6.712   1.841  10.104  2.6501  2.7423  0.3531
  157SAPE   C2517518   6.771   1.630  10.099  1.1321  0.5611 -0.3496
  157SAPE   H5R17519   6.793   1.547  10.168 -0.4103 -1.0772 -1.7640
  157SAPE   C2617520   6.730   1.601   9.977  0.1798  0.3179  0.1407
  157SAPE   H6R17521   6.740   1.498   9.940 -1.1549  0.1955  0.0618
  157SAPE   C2717522   6.696   1.701   9.874  0.5916 -0.7038 -0.1950
  157SAPE   H7R17523   6.724   1.664   9.773 -5.2338 -4.4398 -0.8949
  157SAPE   H7S17524   6.770   1.781   9.898 -1.2068  0.0166  3.8953
  157SAPE   C2817525   6.552   1.755   9.877 -0.4479  0.0118  0.6343
  157SAPE   H8R17526   6.534   1.832   9.953  0.4500  1.5632 -0.6833
  157SAPE   C2917527   6.464   1.728   9.781  0.5633  0.1668  0.7842
  157SAPE   H9R17528   6.365   1.774   9.791  0.5570  0.5604 -0.8573
  157SAPE  C21017529   6.482   1.637   9.662  0.0824 -0.3363 -0.3674
  157SAPE  H10R17530   6.464   1.531   9.692  0.5183 -0.1571  0.5767
  157SAPE  H10S17531   6.589   1.640   9.633  0.6175 -0.6770  1.4173
  157SAPE  C21117532   6.390   1.682   9.549 -0.7248  0.4368 -0.3265
  157SAPE  H11R17533   6.291   1.637   9.531 -1.1617  2.1650 -2.6620
  157SAPE  C21217534   6.432   1.784   9.474  0.4371  0.1408 -0.1715
  157SAPE  H12R17535   6.370   1.811   9.387 -1.5920  0.1072  1.1940
  157SAPE  C21317536   6.562   1.867   9.488  1.0034  0.1069  0.5193
  157SAPE  H13R17537   6.617   1.871   9.585  1.6752  2.0863  0.0956
  157SAPE  H13S17538   6.534   1.972   9.468 -0.2659 -0.6647 -2.1156
  157SAPE  C21417539   6.644   1.820   9.375 -0.9558 -0.3306  0.2190
  157SAPE  H14R17540   6.699   1.726   9.395  0.2705 -0.1500 -2.0008
  157SAPE  C21517541   6.652   1.873   9.246 -0.1230  0.0776 -0.5234
  157SAPE  H15R17542   6.721   1.831   9.171 -0.7510 -1.3659 -0.3253
  157SAPE  C21617543   6.569   1.993   9.197 -0.2435 -0.2337 -0.7752
  157SAPE  H16R17544   6.638   2.064   9.145 -0.3747 -0.1567 -0.8444
  157SAPE  H16S17545   6.516   2.054   9.273  2.4270  0.6469  0.5085
  157SAPE  C21717546   6.477   1.937   9.079 -0.4966  0.1401  0.1470
  157SAPE  H17R17547   6.411   2.023   9.056 -2.2886 -0.7749  1.6093
  157SAPE  H17S17548   6.423   1.857   9.134  1.2416 -0.7762  0.5968
  157SAPE  C21817549   6.563   1.886   8.958 -0.2580 -0.5264 -0.1409
  157SAPE  H18R17550   6.585   1.778   8.965  0.7213 -0.3553 -0.3660
  157SAPE  H18S17551   6.663   1.934   8.968  0.5747 -2.4463  1.3755
  157SAPE  C21917552   6.505   1.894   8.817 -0.1292  0.1809  0.1852
  157SAPE  H19R17553   6.421   1.822   8.807  0.3713 -0.2191 -1.3578
  157SAPE  H19S17554   6.582   1.869   8.740  2.9728 -0.6684  3.2716
  157SAPE  C22017555   6.455   2.035   8.784  0.3319  0.4807 -0.1779
  157SAPE  H20R17556   6.529   2.115   8.803 -1.3054  1.8492  0.7430
  157SAPE  H20S17557   6.368   2.056   8.849 -0.4656  2.3771 -1.7608
  157SAPE  H20T17558   6.420   2.042   8.679 -1.8998  1.6066  0.5706
  157SAPE   C3317559   6.135   1.532  10.231  1.1419 -0.1834  0.2077
  157SAPE   H3X17560   6.181   1.624  10.273  0.7749  1.0073 -1.8275
  157SAPE   H3Y17561   6.100   1.572  10.133  0.4202  0.1632  0.5933
  157SAPE   C3417562   6.249   1.442  10.203 -0.9578  0.0986 -0.2865
  157SAPE   H4X17563   6.288   1.408  10.302  0.3949  2.4200  0.0511
  157SAPE   H4Y17564   6.326   1.507  10.157 -0.0742 -1.4154 -1.0243
  157SAPE   C3517565   6.211   1.328  10.099  0.4064  0.0392  0.4698
  157SAPE   H5X17566   6.176   1.387  10.011 -1.5373 -1.9405 -0.1665
  157SAPE   H5Y17567   6.128   1.264  10.135 -0.9267  2.1385  1.3428
  157SAPE   C3617568   6.340   1.255  10.049  0.0496  0.3351 -0.0551
  157SAPE   H6X17569   6.297   1.161  10.009  0.1645  0.1181  0.3225
  157SAPE   H6Y17570   6.397   1.252  10.144  0.3395  0.7876 -0.2086
  157SAPE   C3717571   6.410   1.332   9.937  0.0417 -0.1721 -0.2008
  157SAPE   H7X17572   6.451   1.430   9.968  1.5696 -1.3422  1.6551
  157SAPE   H7Y17573   6.333   1.347   9.858 -2.3123 -0.4655  1.9107
  157SAPE   C3817574   6.533   1.253   9.883  0.8147  0.6859 -0.4980
  157SAPE   H8X17575   6.512   1.144   9.892 -1.0736  1.1093  0.6600
  157SAPE   H8Y17576   6.620   1.269   9.950  1.2358  0.1326 -0.8971
  157SAPE   C3917577   6.580   1.282   9.741  0.4102  0.4118 -0.0144
  157SAPE   H9X17578   6.673   1.223   9.724 -1.3842 -1.7391 -3.5951
  157SAPE   H9Y17579   6.613   1.388   9.734 -0.7468  0.6905 -3.7950
  157SAPE  C31017580   6.487   1.234   9.623  0.0701 -0.1795  0.1941
  157SAPE  H10X17581   6.387   1.266   9.658 -0.9594 -1.8504 -1.0286
  157SAPE  H10Y17582   6.479   1.123   9.621 -1.9801 -0.0618 -0.6386
  157SAPE  C31117583   6.528   1.298   9.492  0.0895  0.4703  0.1682
  157SAPE  H11X17584   6.631   1.271   9.463  0.3173  0.6524  0.7953
  157SAPE  H11Y17585   6.522   1.405   9.518 -2.7224  0.8277 -1.4730
  157SAPE  C31217586   6.439   1.262   9.377 -0.7430 -0.7493 -0.0841
  157SAPE  H12X17587   6.338   1.303   9.398 -0.4295 -0.9311  2.0244
  157SAPE  H12Y17588   6.435   1.152   9.366  1.2817 -0.9020  0.2925
  157SAPE  C31317589   6.495   1.316   9.248 -0.2077 -0.1126  1.3706
  157SAPE  H13X17590   6.472   1.248   9.163  1.2374  1.2888 -0.2196
  157SAPE  H13Y17591   6.606   1.321   9.244 -0.2343 -0.5673 -0.5604
  157SAPE  C31417592   6.455   1.459   9.215  0.1743 -0.9768  0.1342
  157SAPE  H14X17593   6.496   1.529   9.290 -0.2992  1.1736 -1.5061
  157SAPE  H14Y17594   6.345   1.478   9.210 -0.0975 -1.3831  2.9936
  157SAPE  C31517595   6.513   1.498   9.074 -0.6782  0.0760 -0.8171
  157SAPE  H15X17596   6.616   1.457   9.064 -0.4511 -0.0436  1.5279
  157SAPE  H15Y17597   6.518   1.609   9.069  0.9790  0.0221 -1.0636
  157SAPE  C31617598   6.428   1.440   8.959 -0.0509  0.1749 -1.0683
  157SAPE  H16X17599   6.321   1.460   8.978  0.1057 -0.1860  0.2812
  157SAPE  H16Y17600   6.443   1.330   8.953 -1.8322 -0.0813 -1.2975
  157SAPE  C31717601   6.479   1.503   8.831  0.2663  0.1293 -0.2315
  157SAPE  H17X17602   6.590   1.494   8.832  0.3910  1.1624 -1.7070
  157SAPE  H17Y17603   6.437   1.605   8.835  1.8756  0.8679 -0.9207
  157SAPE  C31817604   6.426   1.436   8.708 -0.2869  0.5530 -0.9594
  157SAPE  H18X17605   6.460   1.494   8.619  1.7925  2.2157  0.7875
  157SAPE  H18Y17606   6.318   1.411   8.707 -0.1468 -0.2013  0.5699
  157SAPE  H18Z17607   6.481   1.340   8.702 -1.6887 -0.2822 -0.8612
  158SAPE     N17608   2.223   3.847  11.022  0.1561 -0.1403  0.0211
  158SAPE   HN117609   2.139   3.907  11.014 -0.7431 -1.1063  1.5925
  158SAPE   HN217610   2.300   3.918  11.030 -0.1243  0.1185  0.5113
  158SAPE   HN317611   2.233   3.803  10.929  0.3178 -0.0988  0.0185
  158SAPE   C1217612   2.201   3.742  11.132  0.6416 -0.5527  1.0793
  158SAPE  H12A17613   2.264   3.771  11.219  1.6624 -0.3251  0.2874
  158SAPE  H12B17614   2.237   3.643  11.096  0.6022 -0.8865  1.9376
  158SAPE   C1117615   2.051   3.717  11.150 -0.9819 -0.4326  0.1011
  158SAPE  H11A17616   2.009   3.803  11.208  1.7568 -0.0679  1.7118
  158SAPE  H11B17617   2.056   3.635  11.225  0.9794 -2.5042 -2.1424
  158SAPE     P17618   1.955   3.522  10.990 -0.1041 -0.4275 -0.3363
  158SAPE   O1317619   2.006   3.436  11.096 -0.1055 -0.3394 -0.0303
  158SAPE   O1417620   1.806   3.524  10.974  0.4564 -0.5748 -0.1433
  158SAPE   O1217621   1.989   3.678  11.025 -0.0176  0.2723 -0.3352
  158SAPE   O1117622   2.033   3.490  10.860  0.4719  0.3179 -0.3838
  158SAPE    C117623   2.053   3.580  10.754 -0.2858  0.5562  0.0112
  158SAPE    HA17624   2.022   3.684  10.778 -0.3978  0.6969 -0.7143
  158SAPE    HB17625   2.163   3.583  10.738 -0.0751 -2.6049  0.2840
  158SAPE    C217626   1.980   3.539  10.621  0.1103 -0.1782 -0.1263
  158SAPE    HS17627   1.871   3.558  10.633 -0.1168 -0.9020 -0.9502
  158SAPE   O2117628   2.012   3.408  10.581 -0.1782  0.1125  0.1057
  158SAPE   C2117629   1.911   3.347  10.519  0.2905  0.3779 -0.1287
  158SAPE   O2217630   1.807   3.400  10.489 -0.0900 -0.0535  0.0980
  158SAPE   C2217631   1.957   3.203  10.488  0.0811 -0.8748 -0.0675
  158SAPE   H2R17632   2.012   3.220  10.393 -0.3604 -2.1068 -0.5805
  158SAPE   H2S17633   2.027   3.172  10.568  1.2738  1.9144  0.0743
  158SAPE    C317634   2.039   3.634  10.513 -0.9163 -0.0085  0.3338
  158SAPE    HX17635   2.149   3.651  10.519 -1.0847  1.1786  0.3897
  158SAPE    HY17636   1.994   3.730  10.547 -1.2084  0.3869 -1.0790
  158SAPE   O3117637   2.023   3.601  10.373 -0.4212 -0.1930  0.1256
  158SAPE   C3117638   1.907   3.644  10.325 -0.1039 -0.2762  0.3509
  158SAPE   O3217639   1.821   3.690  10.396  0.4138  0.1141  0.0097
  158SAPE   C3217640   1.918   3.636  10.165  0.2429 -0.1661 -0.7468
  158SAPE   H2X17641   1.940   3.743  10.146  1.3400 -0.1309  0.5755
  158SAPE   H2Y17642   1.815   3.612  10.129 -0.9035  1.6033  1.1407
  158SAPE   C2317643   1.845   3.097  10.479 -0.1053 -0.2052  0.6841
  158SAPE   H3R17644   1.771   3.110  10.561 -0.3851 -0.0842  0.4138
  158SAPE   H3S17645   1.898   3.001  10.495 -0.0171 -0.4710 -1.0062
  158SAPE   C2417646   1.769   3.090  10.348  0.0540  0.0958 -0.5235
  158SAPE   H4R17647   1.735   3.195  10.331 -0.2972  0.4277  1.8826
  158SAPE   H4S17648   1.680   3.026  10.367 -0.6333  0.8905 -0.9617
  158SAPE   C2517649   1.852   3.049  10.235 -0.2418 -0.6355  0.3670
  158SAPE   H5R17650   1.959   3.062  10.257 -0.4705  1.7689  0.2937
  158SAPE   C2617651   1.805   3.004  10.113  0.8594  0.1118 -0.5138
  158SAPE   H6R17652   1.872   2.944  10.050  0.9719 -1.4522  1.0377
  158SAPE   C2717653   1.654   2.992  10.088  0.1758 -0.6148 -0.1529
  158SAPE   H7R17654   1.589   3.042  10.163  0.7664  1.3040 -0.8831
  158SAPE   H7S17655   1.620   2.886  10.081  3.0463 -1.6972  0.6320
  158SAPE   C2817656   1.603   3.061   9.961  0.3899  0.5274 -0.7298
  158SAPE   H8R17657   1.619   3.167   9.939  0.3756  0.2795 -2.0330
  158SAPE   C2917658   1.514   3.006   9.874  0.3912 -0.0082 -0.7100
  158SAPE   H9R17659   1.500   3.065   9.782  0.6451  2.7803  0.9376
  158SAPE  C21017660   1.466   2.863   9.875  0.5800  0.1563  0.2926
  158SAPE  H10R17661   1.544   2.784   9.869 -1.6464 -2.2531  1.1193
  158SAPE  H10S17662   1.412   2.850   9.778 -0.5962 -1.5476  1.1243
  158SAPE  C21117663   1.359   2.824   9.980  0.1863  0.5737  0.4734
  158SAPE  H11R17664   1.375   2.858  10.084  2.4204 -0.6387  0.6056
  158SAPE  C21217665   1.245   2.749   9.965 -0.0988 -0.1391 -0.3135
  158SAPE  H12R17666   1.178   2.734  10.051  0.4671 -1.2244 -0.0420
  158SAPE  C21317667   1.193   2.680   9.840  0.3881 -0.5517 -0.3370
  158SAPE  H13R17668   1.267   2.674   9.757 -2.5475  0.9231 -3.2578
  158SAPE  H13S17669   1.107   2.743   9.811 -1.1933 -1.7257  1.5957
  158SAPE  C21417670   1.155   2.542   9.856  0.2634  0.1425  0.7383
  158SAPE  H14R17671   1.141   2.512   9.961  2.2756 -2.0332  0.4697
  158SAPE  C21517672   1.150   2.446   9.761  0.3575  0.3934  0.1244
  158SAPE  H15R17673   1.099   2.352   9.789 -0.3005  0.5589 -0.5118
  158SAPE  C21617674   1.183   2.455   9.618  0.3203 -0.3389 -0.5179
  158SAPE  H16R17675   1.282   2.405   9.613 -0.1443 -1.6623  1.9551
  158SAPE  H16S17676   1.197   2.563   9.596 -3.4017  0.3896  0.0145
  158SAPE  C21717677   1.071   2.400   9.531  0.0801 -0.5396 -0.4195
  158SAPE  H17R17678   0.985   2.469   9.544 -0.3868 -1.0424 -0.7621
  158SAPE  H17S17679   1.037   2.306   9.580 -2.1296  0.6098  0.3533
  158SAPE  C21817680   1.107   2.382   9.388 -0.1618 -0.5403  0.3724
  158SAPE  H18R17681   1.015   2.353   9.333 -1.2438 -2.2552  2.8907
  158SAPE  H18S17682   1.179   2.298   9.373  1.6545  0.7674  1.3535
  158SAPE  C21917683   1.164   2.507   9.310  0.0812  0.2570  0.1041
  158SAPE  H19R17684   1.258   2.548   9.352  0.4052  0.3642 -0.6961
  158SAPE  H19S17685   1.109   2.603   9.326  1.9135  1.5685 -1.0755
  158SAPE  C22017686   1.179   2.479   9.158  0.7146  0.2602  0.4296
  158SAPE  H20R17687   1.082   2.510   9.113 -1.0378 -1.3386  2.7980
  158SAPE  H20S17688   1.182   2.369   9.142 -2.3936 -0.1373  1.7696
  158SAPE  H20T17689   1.266   2.520   9.103 -1.0909 -0.2309 -3.1417
  158SAPE   C3317690   2.025   3.544  10.110  0.5974  0.0428 -0.2586
  158SAPE   H3X17691   2.112   3.562  10.176 -0.1340 -1.5896  1.2540
  158SAPE   H3Y17692   2.038   3.573  10.004  0.3502  2.4252  0.3147
  158SAPE   C3417693   1.985   3.397  10.106  0.3520 -0.4801 -0.7593
  158SAPE   H4X17694   1.960   3.371  10.211 -1.8418  3.5218 -0.0801
  158SAPE   H4Y17695   2.072   3.337  10.072  0.7404  0.5701 -1.6791
  158SAPE   C3517696   1.870   3.364  10.007 -0.3482 -0.0271 -0.3364
  158SAPE   H5X17697   1.779   3.376  10.069 -0.1220 -2.5827  0.6059
  158SAPE   H5Y17698   1.877   3.256   9.979  0.7944  0.3765 -1.7136
  158SAPE   C3617699   1.852   3.435   9.877  0.7374  0.3448  0.4318
  158SAPE   H6X17700   1.837   3.544   9.895 -0.6993  0.2083  0.2000
  158SAPE   H6Y17701   1.758   3.398   9.830 -0.0526  2.5874  0.0992
  158SAPE   C3717702   1.969   3.414   9.776  0.4171  0.3332  0.0679
  158SAPE   H7X17703   2.008   3.310   9.777  3.9311  1.3851 -3.6962
  158SAPE   H7Y17704   2.064   3.468   9.796  2.4138 -3.3586  1.5989
  158SAPE   C3817705   1.927   3.446   9.634  0.1150 -0.1264  0.2350
  158SAPE   H8X17706   1.910   3.555   9.648 -3.4296 -0.5547  0.2710
  158SAPE   H8Y17707   1.826   3.403   9.614 -1.0741  3.5074 -2.7205
  158SAPE   C3917708   2.026   3.424   9.519  0.7097 -0.0651  0.5721
  158SAPE   H9X17709   2.101   3.342   9.522  1.0817  0.2602  0.2612
  158SAPE   H9Y17710   2.076   3.523   9.512  1.5175 -0.5626 -0.8801
  158SAPE  C31017711   1.954   3.414   9.385 -0.8824 -0.4073  0.3678
  158SAPE  H10X17712   1.894   3.505   9.367 -1.3607 -0.6442  0.7430
  158SAPE  H10Y17713   1.886   3.326   9.388  1.4792 -2.3467  1.2794
  158SAPE  C31117714   2.055   3.388   9.275 -0.0262 -0.4535  0.4342
  158SAPE  H11X17715   2.105   3.290   9.293  0.0597 -0.7674 -1.3354
  158SAPE  H11Y17716   2.124   3.475   9.275  2.0669 -2.0196  1.1050
  158SAPE  C31217717   1.989   3.384   9.132 -0.4470 -0.1816 -0.1720
  158SAPE  H12X17718   1.935   3.287   9.126  0.3399 -0.5561 -1.6591
  158SAPE  H12Y17719   2.068   3.386   9.053 -0.4449 -0.4819 -0.1791
  158SAPE  C31317720   1.893   3.504   9.097  0.6295 -0.0386 -0.4671
  158SAPE  H13X17721   1.933   3.602   9.132 -2.5706  0.9755  0.6771
  158SAPE  H13Y17722   1.805   3.485   9.162 -0.2264 -1.7463 -2.0485
  158SAPE  C31417723   1.865   3.525   8.950  0.1377 -0.3473  0.1108
  158SAPE  H14X17724   1.785   3.599   8.931 -0.4297 -1.8980 -5.1105
  158SAPE  H14Y17725   1.823   3.439   8.893 -2.4177  0.5626  0.4765
  158SAPE  C31517726   1.981   3.568   8.866 -0.1050 -0.7038  0.1235
  158SAPE  H15X17727   2.048   3.480   8.857 -0.4271 -1.1188  1.6036
  158SAPE  H15Y17728   2.040   3.650   8.912 -1.3851 -0.6347  1.7571
  158SAPE  C31617729   1.934   3.617   8.726 -1.1483  0.4050  0.6167
  158SAPE  H16X17730   1.878   3.712   8.731 -0.9069  0.7370 -1.7497
  158SAPE  H16Y17731   1.862   3.543   8.686  0.0134 -0.9750  0.9765
  158SAPE  C31717732   2.054   3.631   8.625  0.7241  0.3983 -0.6222
  158SAPE  H17X17733   2.106   3.726   8.650 -0.2663  1.0287 -0.8661
  158SAPE  H17Y17734   2.000   3.644   8.528 -0.6462 -2.6416 -0.3731
  158SAPE  C31817735   2.141   3.506   8.605  0.6355 -0.2156 -0.1299
  158SAPE  H18X17736   2.215   3.503   8.688  0.9549  2.9052 -0.1900
  158SAPE  H18Y17737   2.198   3.512   8.511  0.2686  1.8698 -0.2732
  158SAPE  H18Z17738   2.078   3.414   8.607 -0.4611  0.5178  0.7854
  159SAPE     N17739   0.334   5.383   6.443 -0.3788  0.0712 -0.0368
  159SAPE   HN117740   0.368   5.472   6.484 -1.8832 -0.0386  1.5548
  159SAPE   HN217741   0.374   5.375   6.347 -0.1169  2.0049 -0.1336
  159SAPE   HN317742   0.230   5.383   6.444 -0.3840 -0.0501 -0.4173
  159SAPE   C1217743   0.388   5.272   6.538 -0.0792  0.3086 -0.1507
  159SAPE  H12A17744   0.499   5.276   6.536 -0.0585  0.6465  0.8723
  159SAPE  H12B17745   0.363   5.172   6.497  2.9106 -0.7294  0.3288
  159SAPE   C1117746   0.336   5.282   6.687 -0.0992 -0.5094 -0.3355
  159SAPE  H11A17747   0.368   5.384   6.718  1.9295 -1.4183  0.7481
  159SAPE  H11B17748   0.383   5.198   6.741 -1.3571 -2.8637 -2.6705
  159SAPE     P17749   0.089   5.368   6.679 -0.0738 -0.0497 -0.1430
  159SAPE   O1317750   0.084   5.414   6.542  0.8263 -0.0858 -0.0493
  159SAPE   O1417751  -0.037   5.308   6.730 -0.9201 -0.1070 -0.2168
  159SAPE   O1217752   0.198   5.257   6.702 -0.0143  0.0129 -0.2117
  159SAPE   O1117753   0.134   5.486   6.774 -0.4060 -0.4554 -0.1923
  159SAPE    C117754   0.172   5.462   6.914 -0.1885  0.1549  0.1381
  159SAPE    HA17755   0.141   5.363   6.953  0.6886 -0.4978 -0.7934
  159SAPE    HB17756   0.281   5.482   6.919 -0.4051  1.6299 -0.5672
  159SAPE    C217757   0.097   5.566   7.012 -0.2477  1.2976  0.1586
  159SAPE    HS17758  -0.012   5.561   6.993 -0.5670  1.7846  1.6863
  159SAPE   O2117759   0.153   5.694   6.992 -0.4939  1.0473 -0.0982
  159SAPE   C2117760   0.085   5.798   7.030 -0.3159  0.2810 -0.1938
  159SAPE   O2217761  -0.032   5.794   7.066  0.0978  0.5927  0.0767
  159SAPE   C2217762   0.173   5.916   7.039 -0.3614 -0.2730 -0.7796
  159SAPE   H2R17763   0.273   5.879   7.070  1.0370  2.5002 -1.6974
  159SAPE   H2S17764   0.183   5.951   6.934  1.1835  0.8921 -0.2749
  159SAPE    C317765   0.125   5.522   7.154  0.3459 -0.1117 -0.3854
  159SAPE    HX17766   0.095   5.593   7.234  0.9258 -0.6157  0.2887
  159SAPE    HY17767   0.236   5.523   7.152  0.3768  2.0768 -1.8873
  159SAPE   O3117768   0.078   5.388   7.190  0.0336 -0.2351 -0.0986
  159SAPE   C3117769  -0.050   5.374   7.203 -0.5814  0.1818  0.2926
  159SAPE   O3217770  -0.131   5.464   7.189 -0.1720  0.1202  0.2580
  159SAPE   C3217771  -0.086   5.228   7.248 -0.1750 -0.2082  0.4504
  159SAPE   H2X17772  -0.000   5.190   7.308  0.4932  0.4848 -0.0583
  159SAPE   H2Y17773  -0.086   5.154   7.165 -0.0751  1.3692 -1.0164
  159SAPE   C2317774   0.131   6.028   7.134  1.1551 -0.1123 -0.2582
  159SAPE   H3R17775   0.034   6.062   7.092  1.6040 -0.7925 -1.9320
  159SAPE   H3S17776   0.202   6.112   7.126  0.5986  0.5795  1.6283
  159SAPE   C2417777   0.140   6.006   7.291  0.3498  0.0724  0.4670
  159SAPE   H4R17778   0.125   6.102   7.345  0.3060  0.0661  0.4670
  159SAPE   H4S17779   0.241   5.967   7.316  0.2768 -1.2232 -1.0507
  159SAPE   C2517780   0.026   5.919   7.337 -0.1168 -0.4162  0.7936
  159SAPE   H5R17781  -0.067   5.934   7.280  0.6875 -1.4804 -0.9005
  159SAPE   C2617782   0.029   5.818   7.422  0.2783  0.0377  0.1161
  159SAPE   H6R17783  -0.063   5.767   7.453 -0.4698  2.7989  2.9401
  159SAPE   C2717784   0.157   5.787   7.497  0.9326  0.2487 -0.5454
  159SAPE   H7R17785   0.203   5.864   7.563  1.8201 -0.3726 -0.4203
  159SAPE   H7S17786   0.231   5.762   7.417  0.3653 -2.4523 -0.3332
  159SAPE   C2817787   0.139   5.664   7.580 -0.3977 -0.5458 -0.3216
  159SAPE   H8R17788   0.097   5.576   7.530 -0.9619 -0.0729 -0.6936
  159SAPE   C2917789   0.178   5.648   7.712  0.2115  0.1571  0.3982
  159SAPE   H9R17790   0.154   5.553   7.761  2.3178 -0.3366  0.5626
  159SAPE  C21017791   0.245   5.750   7.802  0.1450 -0.3437  0.7356
  159SAPE  H10R17792   0.323   5.800   7.741  0.5565  1.1158  2.3543
  159SAPE  H10S17793   0.309   5.710   7.884  1.4318  2.4925  1.2519
  159SAPE  C21117794   0.139   5.836   7.859  0.0061  0.3788 -0.4419
  159SAPE  H11R17795   0.037   5.839   7.819 -0.2761  1.2360  0.3073
  159SAPE  C21217796   0.158   5.907   7.970  0.0592 -0.4083 -0.3917
  159SAPE  H12R17797   0.074   5.968   8.007 -1.1464 -0.8219 -2.3387
  159SAPE  C21317798   0.284   5.902   8.066 -0.0917  0.0160  0.1598
  159SAPE  H13R17799   0.380   5.883   8.014 -1.3083  0.1328 -2.2552
  159SAPE  H13S17800   0.259   5.812   8.127  0.1321 -0.4247 -0.3907
  159SAPE  C21417801   0.294   6.014   8.167  0.0746 -0.8064 -0.1751
  159SAPE  H14R17802   0.293   6.118   8.131 -3.9615 -0.3569  0.7205
  159SAPE  C21517803   0.301   6.005   8.302  0.6595  0.1598  0.6907
  159SAPE  H15R17804   0.307   6.103   8.352 -2.5588  1.9541 -2.0105
  159SAPE  C21617805   0.290   5.887   8.403 -0.1063  0.6128  0.1415
  159SAPE  H16R17806   0.365   5.888   8.485 -1.1735 -1.0230  1.1832
  159SAPE  H16S17807   0.302   5.788   8.353 -0.6581 -0.7565  2.5532
  159SAPE  C21717808   0.159   5.892   8.484 -0.0800  0.1488 -0.2921
  159SAPE  H17R17809   0.155   5.980   8.552  0.8795 -0.8238  1.0948
  159SAPE  H17S17810   0.162   5.806   8.555  0.6641 -0.0915 -0.6059
  159SAPE  C21817811   0.033   5.878   8.392  0.2526 -1.1395  0.3216
  159SAPE  H18R17812   0.057   5.833   8.293 -2.0826 -1.6430 -0.0833
  159SAPE  H18S17813   0.004   5.984   8.380 -2.0471 -1.6660  0.7017
  159SAPE  C21917814  -0.100   5.815   8.448 -0.4803  0.2753 -0.0215
  159SAPE  H19R17815  -0.099   5.869   8.546  0.5796  1.1056 -0.4755
  159SAPE  H19S17816  -0.086   5.708   8.474  1.1556  0.2834 -0.7553
  159SAPE  C22017817  -0.215   5.845   8.347 -0.1775  0.3298  0.1101
  159SAPE  H20R17818  -0.289   5.762   8.349 -1.3680  1.3244 -0.9335
  159SAPE  H20S17819  -0.176   5.853   8.244 -0.9551  1.1804 -0.1315
  159SAPE  H20T17820  -0.268   5.939   8.375 -0.4131  0.2927 -0.2168
  159SAPE   C3317821  -0.224   5.227   7.324  0.1524  0.2141 -0.8698
  159SAPE   H3X17822  -0.303   5.265   7.256 -0.5200 -0.4835 -0.4872
  159SAPE   H3Y17823  -0.222   5.284   7.419  0.6867  1.2747 -1.4929
  159SAPE   C3417824  -0.272   5.089   7.358 -0.3509 -0.5622 -0.7970
  159SAPE   H4X17825  -0.311   5.036   7.268  0.2066  0.1174 -1.4521
  159SAPE   H4Y17826  -0.355   5.097   7.432  1.2587  1.6438  0.8696
  159SAPE   C3517827  -0.164   4.997   7.425 -0.2775 -0.6204 -0.2586
  159SAPE   H5X17828  -0.098   5.053   7.494 -1.7039 -0.1778  0.8070
  159SAPE   H5Y17829  -0.104   4.949   7.345  0.4118 -2.3808  1.2510
  159SAPE   C3617830  -0.229   4.883   7.499 -0.3880 -1.1429  0.0601
  159SAPE   H6X17831  -0.149   4.807   7.511  0.2156 -0.3003  1.9165
  159SAPE   H6Y17832  -0.310   4.838   7.438 -1.3348  0.3693  0.1575
  159SAPE   C3717833  -0.264   4.915   7.645  0.0614 -0.1358 -0.7080
  159SAPE   H7X17834  -0.312   4.822   7.683 -0.0278 -0.4640 -1.6123
  159SAPE   H7Y17835  -0.333   5.002   7.643  1.1744  0.8420  1.0400
  159SAPE   C3817836  -0.159   4.954   7.748 -0.3651 -1.0600  0.5770
  159SAPE   H8X17837  -0.105   5.045   7.716 -0.3678 -1.6027 -1.0477
  159SAPE   H8Y17838  -0.084   4.873   7.763  1.3091  0.4399  0.4654
  159SAPE   C3917839  -0.219   4.998   7.880  0.4097 -0.5332 -0.5122
  159SAPE   H9X17840  -0.278   4.914   7.922  1.1809 -1.2594 -0.8682
  159SAPE   H9Y17841  -0.296   5.078   7.869 -0.4598 -1.4829 -1.5799
  159SAPE  C31017842  -0.107   5.016   7.980  0.1764 -0.1960 -1.2462
  159SAPE  H10X17843  -0.050   5.107   7.952  2.0003 -1.1533 -0.7978
  159SAPE  H10Y17844  -0.037   4.930   7.983 -1.0574 -1.2237  1.2951
  159SAPE  C31117845  -0.162   5.035   8.124 -0.2522 -0.2898  0.2870
  159SAPE  H11X17846  -0.239   4.958   8.146 -1.9609  1.0055 -0.8018
  159SAPE  H11Y17847  -0.206   5.137   8.126 -0.1802 -0.2112 -1.1558
  159SAPE  C31217848  -0.059   5.039   8.241  0.4190  0.0556 -0.3722
  159SAPE  H12X17849   0.008   5.127   8.225 -2.0142  2.0603 -0.1494
  159SAPE  H12Y17850  -0.007   4.942   8.254  0.0905  0.0130  0.7222
  159SAPE  C31317851  -0.127   5.071   8.376 -0.0892 -0.0341  0.6332
  159SAPE  H13X17852  -0.201   4.990   8.395 -0.0400  0.3313  2.5699
  159SAPE  H13Y17853  -0.174   5.171   8.362  2.5032  1.0643 -0.8434
  159SAPE  C31417854  -0.029   5.078   8.489  0.4387 -0.3747  0.6187
  159SAPE  H14X17855   0.023   4.982   8.508  0.1602 -0.3776  1.4262
  159SAPE  H14Y17856  -0.083   5.103   8.583  2.2212 -1.3437  1.9652
  159SAPE  C31517857   0.085   5.183   8.469 -0.6223  0.4699  0.2277
  159SAPE  H15X17858   0.044   5.275   8.424 -0.2445 -0.5624 -2.4084
  159SAPE  H15Y17859   0.156   5.153   8.389  1.5915  0.2304  2.1906
  159SAPE  C31617860   0.154   5.213   8.600  0.4527  0.1393  0.8109
  159SAPE  H16X17861   0.151   5.119   8.659 -2.1263  0.1449  0.7932
  159SAPE  H16Y17862   0.083   5.288   8.640 -1.2664  0.2412 -2.1594
  159SAPE  C31717863   0.295   5.266   8.590  0.2166 -0.2786 -0.5494
  159SAPE  H17X17864   0.346   5.191   8.526  1.7346 -1.1245  1.5250
  159SAPE  H17Y17865   0.346   5.268   8.689 -1.5343  0.3997  0.3850
  159SAPE  C31817866   0.311   5.401   8.522  0.1652  0.1114  0.3544
  159SAPE  H18X17867   0.417   5.436   8.530 -0.1124  0.7732  1.4060
  159SAPE  H18Y17868   0.246   5.480   8.564 -1.5345 -0.4812 -1.0771
  159SAPE  H18Z17869   0.280   5.392   8.416 -0.8523 -0.7380  0.7020
  160SAPE     N17870   0.762   6.030   6.551  0.4780 -0.1207 -0.3271
  160SAPE   HN117871   0.851   5.984   6.579  2.7305  4.6707  1.3021
  160SAPE   HN217872   0.705   5.956   6.504  2.8764 -2.2031 -0.2153
  160SAPE   HN317873   0.781   6.100   6.476 -1.5899  1.3341  0.4455
  160SAPE   C1217874   0.690   6.083   6.663 -0.4109 -0.8890 -0.6849
  160SAPE  H12A17875   0.758   6.152   6.716 -0.0455 -0.4294 -1.7251
  160SAPE  H12B17876   0.650   6.003   6.729  0.3524  1.6880  3.1877
  160SAPE   C1117877   0.576   6.177   6.620  0.4044 -0.5410 -0.3168
  160SAPE  H11A17878   0.513   6.196   6.710 -1.3903  0.8369 -1.7808
  160SAPE  H11B17879   0.519   6.113   6.549  0.2064  0.3209 -0.9564
  160SAPE     P17880   0.526   6.417   6.547  0.3501 -0.0830  0.1524
  160SAPE   O1317881   0.589   6.550   6.556  0.2893 -0.5536  0.2494
  160SAPE   O1417882   0.472   6.402   6.412  0.3296 -0.0611 -0.1738
  160SAPE   O1217883   0.626   6.295   6.565  0.0726 -0.4234  0.7394
  160SAPE   O1117884   0.411   6.396   6.649 -0.4083  0.5114  0.4106
  160SAPE    C117885   0.373   6.480   6.758 -0.1843  0.1962  0.7019
  160SAPE    HA17886   0.351   6.576   6.707  0.6844 -0.2472 -0.5754
  160SAPE    HB17887   0.286   6.433   6.807  0.0905 -1.9409 -0.6971
  160SAPE    C217888   0.486   6.486   6.861  0.0494 -0.1136 -0.7497
  160SAPE    HS17889   0.566   6.524   6.793 -1.1121  1.4604 -1.3088
  160SAPE   O2117890   0.528   6.361   6.919  0.4539  0.4155  0.2883
  160SAPE   C2117891   0.446   6.287   6.989  0.7706  0.4107 -0.6833
  160SAPE   O2217892   0.333   6.326   7.018 -0.2239 -0.2036  0.2350
  160SAPE   C2217893   0.508   6.149   7.036 -0.0060  0.0873 -0.2499
  160SAPE   H2R17894   0.421   6.086   7.065  0.1897 -0.2726 -0.4417
  160SAPE   H2S17895   0.548   6.092   6.949  1.5564  3.0581 -1.6434
  160SAPE    C317896   0.457   6.594   6.967  0.2213  0.5017  0.5003
  160SAPE    HX17897   0.360   6.567   7.014  0.4728 -0.0466  0.7230
  160SAPE    HY17898   0.424   6.685   6.914 -0.0855  0.9499  1.4440
  160SAPE   O3117899   0.558   6.604   7.066  0.0631  0.8587 -0.0480
  160SAPE   C3117900   0.663   6.680   7.024  0.7150 -0.1222  0.0364
  160SAPE   O3217901   0.677   6.734   6.916  0.0431  0.3497  0.0696
  160SAPE   C3217902   0.759   6.682   7.139 -0.3720  0.6159  0.3393
  160SAPE   H2X17903   0.708   6.666   7.236  0.5182 -0.5945  0.6327
  160SAPE   H2Y17904   0.806   6.783   7.139  0.1492  0.3766  0.4058
  160SAPE   C2317905   0.619   6.165   7.134  0.3067  0.5883 -0.1220
  160SAPE   H3R17906   0.711   6.210   7.091  0.7499 -0.0420  0.1558
  160SAPE   H3S17907   0.636   6.062   7.170 -1.0983  0.6627  0.8463
  160SAPE   C2417908   0.587   6.254   7.258  0.3808 -0.0871 -0.4382
  160SAPE   H4R17909   0.606   6.363   7.248  0.5754 -0.0107  0.6442
  160SAPE   H4S17910   0.671   6.232   7.328  3.0187  0.4932 -3.2002
  160SAPE   C2517911   0.451   6.227   7.317 -0.2280  0.0077 -0.4336
  160SAPE   H5R17912   0.364   6.259   7.258 -1.0494 -0.5718  0.4324
  160SAPE   C2617913   0.423   6.175   7.443  0.2839  0.7524  1.6878
  160SAPE   H6R17914   0.319   6.148   7.465  0.6306 -1.4347  0.9297
  160SAPE   C2717915   0.529   6.124   7.536 -0.4752  0.4251  0.2790
  160SAPE   H7R17916   0.588   6.208   7.578  1.9917 -1.1408  0.1286
  160SAPE   H7S17917   0.603   6.058   7.487 -1.8313  0.1404 -1.4778
  160SAPE   C2817918   0.472   6.053   7.657 -0.2349 -0.6850  0.6950
  160SAPE   H8R17919   0.374   6.004   7.642 -0.5915  0.6729 -2.1156
  160SAPE   C2917920   0.526   6.027   7.774 -0.2260 -0.0960  0.1097
  160SAPE   H9R17921   0.464   5.979   7.851 -0.5127  0.0111 -0.0540
  160SAPE  C21017922   0.659   6.066   7.830  0.2820  0.3585 -0.3353
  160SAPE  H10R17923   0.724   6.101   7.748  0.2379  1.2092 -0.0166
  160SAPE  H10S17924   0.698   5.976   7.884 -0.0294  0.3793 -0.0713
  160SAPE  C21117925   0.636   6.175   7.929 -0.9590  0.2402  0.2800
  160SAPE  H11R17926   0.586   6.261   7.883  0.1166  1.0154  0.5442
  160SAPE  C21217927   0.668   6.188   8.057  0.2202  0.1225 -0.1421
  160SAPE  H12R17928   0.637   6.275   8.116  1.6973  0.6925 -0.1475
  160SAPE  C21317929   0.747   6.091   8.135 -0.5665 -0.5452  0.5939
  160SAPE  H13R17930   0.820   6.034   8.073 -0.6753  0.2922 -0.3193
  160SAPE  H13S17931   0.683   6.017   8.188 -3.4985 -0.4125 -2.4748
  160SAPE  C21417932   0.821   6.181   8.232 -0.0191 -0.5421  0.4546
  160SAPE  H14R17933   0.901   6.242   8.187 -0.0067  1.5786  3.0321
  160SAPE  C21517934   0.810   6.196   8.366 -0.3992 -0.7383  0.0668
  160SAPE  H15R17935   0.884   6.265   8.411 -0.5750  0.7790 -1.8515
  160SAPE  C21617936   0.712   6.120   8.454 -0.6183  0.0282 -0.7615
  160SAPE  H16R17937   0.761   6.030   8.498 -1.3311 -0.5007 -1.0410
  160SAPE  H16S17938   0.626   6.082   8.395  0.9543 -2.0592 -1.8396
  160SAPE  C21717939   0.646   6.211   8.563  0.2335  0.1340 -0.4196
  160SAPE  H17R17940   0.718   6.249   8.638 -2.2424  1.1534  1.5866
  160SAPE  H17S17941   0.586   6.136   8.619 -0.2964  2.0534  1.6775
  160SAPE  C21817942   0.555   6.318   8.503 -0.3867  0.0400 -0.1769
  160SAPE  H18R17943   0.522   6.283   8.403  1.1994 -1.5961 -0.1737
  160SAPE  H18S17944   0.615   6.411   8.494 -1.1375  0.6409  0.8275
  160SAPE  C21917945   0.430   6.353   8.574 -0.2316  0.3739 -0.4496
  160SAPE  H19R17946   0.442   6.412   8.667  1.3489 -0.0151 -0.3744
  160SAPE  H19S17947   0.371   6.260   8.590  0.2006  0.1466 -0.1463
  160SAPE  C22017948   0.348   6.432   8.477  0.0610  0.5945 -0.1202
  160SAPE  H20R17949   0.312   6.361   8.399  0.1251  2.7471 -2.2378
  160SAPE  H20S17950   0.398   6.520   8.432 -1.8285  3.0267  2.1927
  160SAPE  H20T17951   0.257   6.467   8.531  0.8383  2.3784  0.1111
  160SAPE   C3317952   0.867   6.572   7.127 -0.2710  0.5817  0.4566
  160SAPE   H3X17953   0.913   6.568   7.026  0.0140  1.6057  0.5362
  160SAPE   H3Y17954   0.816   6.474   7.141  0.3325  0.2998  0.7008
  160SAPE   C3417955   0.961   6.588   7.247  0.2383 -0.0200  0.0399
  160SAPE   H4X17956   0.980   6.698   7.242 -0.5481  0.0743 -1.0315
  160SAPE   H4Y17957   1.059   6.538   7.233  0.9569  1.5002 -0.5432
  160SAPE   C3517958   0.900   6.549   7.386 -0.6578 -0.5649  0.0032
  160SAPE   H5X17959   0.806   6.495   7.360 -1.0107 -1.2904  2.5500
  160SAPE   H5Y17960   0.865   6.634   7.448  2.3484  0.5570  0.3077
  160SAPE   C3617961   0.987   6.450   7.469 -0.2314 -0.4814  0.3046
  160SAPE   H6X17962   1.076   6.500   7.512 -0.0543 -0.7033  0.2023
  160SAPE   H6Y17963   1.028   6.373   7.401  0.6065  1.5319 -1.5811
  160SAPE   C3717964   0.902   6.380   7.570 -0.4742 -0.3852 -0.3169
  160SAPE   H7X17965   0.959   6.300   7.622 -0.0963 -0.6738 -1.1732
  160SAPE   H7Y17966   0.816   6.325   7.527 -1.2608  0.6911 -0.1716
  160SAPE   C3817967   0.835   6.470   7.678 -0.2905  0.2354 -0.6091
  160SAPE   H8X17968   0.768   6.398   7.730  0.8528  1.1039  2.2392
  160SAPE   H8Y17969   0.772   6.547   7.630  0.1985  0.5371 -0.7780
  160SAPE   C3917970   0.942   6.539   7.764 -0.1914 -0.2463  0.0484
  160SAPE   H9X17971   0.946   6.641   7.720 -1.2179 -0.2329 -0.0390
  160SAPE   H9Y17972   1.039   6.490   7.741 -0.0746 -1.2924  2.4413
  160SAPE  C31017973   0.920   6.521   7.913 -0.3863 -0.9084 -0.3580
  160SAPE  H10X17974   0.871   6.422   7.922 -2.0189 -0.3229 -2.2737
  160SAPE  H10Y17975   0.849   6.596   7.954  1.4563  0.5799  0.2431
  160SAPE  C31117976   1.039   6.527   8.009  0.0604  0.1460 -0.6189
  160SAPE  H11X17977   1.107   6.612   7.986 -0.2202  0.3250 -0.7982
  160SAPE  H11Y17978   1.099   6.436   7.988 -0.4138  0.0383 -1.5362
  160SAPE  C31217979   1.002   6.523   8.166 -0.6029  0.0641  0.0602
  160SAPE  H12X17980   0.918   6.452   8.182  0.9859 -1.6571  1.1683
  160SAPE  H12Y17981   0.968   6.627   8.186  0.3006  0.1144  1.4590
  160SAPE  C31317982   1.122   6.502   8.259 -0.2107  0.6446 -0.7105
  160SAPE  H13X17983   1.193   6.587   8.254  0.3690  0.1803 -0.5591
  160SAPE  H13Y17984   1.174   6.407   8.233 -2.0908 -0.4662 -0.5910
  160SAPE  C31417985   1.076   6.482   8.398  0.2317  0.5070 -0.1066
  160SAPE  H14X17986   0.977   6.433   8.394  0.8753 -1.0096  1.1101
  160SAPE  H14Y17987   1.054   6.577   8.452  1.5048  2.1682 -2.3256
  160SAPE  C31517988   1.177   6.403   8.482 -0.3709  0.2381 -0.4359
  160SAPE  H15X17989   1.245   6.479   8.525  0.0979 -1.4562  2.0480
  160SAPE  H15Y17990   1.221   6.324   8.418 -2.6578 -2.8990  1.5204
  160SAPE  C31617991   1.115   6.321   8.593 -0.6311  0.2475  0.6425
  160SAPE  H16X17992   1.205   6.290   8.650  1.1252 -1.0417 -2.5382
  160SAPE  H16Y17993   1.077   6.222   8.558 -1.0176  0.1595  1.2984
  160SAPE  C31717994   1.012   6.391   8.676  0.7096 -0.0126 -0.2978
  160SAPE  H17X17995   0.919   6.396   8.615  0.7797  0.7959 -0.3590
  160SAPE  H17Y17996   1.055   6.494   8.675  1.0251 -0.1423 -0.8017
  160SAPE  C31817997   0.989   6.345   8.821  0.4222  0.6639 -0.3039
  160SAPE  H18X17998   1.088   6.338   8.870  1.8079  2.2559 -2.6871
  160SAPE  H18Y17999   0.932   6.250   8.833  0.8353  0.3068 -1.0657
  160SAPE  H18Z18000   0.934   6.431   8.864 -0.4584  1.7003 -3.2371
  161SAPE     N18001   1.288   5.156   6.162 -0.7200  0.3785  0.3850
  161SAPE   HN118002   1.316   5.256   6.170  0.2460  0.3589 -1.8171
  161SAPE   HN218003   1.309   5.132   6.063  1.6479 -0.5502  1.0458
  161SAPE   HN318004   1.189   5.144   6.190 -0.5131  1.1272  1.4975
  161SAPE   C1218005   1.376   5.062   6.245 -0.2556 -0.0646 -0.2522
  161SAPE  H12A18006   1.477   5.080   6.203 -0.5401  0.9824 -0.5384
  161SAPE  H12B18007   1.337   4.959   6.228  3.0472 -1.5651  0.5140
  161SAPE   C1118008   1.379   5.112   6.391 -0.0825  0.2001  0.0874
  161SAPE  H11A18009   1.436   5.044   6.457 -0.4144  0.8081  1.0378
  161SAPE  H11B18010   1.274   5.102   6.429  0.5852 -0.8324  1.7800
  161SAPE     P18011   1.340   5.361   6.465  0.0606 -0.0682 -0.3243
  161SAPE   O1318012   1.427   5.470   6.507 -0.6366  0.2908  0.2385
  161SAPE   O1418013   1.221   5.386   6.377 -0.1355  0.1281 -0.2164
  161SAPE   O1218014   1.422   5.246   6.408 -0.7779  0.0174  0.2238
  161SAPE   O1118015   1.283   5.285   6.592  0.0227  0.1230  0.2921
  161SAPE    C118016   1.353   5.250   6.708 -0.4690 -0.3624 -0.2674
  161SAPE    HA18017   1.396   5.148   6.695 -3.2555 -1.6331 -0.3985
  161SAPE    HB18018   1.438   5.315   6.737 -0.1962 -1.0232  0.4779
  161SAPE    C218019   1.266   5.244   6.837  0.6498  0.1155 -0.0319
  161SAPE    HS18020   1.243   5.351   6.855 -0.7106 -0.1470 -0.0649
  161SAPE   O2118021   1.338   5.168   6.935  0.2054  0.0194  0.2109
  161SAPE   C2118022   1.395   5.249   7.026  0.5644  0.0488 -0.8671
  161SAPE   O2218023   1.359   5.362   7.051  0.0832  0.1636 -0.0343
  161SAPE   C2218024   1.505   5.163   7.095  1.0200 -1.7350  0.5756
  161SAPE   H2R18025   1.459   5.067   7.127 -1.5605 -0.4835  0.8247
  161SAPE   H2S18026   1.587   5.152   7.020  1.0307 -2.3069  0.6687
  161SAPE    C318027   1.136   5.163   6.816  0.1501 -0.1820  0.6610
  161SAPE    HX18028   1.162   5.055   6.806 -2.0121 -0.7346  0.6929
  161SAPE    HY18029   1.094   5.201   6.721  0.4800 -0.6333  0.3268
  161SAPE   O3118030   1.038   5.199   6.916  0.1517  0.9195 -0.2376
  161SAPE   C3118031   0.956   5.106   6.963  0.4295 -0.0540 -0.1573
  161SAPE   O3218032   0.952   4.990   6.936 -0.3745 -0.6188  0.6578
  161SAPE   C3218033   0.884   5.168   7.086  0.2866  0.0492  0.4971
  161SAPE   H2X18034   0.835   5.264   7.062 -1.7992 -1.8942 -4.3859
  161SAPE   H2Y18035   0.953   5.179   7.172 -0.0521  1.0713  0.6433
  161SAPE   C2318036   1.558   5.244   7.210  0.3163 -0.3450  0.1332
  161SAPE   H3R18037   1.483   5.287   7.280 -0.1027  0.1372 -0.6040
  161SAPE   H3S18038   1.607   5.330   7.159 -1.5207 -0.5679 -2.1648
  161SAPE   C2418039   1.663   5.177   7.297  0.5719  0.0623 -0.3122
  161SAPE   H4R18040   1.724   5.253   7.350 -0.3841 -0.7567  2.0923
  161SAPE   H4S18041   1.728   5.115   7.232 -2.1782 -1.0925 -2.1458
  161SAPE   C2518042   1.595   5.078   7.395 -0.5026 -0.6117  0.7874
  161SAPE   H5R18043   1.562   4.982   7.353 -1.4396  0.1799 -0.3428
  161SAPE   C2618044   1.575   5.100   7.522 -0.5415  0.0857  0.1736
  161SAPE   H6R18045   1.539   5.015   7.581 -0.9725 -0.1174 -0.3828
  161SAPE   C2718046   1.613   5.227   7.601 -0.3065 -0.5146  0.1089
  161SAPE   H7R18047   1.619   5.317   7.536  1.3567  0.5570  1.6481
  161SAPE   H7S18048   1.717   5.229   7.640  0.2858 -1.0999 -1.3733
  161SAPE   C2818049   1.505   5.262   7.704 -0.5304  0.5508  0.2928
  161SAPE   H8R18050   1.408   5.294   7.662 -0.9577 -3.8284 -2.7256
  161SAPE   C2918051   1.524   5.257   7.840  0.0640 -0.6281  0.5602
  161SAPE   H9R18052   1.437   5.282   7.902 -0.3753 -3.5100  1.2578
  161SAPE  C21018053   1.650   5.220   7.911  0.3692 -0.1873  0.5411
  161SAPE  H10R18054   1.710   5.313   7.922 -1.5343  1.3851 -1.5526
  161SAPE  H10S18055   1.712   5.159   7.842 -0.3698  1.4116 -1.6467
  161SAPE  C21118056   1.618   5.151   8.040  0.3269  0.0003  0.0630
  161SAPE  H11R18057   1.594   5.044   8.029  2.0041 -0.3343 -0.6118
  161SAPE  C21218058   1.655   5.184   8.167  0.9900  0.5034  0.0415
  161SAPE  H12R18059   1.640   5.110   8.247  1.0226  0.4649  0.0127
  161SAPE  C21318060   1.722   5.307   8.210 -0.8837 -0.7230 -0.4583
  161SAPE  H13R18061   1.688   5.331   8.313  0.3019  0.8420 -0.3949
  161SAPE  H13S18062   1.690   5.393   8.147 -0.8242 -1.2620 -1.2353
  161SAPE  C21418063   1.875   5.304   8.220  0.4987 -0.8357  0.0004
  161SAPE  H14R18064   1.928   5.247   8.142  1.5533 -2.0861  1.5594
  161SAPE  C21518065   1.950   5.368   8.310 -0.5378  0.0758  0.1017
  161SAPE  H15R18066   2.059   5.354   8.311 -0.1603  2.5112 -0.2667
  161SAPE  C21618067   1.895   5.457   8.422  0.1134  0.6116 -0.2237
  161SAPE  H16R18068   1.808   5.515   8.385  0.2837  0.3828 -1.0044
  161SAPE  H16S18069   1.970   5.536   8.444 -0.7979  1.5969 -0.5913
  161SAPE  C21718070   1.842   5.378   8.548 -0.8205  0.1331  0.8857
  161SAPE  H17R18071   1.748   5.329   8.517 -0.6294  0.6584 -0.6031
  161SAPE  H17S18072   1.813   5.450   8.628 -1.6805  0.2825  0.4378
  161SAPE  C21818073   1.956   5.277   8.601  0.4956 -0.6486  0.4156
  161SAPE  H18R18074   2.044   5.343   8.616 -0.1832  0.3411  0.1188
  161SAPE  H18S18075   1.965   5.187   8.537  1.1476  0.1435 -0.6508
  161SAPE  C21918076   1.914   5.227   8.733  0.4417 -0.2942 -0.6627
  161SAPE  H19R18077   1.809   5.190   8.725 -0.1265  1.1225 -0.1659
  161SAPE  H19S18078   1.911   5.322   8.791 -2.2183  0.1599 -1.3815
  161SAPE  C22018079   2.016   5.125   8.786  0.3870  0.7045  0.4045
  161SAPE  H20R18080   2.115   5.173   8.772 -0.1629  1.3239 -1.6607
  161SAPE  H20S18081   2.024   5.035   8.721 -2.2326 -0.0152  0.9519
  161SAPE  H20T18082   1.997   5.082   8.887  0.5487  1.7147  0.8774
  161SAPE   C3318083   0.767   5.072   7.144 -0.6641 -0.5530  0.8404
  161SAPE   H3X18084   0.803   4.969   7.125  1.6399  0.4149 -0.4869
  161SAPE   H3Y18085   0.682   5.088   7.075  0.6962 -0.8735 -0.9795
  161SAPE   C3418086   0.741   5.094   7.293  0.0975  0.5124  0.2737
  161SAPE   H4X18087   0.692   5.191   7.314 -0.0177  0.7867 -1.1587
  161SAPE   H4Y18088   0.831   5.082   7.357  0.0469 -0.7728  0.1382
  161SAPE   C3518089   0.639   4.984   7.353  1.0595 -0.0029  0.4205
  161SAPE   H5X18090   0.667   4.884   7.312  0.2941  0.0516 -0.2731
  161SAPE   H5Y18091   0.535   4.990   7.313  0.7490  1.0963  1.3591
  161SAPE   C3618092   0.612   4.994   7.497 -0.6140 -0.0561 -0.2301
  161SAPE   H6X18093   0.518   4.943   7.525  0.2251 -0.1580  2.7415
  161SAPE   H6Y18094   0.603   5.101   7.526  2.1954 -0.5920  3.4379
  161SAPE   C3718095   0.716   4.931   7.590  0.3100 -0.5146 -0.2023
  161SAPE   H7X18096   0.819   4.968   7.572  1.0270 -0.8096  2.8831
  161SAPE   H7Y18097   0.712   4.828   7.547  4.1344 -0.0910 -2.0017
  161SAPE   C3818098   0.674   4.941   7.737 -0.7289  0.2663  0.0045
  161SAPE   H8X18099   0.723   4.852   7.782 -0.4699  0.4778  0.1432
  161SAPE   H8Y18100   0.564   4.929   7.750 -0.7516  0.6368  0.1608
  161SAPE   C3918101   0.714   5.063   7.814  0.0820 -0.4225  0.1375
  161SAPE   H9X18102   0.651   5.065   7.906 -0.7022 -1.6213 -0.3491
  161SAPE   H9Y18103   0.701   5.149   7.744  0.6928  0.5472  1.1897
  161SAPE  C31018104   0.855   5.051   7.869  0.0664  0.9024 -0.5853
  161SAPE  H10X18105   0.925   5.003   7.797  2.1999 -1.0225  2.5189
  161SAPE  H10Y18106   0.863   4.972   7.948 -0.1970  1.2560 -0.2000
  161SAPE  C31118107   0.900   5.186   7.929 -0.7596 -0.0026  0.6911
  161SAPE  H11X18108   0.894   5.275   7.862  3.4170 -0.5680 -0.7333
  161SAPE  H11Y18109   1.010   5.195   7.937 -0.5367 -2.9667  2.2640
  161SAPE  C31218110   0.850   5.210   8.069  0.1599 -0.2188  0.5407
  161SAPE  H12X18111   0.840   5.106   8.106 -0.6498 -1.7906 -3.6344
  161SAPE  H12Y18112   0.749   5.256   8.070 -1.0765 -2.8032  1.4742
  161SAPE  C31318113   0.940   5.289   8.163  0.1381  0.6510 -0.7210
  161SAPE  H13X18114   0.941   5.396   8.134  1.3478  0.6492 -0.7236
  161SAPE  H13Y18115   1.043   5.247   8.162 -0.0723  0.1303 -1.0196
  161SAPE  C31418116   0.884   5.272   8.301 -0.1048  0.1256  0.2511
  161SAPE  H14X18117   0.856   5.168   8.327  2.1009 -0.6615 -0.3115
  161SAPE  H14Y18118   0.793   5.335   8.310  0.1347  0.2533  2.7109
  161SAPE  C31518119   0.974   5.322   8.415  0.2791 -0.5044  0.7261
  161SAPE  H15X18120   0.985   5.429   8.386  0.1702 -0.3109  1.3716
  161SAPE  H15Y18121   1.067   5.262   8.419  0.3370 -0.4633  0.0749
  161SAPE  C31618122   0.905   5.306   8.557  0.1439  0.0512  0.0383
  161SAPE  H16X18123   0.881   5.198   8.563  0.0824 -0.0135 -1.0762
  161SAPE  H16Y18124   0.811   5.365   8.550  0.5961  0.9305  1.0717
  161SAPE  C31718125   0.977   5.366   8.678 -0.4891  0.4481  0.3433
  161SAPE  H17X18126   0.906   5.386   8.761 -1.2267 -0.2993 -0.0968
  161SAPE  H17Y18127   1.035   5.460   8.662  1.0946 -0.5336  0.0601
  161SAPE  C31818128   1.076   5.258   8.737  0.0936  0.4353 -0.2166
  161SAPE  H18X18129   1.015   5.181   8.787 -0.3297  1.1165  0.3449
  161SAPE  H18Y18130   1.147   5.298   8.813 -0.7959  0.8382  0.4213
  161SAPE  H18Z18131   1.128   5.215   8.649 -1.9529  0.1435 -1.3346
  162SAPE     N18132   0.801   6.694   6.460 -0.4388 -0.4333 -0.4035
  162SAPE   HN118133   0.717   6.654   6.506 -0.7270 -0.2728 -0.7863
  162SAPE   HN218134   0.764   6.720   6.366  1.2540  0.2462 -0.9341
  162SAPE   HN318135   0.872   6.618   6.455 -0.8040 -0.8088  0.0506
  162SAPE   C1218136   0.853   6.822   6.528 -0.0362  0.8681  0.3571
  162SAPE  H12A18137   0.802   6.826   6.626 -0.9950 -3.2264  0.2219
  162SAPE  H12B18138   0.832   6.902   6.453 -0.3909 -1.3581 -2.0640
  162SAPE   C1118139   1.006   6.801   6.560  0.3022 -0.2383  0.1913
  162SAPE  H11A18140   1.001   6.710   6.624  0.5195 -0.9331 -0.7582
  162SAPE  H11B18141   1.053   6.887   6.614  1.9725 -1.3208  0.5595
  162SAPE     P18142   1.092   6.862   6.314  0.5490 -0.0789 -0.1142
  162SAPE   O1318143   1.231   6.849   6.268 -0.4896 -0.4964  0.7797
  162SAPE   O1418144   0.992   6.822   6.212 -0.3875  0.1219  0.6755
  162SAPE   O1218145   1.079   6.774   6.443 -0.5289  0.2637 -0.1441
  162SAPE   O1118146   1.058   7.006   6.361 -0.3469  0.6279 -0.0085
  162SAPE    C118147   1.157   7.098   6.414 -0.6234 -0.6040 -0.1429
  162SAPE    HA18148   1.225   7.053   6.490 -1.0308  2.2242  2.1069
  162SAPE    HB18149   1.217   7.142   6.331  0.7064 -0.1999  0.9932
  162SAPE    C218150   1.092   7.220   6.485 -0.1568  0.0136  0.2243
  162SAPE    HS18151   1.180   7.285   6.508 -0.3478  0.2350  0.3382
  162SAPE   O2118152   1.010   7.169   6.595 -0.3791 -0.1058 -0.0791
  162SAPE   C2118153   1.071   7.164   6.716  0.1243 -0.0466  1.3387
  162SAPE   O2218154   1.186   7.196   6.732 -0.6137 -0.1550  0.9394
  162SAPE   C2218155   0.980   7.095   6.817 -0.1322  0.2764  0.2828
  162SAPE   H2R18156   0.917   7.179   6.853 -0.8205 -0.5870  1.1019
  162SAPE   H2S18157   0.908   7.028   6.766 -0.2937  1.0979 -0.6099
  162SAPE    C318158   1.005   7.313   6.392  0.2929  0.1644 -0.1059
  162SAPE    HX18159   0.920   7.260   6.343 -0.9487  1.6486  0.3710
  162SAPE    HY18160   1.068   7.323   6.301 -2.2713  1.9802 -1.8332
  162SAPE   O3118161   0.972   7.436   6.444 -0.3310 -0.5190 -0.2158
  162SAPE   C3118162   0.857   7.438   6.505  0.5672 -0.6504  0.2914
  162SAPE   O3218163   0.773   7.352   6.499 -0.5548 -0.0252  0.3898
  162SAPE   C3218164   0.843   7.571   6.584 -0.2465  0.6441 -0.3460
  162SAPE   H2X18165   0.738   7.578   6.617 -0.3765 -0.5927 -0.4401
  162SAPE   H2Y18166   0.859   7.645   6.502 -0.0626 -1.2936 -2.1527
  162SAPE   C2318167   1.060   7.016   6.918  0.2648  0.3623  0.0120
  162SAPE   H3R18168   1.140   7.078   6.964  0.3934 -0.7569  1.3773
  162SAPE   H3S18169   1.106   6.919   6.889  2.5197  0.6103  2.4189
  162SAPE   C2418170   0.963   6.998   7.045  0.4323 -1.0016 -0.0514
  162SAPE   H4R18171   1.018   6.924   7.108 -0.7708 -0.3690  1.7959
  162SAPE   H4S18172   0.873   6.947   7.005 -1.0562  0.4807  1.3152
  162SAPE   C2518173   0.929   7.127   7.118  0.7831  1.1254  0.2298
  162SAPE   H5R18174   0.844   7.181   7.074  1.2514  2.2317  0.6633
  162SAPE   C2618175   0.982   7.183   7.230 -0.1248  0.3264 -0.1449
  162SAPE   H6R18176   0.948   7.284   7.257  1.1985  0.8119 -0.2049
  162SAPE   C2718177   1.088   7.131   7.324  0.1458  0.1918 -0.3766
  162SAPE   H7R18178   1.156   7.215   7.350 -1.0319  1.1909 -0.3731
  162SAPE   H7S18179   1.150   7.049   7.283 -1.2048 -0.2784 -1.5747
  162SAPE   C2818180   1.007   7.098   7.451 -0.1204  0.4732 -0.4862
  162SAPE   H8R18181   0.929   7.022   7.439  0.2705  0.0078 -0.1635
  162SAPE   C2918182   1.016   7.159   7.568  0.2086 -0.2949 -0.6183
  162SAPE   H9R18183   0.956   7.125   7.653 -0.4588  1.2180 -0.4537
  162SAPE  C21018184   1.108   7.275   7.601  0.1034 -0.1907  0.3875
  162SAPE  H10R18185   1.167   7.300   7.511 -2.3286  0.9274 -0.9962
  162SAPE  H10S18186   1.172   7.240   7.685  0.8355  1.1407  0.4122
  162SAPE  C21118187   1.046   7.406   7.644 -0.7257  0.2870  0.4018
  162SAPE  H11R18188   1.018   7.475   7.562 -1.3435  0.4530  0.7471
  162SAPE  C21218189   1.022   7.442   7.768 -0.2023 -0.3198 -0.2582
  162SAPE  H12R18190   0.974   7.537   7.793 -2.8825 -1.8421  0.8104
  162SAPE  C21318191   1.045   7.356   7.894  1.1088  0.0910 -0.1932
  162SAPE  H13R18192   1.008   7.255   7.868  1.4876  0.4740 -2.4386
  162SAPE  H13S18193   0.990   7.395   7.982  1.6125 -0.0457  0.1821
  162SAPE  C21418194   1.193   7.341   7.928 -0.1361  0.3442 -0.4443
  162SAPE  H14R18195   1.267   7.371   7.853  1.7753 -1.8609  0.4389
  162SAPE  C21518196   1.246   7.271   8.031 -0.4139 -0.2033 -0.2706
  162SAPE  H15R18197   1.354   7.275   8.051 -0.3980 -2.7950  0.3940
  162SAPE  C21618198   1.167   7.191   8.129 -0.5220 -0.4685 -0.2977
  162SAPE  H16R18199   1.210   7.089   8.138 -1.1071 -0.6006  1.4612
  162SAPE  H16S18200   1.061   7.174   8.100 -1.1568  0.5244  1.2556
  162SAPE  C21718201   1.168   7.254   8.270  0.4313 -0.2592 -0.4734
  162SAPE  H17R18202   1.119   7.354   8.272 -0.8893 -0.8804  1.7142
  162SAPE  H17S18203   1.278   7.258   8.288  1.0678 -0.4787 -3.7540
  162SAPE  C21818204   1.086   7.178   8.376  0.4889  0.8238 -0.3509
  162SAPE  H18R18205   1.134   7.077   8.375 -0.0235  0.5753 -0.8321
  162SAPE  H18S18206   0.977   7.176   8.352  0.0199 -2.9008  1.2642
  162SAPE  C21918207   1.089   7.222   8.518 -0.0140 -0.5653 -0.1952
  162SAPE  H19R18208   1.184   7.280   8.523  0.8520 -1.9574  0.0337
  162SAPE  H19S18209   1.083   7.139   8.591 -0.6574 -1.8400 -1.6528
  162SAPE  C22018210   0.975   7.321   8.561  0.2050  0.1049  0.5310
  162SAPE  H20R18211   0.991   7.413   8.500  0.9107  1.0800  2.1175
  162SAPE  H20S18212   0.983   7.343   8.670 -2.2539  1.6510  0.4901
  162SAPE  H20T18213   0.875   7.274   8.544  0.3308 -0.2166  0.6774
  162SAPE   C3318214   0.945   7.578   6.706  0.7763  0.7280  0.1959
  162SAPE   H3X18215   1.045   7.539   6.677  0.2024  0.3705 -1.4688
  162SAPE   H3Y18216   0.900   7.514   6.785 -2.9968  2.3112 -0.4466
  162SAPE   C3418217   0.954   7.718   6.760 -0.1795 -0.4726 -0.2720
  162SAPE   H4X18218   0.856   7.769   6.748  0.8410  1.8088  0.4993
  162SAPE   H4Y18219   1.019   7.783   6.698 -0.2528 -2.1566 -2.2465
  162SAPE   C3518220   0.986   7.728   6.905 -0.1758 -0.3561 -0.0387
  162SAPE   H5X18221   0.978   7.832   6.945 -0.8137 -0.2501 -0.4151
  162SAPE   H5Y18222   1.096   7.713   6.911  0.4284  2.1827 -2.4375
  162SAPE   C3618223   0.911   7.629   6.999  0.3480 -0.5205  0.2517
  162SAPE   H6X18224   0.955   7.527   7.003  1.0345 -0.2040  2.7860
  162SAPE   H6Y18225   0.805   7.627   6.965  0.7530  1.4540 -1.3142
  162SAPE   C3718226   0.906   7.692   7.140 -1.0448 -0.0259 -0.4591
  162SAPE   H7X18227   0.850   7.788   7.139 -0.2792  0.4464  0.5081
  162SAPE   H7Y18228   1.007   7.714   7.181 -1.1394 -1.9346  0.9479
  162SAPE   C3818229   0.820   7.607   7.237 -0.2916 -0.5480 -0.7671
  162SAPE   H8X18230   0.882   7.515   7.249  0.8059  0.0515 -1.5944
  162SAPE   H8Y18231   0.724   7.569   7.197  0.0745 -0.1035 -2.1190
  162SAPE   C3918232   0.791   7.676   7.373 -0.2745 -1.1543  0.3361
  162SAPE   H9X18233   0.727   7.765   7.354  1.0843 -0.4998 -1.4286
  162SAPE   H9Y18234   0.886   7.724   7.406 -0.3056 -0.8625  0.0040
  162SAPE  C31018235   0.729   7.587   7.478  0.1512  0.1066 -0.9698
  162SAPE  H10X18236   0.784   7.491   7.484 -2.2792 -1.2999  0.8699
  162SAPE  H10Y18237   0.624   7.564   7.449 -0.4576  2.4649 -0.8505
  162SAPE  C31118238   0.715   7.664   7.617 -0.0817  0.1790 -0.3280
  162SAPE  H11X18239   0.627   7.731   7.605 -0.3420  0.2897  1.7925
  162SAPE  H11Y18240   0.807   7.721   7.642  0.1292 -0.3398  0.1096
  162SAPE  C31218241   0.685   7.572   7.731  0.3476  0.5807 -0.3523
  162SAPE  H12X18242   0.744   7.478   7.731 -0.6135 -0.0470 -0.1277
  162SAPE  H12Y18243   0.578   7.540   7.734  0.5163  0.0547  1.6513
  162SAPE  C31318244   0.714   7.644   7.867 -0.5759 -0.0711  0.9195
  162SAPE  H13X18245   0.645   7.731   7.871 -1.1571 -0.4671 -0.1227
  162SAPE  H13Y18246   0.819   7.678   7.859 -1.3334  2.0255 -3.0345
  162SAPE  C31418247   0.706   7.550   7.981  0.3922 -0.6733  0.3368
  162SAPE  H14X18248   0.785   7.475   7.961 -0.2897 -0.7838 -2.4064
  162SAPE  H14Y18249   0.603   7.509   7.975  0.1738  0.0653 -3.5886
  162SAPE  C31518250   0.732   7.628   8.115  0.0080  0.1388 -0.3124
  162SAPE  H15X18251   0.661   7.712   8.131 -1.8570 -1.5635  0.8629
  162SAPE  H15Y18252   0.839   7.659   8.112 -0.3770  1.4811 -1.3546
  162SAPE  C31618253   0.715   7.537   8.236 -0.4785  0.6360  0.3784
  162SAPE  H16X18254   0.802   7.468   8.237 -1.8775 -1.3153 -2.0959
  162SAPE  H16Y18255   0.620   7.482   8.223 -0.3812  0.2563  1.2251
  162SAPE  C31718256   0.710   7.625   8.359 -0.0244  0.4208 -0.3571
  162SAPE  H17X18257   0.682   7.556   8.442  0.2206  0.4430 -0.2576
  162SAPE  H17Y18258   0.622   7.692   8.355 -1.1174 -0.9329  0.0044
  162SAPE  C31818259   0.841   7.707   8.394  0.3714  0.0552  0.0001
  162SAPE  H18X18260   0.886   7.754   8.304  0.2694 -0.8508 -0.5327
  162SAPE  H18Y18261   0.916   7.632   8.427 -0.4359 -0.3697  0.8951
  162SAPE  H18Z18262   0.816   7.785   8.469 -0.2087  0.0228 -0.1562
  163SAPE     N18263   6.020   5.136   6.756  0.4846 -0.4190 -0.4847
  163SAPE   HN118264   5.989   5.050   6.805  0.4952  0.0147  0.3155
  163SAPE   HN218265   6.071   5.188   6.831 -1.0629  1.0261 -0.3614
  163SAPE   HN318266   5.940   5.184   6.711  0.0409 -0.8603 -0.1711
  163SAPE   C1218267   6.119   5.094   6.650  0.0268 -0.4410 -0.8030
  163SAPE  H12A18268   6.176   5.176   6.600  1.7584 -1.3957 -0.4646
  163SAPE  H12B18269   6.073   5.029   6.572  1.0253 -0.1336 -1.6727
  163SAPE   C1118270   6.210   4.990   6.732  1.3201  0.2186  0.1096
  163SAPE  H11A18271   6.266   5.034   6.817  2.0950 -0.0349 -0.2616
  163SAPE  H11B18272   6.294   4.960   6.666  1.6665 -2.5623  1.6708
  163SAPE     P18273   6.124   4.741   6.710 -0.3297  0.5433 -0.1077
  163SAPE   O1318274   5.998   4.741   6.632  0.0097 -0.0632  0.0849
  163SAPE   O1418275   6.250   4.714   6.637  0.0666  0.6366 -0.1144
  163SAPE   O1218276   6.132   4.880   6.781  0.0328  0.1221  0.0768
  163SAPE   O1118277   6.109   4.640   6.834  0.6549 -0.0001  0.5090
  163SAPE    C118278   6.079   4.689   6.961 -0.0627  0.7609  0.3943
  163SAPE    HA18279   6.012   4.778   6.959 -1.7655 -0.4685  0.4983
  163SAPE    HB18280   6.019   4.616   7.020  1.0334 -1.0274 -0.6427
  163SAPE    C218281   6.203   4.720   7.044 -0.1508  0.4792  0.5442
  163SAPE    HS18282   6.253   4.811   7.004  2.2609 -1.5293 -1.3112
  163SAPE   O2118283   6.309   4.620   7.025  0.8911 -0.4259 -0.0554
  163SAPE   C2118284   6.428   4.661   7.047  0.0367 -0.1258  0.0793
  163SAPE   O2218285   6.456   4.780   7.067  0.1330  0.3926 -0.4395
  163SAPE   C2218286   6.520   4.544   7.034 -0.6389 -0.4583 -0.2310
  163SAPE   H2R18287   6.493   4.466   7.109  1.9972 -1.2024  0.0530
  163SAPE   H2S18288   6.511   4.510   6.929  1.7540  0.5502 -0.8457
  163SAPE    C318289   6.174   4.764   7.197 -0.3675  0.2934 -0.4420
  163SAPE    HX18290   6.268   4.798   7.245 -0.9140  2.9129 -1.0851
  163SAPE    HY18291   6.132   4.671   7.242  2.5969 -1.3257 -0.7723
  163SAPE   O3118292   6.079   4.873   7.208 -0.1434  0.1828  0.4011
  163SAPE   C3118293   6.112   4.996   7.163 -0.4080  0.5796 -0.0472
  163SAPE   O3218294   6.215   5.019   7.108  0.9290  0.0195  0.6850
  163SAPE   C3218295   6.011   5.104   7.203  0.1915  0.5109  0.5734
  163SAPE   H2X18296   5.912   5.065   7.235  0.0695  2.0093  2.1557
  163SAPE   H2Y18297   5.991   5.162   7.111 -0.9293 -1.0529 -0.2253
  163SAPE   C2318298   6.669   4.587   7.033 -0.6940 -0.2380 -0.3074
  163SAPE   H3R18299   6.686   4.660   6.951 -1.9607  0.2301 -0.1815
  163SAPE   H3S18300   6.729   4.497   7.012  0.0542 -0.2365  1.6915
  163SAPE   C2418301   6.720   4.638   7.172  0.0648 -0.1799 -0.0231
  163SAPE   H4R18302   6.731   4.556   7.245 -0.0986 -0.0464  0.1526
  163SAPE   H4S18303   6.640   4.709   7.203 -0.3143  0.1316 -1.6051
  163SAPE   C2518304   6.851   4.708   7.156  0.4638 -0.6873  0.0052
  163SAPE   H5R18305   6.863   4.755   7.058  2.7060  1.6524  1.2541
  163SAPE   C2618306   6.948   4.734   7.246 -0.2159 -0.4343  0.2873
  163SAPE   H6R18307   7.041   4.779   7.208 -0.6427  0.5855  0.4154
  163SAPE   C2718308   6.947   4.682   7.385  0.3243  0.3585 -0.5655
  163SAPE   H7R18309   6.903   4.580   7.384  1.1947 -0.0357  0.2046
  163SAPE   H7S18310   6.866   4.740   7.435 -1.3999 -1.3103 -1.2731
  163SAPE   C2818311   7.070   4.673   7.466 -0.4767 -0.7261 -0.1461
  163SAPE   H8R18312   7.158   4.705   7.408 -3.9223  0.1395 -5.6511
  163SAPE   C2918313   7.072   4.653   7.598  0.0867 -0.0202 -0.1347
  163SAPE   H9R18314   7.171   4.657   7.646 -0.7971  1.1023  1.7101
  163SAPE  C21018315   6.959   4.625   7.693 -0.2581 -0.2527  0.1835
  163SAPE  H10R18316   6.890   4.548   7.652  0.9714 -2.2626  1.7160
  163SAPE  H10S18317   6.904   4.717   7.724  1.4005  0.8073  0.0555
  163SAPE  C21118318   6.995   4.558   7.819  0.5817 -0.0352 -0.7013
  163SAPE  H11R18319   6.943   4.465   7.847 -1.2193  1.2262  0.2814
  163SAPE  C21218320   7.084   4.600   7.907  0.0542 -0.0477  0.0353
  163SAPE  H12R18321   7.103   4.548   8.002 -0.0315  0.5077  0.3608
  163SAPE  C21318322   7.158   4.730   7.904 -0.2000 -0.0063  0.2395
  163SAPE  H13R18323   7.209   4.754   7.808 -2.1087  0.0422 -0.8096
  163SAPE  H13S18324   7.242   4.723   7.977 -1.6404 -2.0686  1.7900
  163SAPE  C21418325   7.064   4.837   7.954  0.2377 -0.2895  0.4963
  163SAPE  H14R18326   7.019   4.893   7.870 -0.2934 -1.7678 -0.2388
  163SAPE  C21518327   7.045   4.869   8.082 -0.1632 -0.4715 -0.5948
  163SAPE  H15R18328   6.966   4.941   8.107 -0.7982 -0.6159 -2.0795
  163SAPE  C21618329   7.123   4.820   8.202  0.6233 -0.0505  0.1330
  163SAPE  H16R18330   7.177   4.911   8.235 -0.4203  1.2996 -1.6670
  163SAPE  H16S18331   7.192   4.734   8.188 -1.3100 -1.6024 -0.3389
  163SAPE  C21718332   7.028   4.781   8.315 -0.0884 -0.6471 -0.2614
  163SAPE  H17R18333   6.980   4.687   8.278  1.0969 -0.3933 -2.5940
  163SAPE  H17S18334   6.958   4.864   8.335 -1.3401 -1.6478 -0.3184
  163SAPE  C21818335   7.100   4.765   8.456 -0.2655  0.1874 -0.4980
  163SAPE  H18R18336   7.152   4.861   8.475 -0.7265  0.0138  1.8554
  163SAPE  H18S18337   7.172   4.681   8.460  1.3532  1.5772  1.5153
  163SAPE  C21918338   7.002   4.746   8.571  0.1933 -0.2929 -0.8004
  163SAPE  H19R18339   6.958   4.644   8.573 -1.0417  0.1872  2.9498
  163SAPE  H19S18340   6.915   4.812   8.551  1.2204  1.8356  1.2054
  163SAPE  C22018341   7.059   4.784   8.709  0.1621  0.5039  0.0210
  163SAPE  H20R18342   7.058   4.689   8.768  2.7966 -0.0307 -0.6856
  163SAPE  H20S18343   7.001   4.863   8.762  2.5984  2.4850 -0.0616
  163SAPE  H20T18344   7.165   4.817   8.708  0.4101 -0.2672 -0.1108
  163SAPE   C3318345   6.061   5.198   7.308 -0.2797  0.0926  0.4587
  163SAPE   H3X18346   5.992   5.285   7.310  0.5563  0.8505 -1.4159
  163SAPE   H3Y18347   6.160   5.247   7.295 -0.0792 -0.1619  0.9818
  163SAPE   C3418348   6.076   5.140   7.450  0.1782 -0.8972  0.3641
  163SAPE   H4X18349   6.117   5.039   7.428  0.2226 -0.4975 -1.5252
  163SAPE   H4Y18350   5.976   5.124   7.495 -0.1065  0.4056  0.2471
  163SAPE   C3518351   6.160   5.226   7.551  0.0716  0.5946  0.4871
  163SAPE   H5X18352   6.105   5.320   7.573 -3.9341 -0.9965 -1.5924
  163SAPE   H5Y18353   6.257   5.240   7.498 -0.3787  0.7998 -0.3125
  163SAPE   C3618354   6.177   5.153   7.687  0.2367 -0.5511 -0.1315
  163SAPE   H6X18355   6.270   5.204   7.722  0.2607 -0.1989 -0.6929
  163SAPE   H6Y18356   6.184   5.044   7.665  0.9105 -0.9843  1.9459
  163SAPE   C3718357   6.078   5.186   7.798 -0.0687 -0.2470  0.5362
  163SAPE   H7X18358   5.987   5.123   7.785  1.7729 -2.5582 -2.6228
  163SAPE   H7Y18359   6.057   5.295   7.795 -1.4897 -0.4857 -2.9012
  163SAPE   C3818360   6.136   5.158   7.935 -0.1790  0.3253 -0.3222
  163SAPE   H8X18361   6.227   5.097   7.918  0.1547  0.6888  0.1456
  163SAPE   H8Y18362   6.062   5.092   7.986  1.4429 -1.3724 -0.0560
  163SAPE   C3918363   6.175   5.282   8.013 -0.3830 -0.7963  0.1380
  163SAPE   H9X18364   6.099   5.362   8.023  0.3926  0.4658 -2.8842
  163SAPE   H9Y18365   6.265   5.324   7.963 -2.1172  3.7236  0.3423
  163SAPE  C31018366   6.208   5.245   8.163  0.6308 -0.1715 -0.2140
  163SAPE  H10X18367   6.253   5.144   8.166  0.6401 -0.1456  0.6988
  163SAPE  H10Y18368   6.115   5.215   8.214  2.9062 -0.7395  4.0832
  163SAPE  C31118369   6.302   5.333   8.238  0.6163 -0.1680  0.2655
  163SAPE  H11X18370   6.262   5.434   8.216 -0.1354 -0.3878  0.5908
  163SAPE  H11Y18371   6.402   5.316   8.192  0.0065 -1.3208 -0.6699
  163SAPE  C31218372   6.311   5.309   8.395 -0.3812  0.0501  0.4053
  163SAPE  H12X18373   6.358   5.209   8.406 -0.0778 -0.0119 -1.2045
  163SAPE  H12Y18374   6.211   5.297   8.443  0.4861 -0.4185  2.1816
  163SAPE  C31318375   6.394   5.416   8.474  0.0117  0.5607  0.5507
  163SAPE  H13X18376   6.336   5.510   8.462  1.2416  1.2867  0.1658
  163SAPE  H13Y18377   6.497   5.426   8.434  0.2047  0.5188  1.0359
  163SAPE  C31418378   6.402   5.374   8.621 -0.3901 -0.0412 -0.2084
  163SAPE  H14X18379   6.433   5.268   8.617  2.2091  0.4901  2.3073
  163SAPE  H14Y18380   6.311   5.376   8.684  0.3136  2.3053  0.8644
  163SAPE  C31518381   6.522   5.430   8.701  0.1547 -0.4949 -0.2795
  163SAPE  H15X18382   6.618   5.419   8.645  0.7477  2.2885  0.0293
  163SAPE  H15Y18383   6.552   5.377   8.794 -0.5373 -0.2259  0.1006
  163SAPE  C31618384   6.519   5.581   8.727  0.7316  0.7751  0.2959
  163SAPE  H16X18385   6.432   5.594   8.796 -0.1497  1.6156 -0.9397
  163SAPE  H16Y18386   6.505   5.641   8.635 -2.5749  0.3883  0.4118
  163SAPE  C31718387   6.645   5.634   8.804  0.4969  0.4574 -0.6870
  163SAPE  H17X18388   6.742   5.608   8.758 -0.0418  1.1698 -2.2960
  163SAPE  H17Y18389   6.654   5.565   8.891 -1.8497  0.1453 -0.6247
  163SAPE  C31818390   6.629   5.780   8.839 -0.6089 -0.0482 -0.1758
  163SAPE  H18X18391   6.651   5.829   8.741  2.3432  1.0148  0.9040
  163SAPE  H18Y18392   6.707   5.824   8.904  0.0993  0.3920 -1.2871
  163SAPE  H18Z18393   6.530   5.804   8.882 -1.4720 -1.2271 -1.4105
  164SAPE     N18394   0.201   2.651   6.471  0.4014  0.0467  0.1407
  164SAPE   HN118395   0.295   2.680   6.438 -0.6710  2.1943 -1.1941
  164SAPE   HN218396   0.211   2.663   6.574  1.3593  2.2278 -0.1487
  164SAPE   HN318397   0.189   2.554   6.436 -2.1693  0.2691  0.2378
  164SAPE   C1218398   0.095   2.732   6.396 -0.0463 -0.4917  0.6309
  164SAPE  H12A18399   0.080   2.829   6.447  0.5209  0.1252 -0.3513
  164SAPE  H12B18400   0.005   2.667   6.407  0.0788 -1.0207 -1.0703
  164SAPE   C1118401   0.126   2.746   6.250  0.0019  0.7545 -0.0023
  164SAPE  H11A18402   0.037   2.778   6.192  0.4848  0.8253 -0.7034
  164SAPE  H11B18403   0.158   2.646   6.215  0.1317  0.5969  0.5433
  164SAPE     P18404   0.224   2.948   6.118 -0.2771  0.0572  0.1799
  164SAPE   O1318405   0.203   2.886   5.984 -0.9854  0.7533  0.3607
  164SAPE   O1418406   0.129   3.057   6.157 -0.1056  0.4622  0.1817
  164SAPE   O1218407   0.228   2.838   6.225  0.5239 -0.2475  0.3096
  164SAPE   O1118408   0.371   3.018   6.119  0.0859 -0.5904  0.2971
  164SAPE    C118409   0.430   3.074   6.239 -0.1786  0.3890 -0.3348
  164SAPE    HA18410   0.523   3.121   6.199  1.6555 -1.4824  1.4647
  164SAPE    HB18411   0.372   3.158   6.283 -3.0910 -1.5153 -0.2993
  164SAPE    C218412   0.487   2.970   6.349  0.6567  0.0843  0.5418
  164SAPE    HS18413   0.410   2.893   6.371  1.4620 -0.9095 -0.0779
  164SAPE   O2118414   0.529   3.043   6.469 -0.4098  0.5277 -1.3589
  164SAPE   C2118415   0.436   3.106   6.523  0.4428 -1.1408  0.2284
  164SAPE   O2218416   0.319   3.112   6.492  0.1062  0.7446 -0.1953
  164SAPE   C2218417   0.480   3.173   6.653 -0.1445 -0.1269 -0.4680
  164SAPE   H2R18418   0.563   3.238   6.619 -0.2880  0.6122  0.5691
  164SAPE   H2S18419   0.407   3.248   6.691  1.0035  0.8110 -0.0515
  164SAPE    C318420   0.598   2.870   6.301  0.7053  0.1038 -0.4129
  164SAPE    HX18421   0.669   2.931   6.242 -0.2471 -0.2249 -1.9510
  164SAPE    HY18422   0.543   2.807   6.228 -0.8762  0.3524  0.5189
  164SAPE   O3118423   0.667   2.793   6.407  0.0120  0.3051 -0.2006
  164SAPE   C3118424   0.592   2.738   6.499 -0.3474 -0.2060  0.7393
  164SAPE   O3218425   0.471   2.704   6.486 -0.1492 -0.5790 -0.0085
  164SAPE   C3218426   0.673   2.695   6.627  0.1739 -0.4528  0.3297
  164SAPE   H2X18427   0.746   2.778   6.640  0.8112 -0.7390 -1.1436
  164SAPE   H2Y18428   0.727   2.599   6.610  0.2824 -0.6119  1.5435
  164SAPE   C2318429   0.538   3.071   6.763  0.5876  0.4617  0.9366
  164SAPE   H3R18430   0.640   3.036   6.738 -0.2276 -2.3512  1.2203
  164SAPE   H3S18431   0.477   2.978   6.756  0.1988  0.6971  1.0940
  164SAPE   C2418432   0.532   3.111   6.910 -0.0286  0.1247 -0.8983
  164SAPE   H4R18433   0.542   3.025   6.979 -3.5701  0.3997  0.1378
  164SAPE   H4S18434   0.429   3.145   6.933  1.1821  1.1462  4.2357
  164SAPE   C2518435   0.631   3.221   6.936 -0.0070 -0.3565  0.7237
  164SAPE   H5R18436   0.649   3.300   6.862 -2.6598 -0.7039 -0.4122
  164SAPE   C2618437   0.711   3.229   7.048 -0.2602 -0.0328  0.1747
  164SAPE   H6R18438   0.796   3.297   7.060 -0.5385  0.6878 -1.5712
  164SAPE   C2718439   0.722   3.134   7.159 -0.2007  0.1856 -0.4764
  164SAPE   H7R18440   0.818   3.154   7.211  0.6642 -0.8293 -1.6125
  164SAPE   H7S18441   0.719   3.027   7.128 -3.9265  0.1152 -0.3733
  164SAPE   C2818442   0.609   3.156   7.251  0.2657 -0.3311 -0.2718
  164SAPE   H8R18443   0.510   3.153   7.203 -0.5026  0.2886  1.2063
  164SAPE   C2918444   0.616   3.150   7.387 -0.4850  0.3447 -0.7620
  164SAPE   H9R18445   0.522   3.158   7.443  1.2090 -2.5639  2.8521
  164SAPE  C21018446   0.734   3.126   7.472 -0.1198  0.4623  0.2709
  164SAPE  H10R18447   0.772   3.225   7.505 -0.0924 -0.0183  1.7593
  164SAPE  H10S18448   0.810   3.078   7.407  1.0470  1.8020  0.5997
  164SAPE  C21118449   0.710   3.031   7.595  0.2836 -0.1108 -0.4222
  164SAPE  H11R18450   0.726   2.926   7.569 -3.5953 -0.6177 -1.3024
  164SAPE  C21218451   0.666   3.071   7.719  0.7127  0.2154 -1.3267
  164SAPE  H12R18452   0.649   2.995   7.797  0.1853  3.4400  1.9298
  164SAPE  C21318453   0.626   3.213   7.755  0.4460  0.4922  0.1641
  164SAPE  H13R18454   0.523   3.209   7.796 -0.3938  4.2533 -1.2169
  164SAPE  H13S18455   0.626   3.269   7.659 -0.7951 -1.0698 -0.7968
  164SAPE  C21418456   0.709   3.293   7.849  0.1815 -0.0129 -0.5095
  164SAPE  H14R18457   0.779   3.235   7.911 -1.4655 -0.3876  1.0821
  164SAPE  C21518458   0.712   3.427   7.858  0.1362  0.2270  0.1879
  164SAPE  H15R18459   0.777   3.474   7.933  1.7868 -0.7050 -0.6033
  164SAPE  C21618460   0.620   3.522   7.785  0.1805 -0.5171 -0.0055
  164SAPE  H16R18461   0.565   3.571   7.869  0.6108 -0.6130  0.3331
  164SAPE  H16S18462   0.554   3.473   7.710  1.0207 -1.3711 -0.2027
  164SAPE  C21718463   0.688   3.640   7.710 -0.3631  0.0642 -0.1220
  164SAPE  H17R18464   0.749   3.697   7.784 -0.0305 -2.5028  1.7464
  164SAPE  H17S18465   0.603   3.702   7.674  0.0875 -0.0029 -1.3482
  164SAPE  C21818466   0.780   3.586   7.608  0.6639 -0.2705 -0.0808
  164SAPE  H18R18467   0.826   3.486   7.619  1.3279  0.1373  0.9425
  164SAPE  H18S18468   0.859   3.661   7.586  1.3438 -0.8001  0.5082
  164SAPE  C21918469   0.691   3.571   7.481 -0.7541 -0.2810 -0.7689
  164SAPE  H19R18470   0.668   3.671   7.436 -0.0055 -0.9438 -2.7666
  164SAPE  H19S18471   0.601   3.507   7.495 -0.6999 -0.6042 -1.7771
  164SAPE  C22018472   0.765   3.512   7.365  0.4476  0.3419  0.1981
  164SAPE  H20R18473   0.808   3.411   7.383  1.6212  0.5407 -1.3118
  164SAPE  H20S18474   0.857   3.568   7.339  1.0445  0.0949  1.6601
  164SAPE  H20T18475   0.708   3.506   7.270 -1.6002 -0.8486  1.4430
  164SAPE   C3318476   0.586   2.697   6.760  0.0128  0.5349  0.6845
  164SAPE   H3X18477   0.493   2.644   6.731  1.2798 -0.4068 -2.0674
  164SAPE   H3Y18478   0.553   2.801   6.782  2.3161  1.4766  0.0738
  164SAPE   C3418479   0.659   2.634   6.884 -0.0557 -0.2821 -0.1445
  164SAPE   H4X18480   0.706   2.539   6.849  0.1345 -0.2898  0.1310
  164SAPE   H4Y18481   0.586   2.628   6.967  1.1515 -0.4903  0.9346
  164SAPE   C3518482   0.762   2.736   6.929 -0.2501  0.4897  0.3739
  164SAPE   H5X18483   0.725   2.835   6.966 -1.4877 -0.6192  2.2376
  164SAPE   H5Y18484   0.836   2.760   6.850  0.7622 -0.6370  0.9531
  164SAPE   C3618485   0.839   2.690   7.050  0.6284 -0.3952  0.2548
  164SAPE   H6X18486   0.897   2.596   7.041  0.0407 -0.9433  1.7278
  164SAPE   H6Y18487   0.759   2.666   7.124  1.4128  0.8808  1.5722
  164SAPE   C3718488   0.932   2.803   7.094 -0.2313  0.1176 -0.0728
  164SAPE   H7X18489   0.874   2.893   7.124 -1.5898 -1.3711  2.1083
  164SAPE   H7Y18490   0.995   2.831   7.008  0.0075 -2.0042 -0.6290
  164SAPE   C3818491   1.021   2.770   7.220  0.5146 -0.3274 -0.2487
  164SAPE   H8X18492   1.078   2.861   7.249 -1.2638  1.4005 -1.7786
  164SAPE   H8Y18493   1.092   2.691   7.188  1.4262  0.0456  0.7951
  164SAPE   C3918494   0.938   2.746   7.354 -0.3507  0.3725  0.6208
  164SAPE   H9X18495   0.847   2.811   7.348 -0.7326 -0.1722  0.4210
  164SAPE   H9Y18496   0.994   2.778   7.444  0.8339  0.4955 -0.1432
  164SAPE  C31018497   0.899   2.601   7.377  0.3268  0.0102  0.2118
  164SAPE  H10X18498   0.976   2.529   7.345  0.0878  0.0852 -0.5429
  164SAPE  H10Y18499   0.811   2.589   7.310  1.1389  3.4145 -1.7205
  164SAPE  C31118500   0.862   2.565   7.520  0.6624  0.7793 -0.5505
  164SAPE  H11X18501   0.849   2.456   7.536  0.1058  1.0146  0.6684
  164SAPE  H11Y18502   0.768   2.620   7.542  0.6241  0.7169 -0.5593
  164SAPE  C31218503   0.962   2.592   7.630 -0.4928 -0.4145 -0.4725
  164SAPE  H12X18504   1.013   2.690   7.618 -1.2845  0.5445  3.0199
  164SAPE  H12Y18505   1.038   2.511   7.620  1.0165  0.9651 -0.5357
  164SAPE  C31318506   0.904   2.563   7.772  0.6991 -0.6886  0.1663
  164SAPE  H13X18507   0.847   2.468   7.769 -1.6824  0.6557  0.6932
  164SAPE  H13Y18508   0.827   2.639   7.794  2.3964  1.1746 -0.0605
  164SAPE  C31418509   1.006   2.559   7.894  0.6596 -0.3099 -0.1380
  164SAPE  H14X18510   1.062   2.655   7.892  0.4230 -0.1046  1.5697
  164SAPE  H14Y18511   1.084   2.480   7.891  1.9371  0.9348 -0.4459
  164SAPE  C31518512   0.942   2.554   8.026  0.4602  0.1231 -0.0952
  164SAPE  H15X18513   0.905   2.449   8.030  0.6387 -0.1115 -2.7647
  164SAPE  H15Y18514   0.853   2.621   8.024 -0.7364 -1.3958 -1.4937
  164SAPE  C31618515   1.044   2.574   8.142  0.1022  0.0067  0.2547
  164SAPE  H16X18516   0.983   2.592   8.232 -0.6440 -1.0101 -0.0328
  164SAPE  H16Y18517   1.106   2.664   8.121 -1.9904  1.6553  0.8944
  164SAPE  C31718518   1.137   2.453   8.163  0.1363 -0.4153  0.7887
  164SAPE  H17X18519   1.211   2.437   8.081 -0.6989  0.4437 -0.1652
  164SAPE  H17Y18520   1.072   2.363   8.158  0.7801 -0.8336 -1.1655
  164SAPE  C31818521   1.216   2.460   8.296  0.6074 -0.1404 -0.4616
  164SAPE  H18X18522   1.252   2.357   8.318 -0.8448 -0.3891  0.8837
  164SAPE  H18Y18523   1.154   2.500   8.379  1.4087 -4.4936  2.5948
  164SAPE  H18Z18524   1.304   2.520   8.264  0.2175  0.7814  0.1519
  165SAPE     N18525   2.480   5.738   6.397 -0.2977  0.1094  0.4472
  165SAPE   HN118526   2.461   5.840   6.408 -2.8558 -0.2965  0.5656
  165SAPE   HN218527   2.402   5.689   6.349  0.2001  0.9062 -1.2609
  165SAPE   HN318528   2.507   5.689   6.484  0.5469 -1.0516 -0.4341
  165SAPE   C1218529   2.607   5.720   6.321 -0.0916  0.2145  0.7338
  165SAPE  H12A18530   2.611   5.802   6.245  0.7939 -1.4890 -1.1274
  165SAPE  H12B18531   2.622   5.617   6.283 -1.1764  0.7989 -1.4168
  165SAPE   C1118532   2.732   5.743   6.421  0.7306  0.9776  1.3966
  165SAPE  H11A18533   2.826   5.724   6.365 -0.4643 -1.0311 -0.0426
  165SAPE  H11B18534   2.729   5.671   6.506 -1.2161 -2.1869 -1.1237
  165SAPE     P18535   2.828   5.987   6.443 -0.3313  0.0561 -0.2028
  165SAPE   O1318536   2.872   5.987   6.301  0.0547  0.8865  0.1548
  165SAPE   O1418537   2.776   6.112   6.496  0.5489  0.5303  0.5760
  165SAPE   O1218538   2.722   5.876   6.476  0.8725 -0.4284  0.4105
  165SAPE   O1118539   2.945   5.935   6.522 -0.4919  0.4075 -0.0044
  165SAPE    C118540   2.921   5.895   6.663 -0.1235  0.4636 -0.5631
  165SAPE    HA18541   2.817   5.892   6.701  0.3025  0.5393  0.6479
  165SAPE    HB18542   2.958   5.791   6.663 -0.4168  0.3546 -1.1769
  165SAPE    C218543   3.003   5.983   6.761 -0.4904 -0.5243  0.2992
  165SAPE    HS18544   2.966   5.971   6.866  0.5678  1.7974  1.0172
  165SAPE   O2118545   2.994   6.122   6.720 -0.2379  0.0433 -0.4861
  165SAPE   C2118546   2.889   6.194   6.748  0.7151  0.2751 -0.1704
  165SAPE   O2218547   2.793   6.160   6.813  0.1030 -0.0895 -0.4540
  165SAPE   C2218548   2.898   6.328   6.676 -0.6576  0.4342 -0.3443
  165SAPE   H2R18549   2.912   6.288   6.573  0.5072  0.9503 -0.4036
  165SAPE   H2S18550   2.809   6.393   6.684 -0.9445  0.8352 -4.4837
  165SAPE    C318551   3.153   5.943   6.759 -0.2966  0.4345 -0.0123
  165SAPE    HX18552   3.197   5.969   6.661 -2.1928  1.3825 -0.6767
  165SAPE    HY18553   3.149   5.833   6.765  2.2533  0.3328  1.2231
  165SAPE   O3118554   3.229   6.006   6.871  0.1366  0.1508 -0.1608
  165SAPE   C3118555   3.203   5.956   6.990  0.2667 -0.1208  0.5186
  165SAPE   O3218556   3.171   5.838   7.012 -0.0855 -0.0073  0.2539
  165SAPE   C3218557   3.232   6.062   7.106  0.6159 -0.4201 -0.1523
  165SAPE   H2X18558   3.249   6.156   7.049 -1.9833  0.6149  0.6251
  165SAPE   H2Y18559   3.326   6.030   7.156  1.7669 -1.8425 -2.9966
  165SAPE   C2318560   3.022   6.404   6.724 -0.1792  0.0884  0.2185
  165SAPE   H3R18561   3.026   6.500   6.668  0.1371  1.8121  2.9724
  165SAPE   H3S18562   3.116   6.355   6.691 -0.0998  1.3318 -1.5065
  165SAPE   C2418563   3.041   6.439   6.869  0.3585 -0.0883 -0.1944
  165SAPE   H4R18564   3.127   6.509   6.864  2.1125 -2.2167 -2.2858
  165SAPE   H4S18565   3.072   6.346   6.922  2.0995  1.0505  0.9015
  165SAPE   C2518566   2.920   6.499   6.943 -1.6206  0.2102 -0.6301
  165SAPE   H5R18567   2.866   6.576   6.887  0.3565  0.7166 -1.9663
  165SAPE   C2618568   2.881   6.485   7.076 -0.7107  0.4165  0.0939
  165SAPE   H6R18569   2.783   6.530   7.098 -1.1355  0.4912 -1.7979
  165SAPE   C2718570   2.947   6.401   7.183 -0.0191 -0.3756  0.8159
  165SAPE   H7R18571   2.988   6.308   7.137 -1.6628 -0.1901 -1.1576
  165SAPE   H7S18572   2.865   6.372   7.252 -0.7938 -0.7809 -0.2483
  165SAPE   C2818573   3.050   6.476   7.258  0.1837  0.2784  0.0045
  165SAPE   H8R18574   3.136   6.510   7.197  0.0162 -0.9821 -0.9790
  165SAPE   C2918575   3.050   6.503   7.391  0.1806  0.8159 -0.0365
  165SAPE   H9R18576   3.127   6.576   7.420  0.4797  0.0297  1.2060
  165SAPE  C21018577   2.958   6.477   7.513  0.4696 -0.7345  0.4390
  165SAPE  H10R18578   2.879   6.405   7.484  1.3679 -0.7127 -2.3003
  165SAPE  H10S18579   2.901   6.567   7.548 -2.1874 -1.8022 -0.8353
  165SAPE  C21118580   3.042   6.431   7.623 -0.1200  0.4081 -0.1059
  165SAPE  H11R18581   3.135   6.381   7.592 -0.1310  0.8445 -0.8692
  165SAPE  C21218582   3.019   6.456   7.753  0.3157 -0.1482  0.0765
  165SAPE  H12R18583   3.087   6.412   7.828 -0.6701 -2.2411 -0.1682
  165SAPE  C21318584   2.898   6.533   7.809 -0.3003  0.0529  0.0095
  165SAPE  H13R18585   2.806   6.471   7.814 -2.0350  2.2625 -2.0741
  165SAPE  H13S18586   2.859   6.617   7.748 -2.4157 -0.1700  0.9481
  165SAPE  C21418587   2.935   6.607   7.941  0.4193  0.1939 -0.0611
  165SAPE  H14R18588   2.952   6.715   7.947  0.2695  0.1686  0.9486
  165SAPE  C21518589   2.958   6.542   8.054 -0.6468 -0.2443  0.0210
  165SAPE  H15R18590   2.988   6.609   8.136  2.4584  0.3811 -1.4932
  165SAPE  C21618591   2.956   6.395   8.084  0.2557  0.0659 -0.8723
  165SAPE  H16R18592   3.054   6.344   8.095 -0.3768 -1.0001  0.0115
  165SAPE  H16S18593   2.895   6.348   8.003  0.2430  0.2347 -0.9619
  165SAPE  C21718594   2.867   6.367   8.205  1.0162  0.4449 -0.2575
  165SAPE  H17R18595   2.846   6.258   8.207  0.4225  0.5541  1.5519
  165SAPE  H17S18596   2.776   6.430   8.201  0.8101  0.4903  2.6912
  165SAPE  C21818597   2.937   6.400   8.344 -0.0372 -0.0254 -0.5187
  165SAPE  H18R18598   2.932   6.511   8.352 -3.2216 -0.1369  0.3499
  165SAPE  H18S18599   3.041   6.362   8.338 -0.3813 -0.9820 -0.6539
  165SAPE  C21918600   2.853   6.361   8.465  0.2493 -0.4695  0.9379
  165SAPE  H19R18601   2.857   6.250   8.463  2.3185 -0.4390 -0.7246
  165SAPE  H19S18602   2.748   6.396   8.458  0.1217 -0.9875  0.1909
  165SAPE  C22018603   2.921   6.412   8.594 -0.3012  0.4578  0.6992
  165SAPE  H20R18604   2.865   6.368   8.679  0.9483 -0.6439  0.9771
  165SAPE  H20S18605   2.925   6.522   8.597  0.1954  0.4389  0.7781
  165SAPE  H20T18606   3.023   6.370   8.603 -0.0460  0.3502 -1.8325
  165SAPE   C3318607   3.121   6.078   7.217 -0.3517 -0.4267  0.3266
  165SAPE   H3X18608   3.024   6.067   7.164  0.2626  0.5688 -1.0695
  165SAPE   H3Y18609   3.128   6.175   7.271 -0.3052 -1.4909  2.3010
  165SAPE   C3418610   3.139   5.970   7.322  0.3174 -0.1348  0.1763
  165SAPE   H4X18611   3.244   5.982   7.356  0.4548  0.5430 -0.4715
  165SAPE   H4Y18612   3.126   5.868   7.279 -2.1831  0.4275 -0.5977
  165SAPE   C3518613   3.045   5.956   7.437  0.1300 -0.2573  0.5308
  165SAPE   H5X18614   3.056   5.850   7.469  0.7322  0.0491  1.3918
  165SAPE   H5Y18615   2.937   5.955   7.412 -0.4315 -2.3723  2.6271
  165SAPE   C3618616   3.082   6.038   7.554 -0.3996 -0.2039 -0.6113
  165SAPE   H6X18617   3.061   6.143   7.526  0.7702 -0.3026 -1.9117
  165SAPE   H6Y18618   3.188   6.016   7.579 -0.6124 -0.6498 -0.0676
  165SAPE   C3718619   2.999   6.002   7.679 -0.2524  0.0491  0.1037
  165SAPE   H7X18620   2.979   5.893   7.668 -1.6689  0.3579 -0.6034
  165SAPE   H7Y18621   2.903   6.052   7.659 -0.0626  0.2279 -0.3554
  165SAPE   C3818622   3.054   6.047   7.821  0.2426 -0.4369  0.1186
  165SAPE   H8X18623   3.041   6.157   7.822  3.1366 -0.0189  1.6284
  165SAPE   H8Y18624   3.164   6.029   7.829  0.3621  0.3821  0.3623
  165SAPE   C3918625   2.974   6.004   7.938 -0.6298  0.2918 -0.3842
  165SAPE   H9X18626   2.920   5.909   7.918  0.3877 -0.6504  1.0970
  165SAPE   H9Y18627   2.896   6.080   7.958 -0.6569  0.3913 -0.8648
  165SAPE  C31018628   3.065   5.994   8.058  0.3170 -0.0634  0.0382
  165SAPE  H10X18629   3.109   6.095   8.068 -0.3289  0.0108  3.2213
  165SAPE  H10Y18630   3.149   5.921   8.045 -1.1352 -2.2117  1.9035
  165SAPE  C31118631   2.994   5.961   8.194 -0.3514  0.2009 -0.1546
  165SAPE  H11X18632   2.920   6.044   8.202 -0.7030 -0.0150 -1.0462
  165SAPE  H11Y18633   3.063   5.969   8.281 -2.1829  0.2117  1.3514
  165SAPE  C31218634   2.937   5.818   8.203 -0.2184 -0.4057  0.7063
  165SAPE  H12X18635   3.020   5.747   8.182 -1.7048 -1.4806 -2.0949
  165SAPE  H12Y18636   2.849   5.789   8.141 -0.0486 -2.0791  1.1897
  165SAPE  C31318637   2.899   5.791   8.345  0.2195  0.5295 -0.1884
  165SAPE  H13X18638   2.831   5.867   8.390  0.1355 -1.0167  2.5266
  165SAPE  H13Y18639   2.985   5.791   8.416 -1.2744  1.3084  1.7108
  165SAPE  C31418640   2.821   5.661   8.352  0.8123 -0.3583  0.5232
  165SAPE  H14X18641   2.761   5.646   8.260  0.1251  1.4647  0.6287
  165SAPE  H14Y18642   2.736   5.660   8.424  0.4119  1.1484  0.1068
  165SAPE  C31518643   2.908   5.546   8.390  0.6432 -0.3703  0.7611
  165SAPE  H15X18644   2.986   5.576   8.464  2.4988 -1.7477 -0.5563
  165SAPE  H15Y18645   2.972   5.513   8.306 -0.7911 -0.1271 -0.4751
  165SAPE  C31618646   2.833   5.422   8.448 -0.2394  0.0573 -0.2699
  165SAPE  H16X18647   2.753   5.389   8.379 -0.4236 -3.2702  1.3170
  165SAPE  H16Y18648   2.789   5.450   8.546 -1.4683  1.8830 -1.2856
  165SAPE  C31718649   2.922   5.299   8.489 -0.2575 -0.9267  0.0157
  165SAPE  H17X18650   2.996   5.271   8.411 -0.3763 -0.8119 -0.1386
  165SAPE  H17Y18651   2.860   5.207   8.502 -2.3854 -0.1617 -3.4404
  165SAPE  C31818652   3.007   5.328   8.618  0.1618  0.2624  0.5329
  165SAPE  H18X18653   2.957   5.374   8.706  0.4854  1.2841  0.1937
  165SAPE  H18Y18654   3.082   5.404   8.589 -1.5748  1.1244 -2.0792
  165SAPE  H18Z18655   3.056   5.233   8.649 -0.2456 -0.3018 -0.4911
  166SAPE     N18656   2.440   2.279   5.945 -0.2759 -0.0509  0.3390
  166SAPE   HN118657   2.352   2.333   5.936 -0.4050 -0.2639  0.3437
  166SAPE   HN218658   2.516   2.342   5.910 -1.9101  0.1885 -3.1999
  166SAPE   HN318659   2.436   2.195   5.884  0.5592 -0.7666  1.2518
  166SAPE   C1218660   2.445   2.247   6.088  0.2491  0.2087 -0.1265
  166SAPE  H12A18661   2.544   2.199   6.106 -0.7928 -1.7203  0.8007
  166SAPE  H12B18662   2.367   2.170   6.102  0.0488  0.5514  0.6968
  166SAPE   C1118663   2.406   2.364   6.182  0.1195 -0.6663 -0.0059
  166SAPE  H11A18664   2.478   2.445   6.158 -0.9415  0.3282  0.0320
  166SAPE  H11B18665   2.418   2.342   6.291 -1.5631 -0.1407  0.3255
  166SAPE     P18666   2.201   2.521   6.238  0.3706 -0.2664  0.3772
  166SAPE   O1318667   2.276   2.640   6.213  0.0925 -0.1519 -0.5219
  166SAPE   O1418668   2.059   2.540   6.203  0.0531  0.5156 -0.1491
  166SAPE   O1218669   2.271   2.408   6.151  0.2092 -0.4532  0.4746
  166SAPE   O1118670   2.211   2.468   6.389  0.1193  0.0145  0.2940
  166SAPE    C118671   2.138   2.350   6.433  0.0555  0.8189  0.2868
  166SAPE    HA18672   2.029   2.343   6.411  0.1435 -2.5687  0.4629
  166SAPE    HB18673   2.179   2.265   6.375 -1.5339  0.6842 -0.7145
  166SAPE    C218674   2.151   2.325   6.585 -0.1421 -0.2161 -0.6065
  166SAPE    HS18675   2.098   2.234   6.621  0.1705 -0.0966  0.1649
  166SAPE   O2118676   2.108   2.438   6.653 -0.2656 -0.6701  0.6859
  166SAPE   C2118677   1.973   2.448   6.672 -0.3128  0.0265  0.6159
  166SAPE   O2218678   1.891   2.371   6.632  0.3122 -0.8616  0.4554
  166SAPE   C2218679   1.940   2.577   6.747  0.3719  0.2830 -0.0593
  166SAPE   H2R18680   2.036   2.624   6.776  1.0081 -1.3124  0.5492
  166SAPE   H2S18681   1.883   2.637   6.673 -1.0775 -0.1497  0.6744
  166SAPE    C318682   2.303   2.312   6.629 -1.2019 -0.2941  0.6721
  166SAPE    HX18683   2.357   2.404   6.597 -0.2695 -0.8383  0.6624
  166SAPE    HY18684   2.344   2.229   6.568 -0.7859 -1.0951  2.0012
  166SAPE   O3118685   2.315   2.286   6.768 -0.0094 -0.1243  0.0742
  166SAPE   C3118686   2.323   2.377   6.859  0.6396  0.0456  0.1570
  166SAPE   O3218687   2.346   2.495   6.841 -0.1648 -0.3802 -0.5121
  166SAPE   C3218688   2.301   2.317   6.996 -0.1103 -0.3510 -0.7480
  166SAPE   H2X18689   2.365   2.227   6.989  0.7215  0.3410 -2.8853
  166SAPE   H2Y18690   2.200   2.276   7.021 -0.2146 -0.1079 -0.7642
  166SAPE   C2318691   1.840   2.561   6.873 -0.5750  0.2223  0.2550
  166SAPE   H3R18692   1.901   2.516   6.954  1.8782 -0.8109 -1.9888
  166SAPE   H3S18693   1.760   2.492   6.839  0.8741 -1.2128 -0.3984
  166SAPE   C2418694   1.773   2.689   6.923  0.3908  0.3404  0.3613
  166SAPE   H4R18695   1.695   2.673   6.999 -1.1498 -2.1472 -1.5754
  166SAPE   H4S18696   1.724   2.742   6.839  1.1577  0.3929 -0.0662
  166SAPE   C2518697   1.876   2.782   6.980 -0.6773 -0.5702  0.2848
  166SAPE   H5R18698   1.923   2.842   6.901 -0.4534 -1.0374  0.0569
  166SAPE   C2618699   1.913   2.807   7.109 -0.4931  0.0413 -0.2875
  166SAPE   H6R18700   1.996   2.873   7.135  0.8002 -1.6787  0.1372
  166SAPE   C2718701   1.841   2.743   7.228  0.3719 -0.3075  0.0008
  166SAPE   H7R18702   1.740   2.707   7.199  0.1437  1.9038 -2.2887
  166SAPE   H7S18703   1.830   2.816   7.311 -0.3369 -3.2089  2.6823
  166SAPE   C2818704   1.914   2.625   7.283 -0.2478  0.5959 -1.2363
  166SAPE   H8R18705   1.899   2.529   7.232  1.2136  0.3437 -1.2119
  166SAPE   C2918706   2.008   2.622   7.384  0.4870 -0.6653 -0.3648
  166SAPE   H9R18707   2.050   2.530   7.427  0.0825  0.7758  3.5242
  166SAPE  C21018708   2.057   2.740   7.468 -0.0333 -0.2139 -0.1086
  166SAPE  H10R18709   2.060   2.836   7.412 -1.8459  0.6554  1.1707
  166SAPE  H10S18710   2.159   2.728   7.510  0.0065 -0.3057 -0.2288
  166SAPE  C21118711   1.954   2.763   7.582 -0.0381  0.3248  0.4829
  166SAPE  H11R18712   1.854   2.786   7.544 -0.0697  2.1114  1.5525
  166SAPE  C21218713   1.975   2.745   7.712 -0.7501  0.1521 -0.0608
  166SAPE  H12R18714   1.884   2.766   7.770 -0.8765  0.5260 -0.3907
  166SAPE  C21318715   2.099   2.693   7.787 -0.4221 -0.3072 -0.4643
  166SAPE  H13R18716   2.167   2.635   7.721  1.9489 -1.4111  2.6956
  166SAPE  H13S18717   2.066   2.628   7.871 -0.9266  2.5518  1.7044
  166SAPE  C21418718   2.178   2.812   7.842  0.6733 -0.4904  0.4123
  166SAPE  H14R18719   2.201   2.891   7.769 -0.4814  0.5062  1.0878
  166SAPE  C21518720   2.183   2.843   7.972  0.3312  0.4073 -0.4360
  166SAPE  H15R18721   2.243   2.930   8.003  0.2621  0.3556 -0.1560
  166SAPE  C21618722   2.140   2.766   8.099  0.1397  0.2482  0.1218
  166SAPE  H16R18723   2.223   2.713   8.151  0.5303  1.7211  1.0775
  166SAPE  H16S18724   2.076   2.681   8.067 -1.0463  1.1317  0.0927
  166SAPE  C21718725   2.048   2.832   8.205 -0.4096  0.0541  0.5422
  166SAPE  H17R18726   1.974   2.894   8.151  1.0118  2.0094  0.7407
  166SAPE  H17S18727   2.116   2.904   8.255 -0.5565  0.2966  0.3921
  166SAPE  C21818728   1.986   2.725   8.295 -0.2214  0.3425 -0.2934
  166SAPE  H18R18729   2.074   2.675   8.341 -1.7482 -0.5118  1.9127
  166SAPE  H18S18730   1.934   2.647   8.236 -1.1669 -0.2316  1.2221
  166SAPE  C21918731   1.894   2.773   8.407 -0.3554 -0.0838  0.7993
  166SAPE  H19R18732   1.868   2.697   8.483  0.5737  2.1942  3.5596
  166SAPE  H19S18733   1.807   2.812   8.351  1.5450  0.0791 -2.2814
  166SAPE  C22018734   1.950   2.894   8.478 -0.2124 -0.5951 -0.7737
  166SAPE  H20R18735   1.967   2.978   8.408 -0.2725 -1.9637 -2.4986
  166SAPE  H20S18736   2.040   2.879   8.542 -0.2715  1.4163 -0.1698
  166SAPE  H20T18737   1.878   2.931   8.554  1.6450  2.8898 -0.5355
  166SAPE   C3318738   2.339   2.410   7.112 -0.4316  0.3809 -0.7280
  166SAPE   H3X18739   2.295   2.511   7.102  0.0965  0.7498  0.5009
  166SAPE   H3Y18740   2.450   2.412   7.115 -0.4422 -0.0784  1.5892
  166SAPE   C3418741   2.310   2.343   7.243  1.2587 -0.0052  0.2947
  166SAPE   H4X18742   2.339   2.236   7.235 -0.9171 -0.5493 -1.1549
  166SAPE   H4Y18743   2.203   2.359   7.271  1.4089 -0.1358  0.9636
  166SAPE   C3518744   2.389   2.411   7.353  0.4819 -0.7936  0.0810
  166SAPE   H5X18745   2.352   2.516   7.351  0.2322 -0.8662 -2.1963
  166SAPE   H5Y18746   2.497   2.409   7.328  0.3622 -0.9344 -0.4405
  166SAPE   C3618747   2.362   2.352   7.493  0.3214  0.1195 -0.3668
  166SAPE   H6X18748   2.406   2.250   7.498  1.0969  0.4324 -0.7281
  166SAPE   H6Y18749   2.253   2.346   7.514  0.3949 -1.0328 -0.2450
  166SAPE   C3718750   2.410   2.443   7.607 -0.5098 -0.1336 -0.1502
  166SAPE   H7X18751   2.401   2.552   7.586 -0.6910 -0.3302 -1.1581
  166SAPE   H7Y18752   2.516   2.416   7.623 -0.5868 -0.8357 -0.7426
  166SAPE   C3818753   2.350   2.421   7.745 -0.3360 -0.0656 -0.0308
  166SAPE   H8X18754   2.359   2.311   7.763 -1.6537 -0.4366 -1.4246
  166SAPE   H8Y18755   2.241   2.439   7.739 -0.4031 -0.6062 -0.5655
  166SAPE   C3918756   2.432   2.487   7.864  0.3065  0.5605  0.2406
  166SAPE   H9X18757   2.419   2.597   7.872 -0.1219  0.4867  0.5629
  166SAPE   H9Y18758   2.538   2.468   7.836  0.4311  0.8591  0.5066
  166SAPE  C31018759   2.410   2.417   7.995 -0.0096  0.1894 -0.2801
  166SAPE  H10X18760   2.451   2.314   7.992  0.3517  0.3498 -1.3199
  166SAPE  H10Y18761   2.300   2.426   8.005  0.2400  0.8789  3.0034
  166SAPE  C31118762   2.466   2.492   8.122  0.4082  0.3257  0.1701
  166SAPE  H11X18763   2.426   2.596   8.121 -3.0822 -0.8876 -1.0163
  166SAPE  H11Y18764   2.575   2.513   8.118  0.1964  1.3701 -2.2045
  166SAPE  C31218765   2.425   2.424   8.248 -0.3356  0.0367 -0.1939
  166SAPE  H12X18766   2.469   2.323   8.242  0.1168  0.2407 -0.4148
  166SAPE  H12Y18767   2.314   2.426   8.256 -0.5592 -0.7098 -2.4319
  166SAPE  C31318768   2.480   2.489   8.381  0.5663 -0.3676 -0.6340
  166SAPE  H13X18769   2.448   2.595   8.395  0.4239 -0.7173  2.3583
  166SAPE  H13Y18770   2.590   2.504   8.366  0.5798  1.5370  0.9566
  166SAPE  C31418771   2.450   2.414   8.515 -0.6183  0.6161  0.3236
  166SAPE  H14X18772   2.466   2.307   8.491  0.0259  0.2828  2.1068
  166SAPE  H14Y18773   2.343   2.432   8.543 -0.9423 -0.2866 -0.3099
  166SAPE  C31518774   2.536   2.436   8.638 -0.0352 -0.0431  0.4196
  166SAPE  H15X18775   2.526   2.542   8.668 -2.5888  0.0814 -0.6061
  166SAPE  H15Y18776   2.634   2.424   8.586 -1.3025 -1.6182 -1.8125
  166SAPE  C31618777   2.506   2.346   8.753 -0.3301 -0.8482 -0.2262
  166SAPE  H16X18778   2.493   2.240   8.723  0.3424 -1.0841  0.3108
  166SAPE  H16Y18779   2.403   2.373   8.786 -0.5227  0.3400 -1.6754
  166SAPE  C31718780   2.616   2.348   8.863  0.1793  0.0788 -0.2939
  166SAPE  H17X18781   2.585   2.297   8.957 -0.2306 -0.0592 -0.5019
  166SAPE  H17Y18782   2.639   2.452   8.895  1.0039 -0.6061  1.4474
  166SAPE  C31818783   2.742   2.279   8.826  0.1366 -0.5345 -0.1996
  166SAPE  H18X18784   2.784   2.323   8.733  1.1740  1.1847  1.0190
  166SAPE  H18Y18785   2.713   2.176   8.795  1.5220  0.1297 -4.3385
  166SAPE  H18Z18786   2.819   2.287   8.905 -0.2171 -0.5896  0.1516
  167SAPE     N18787   3.387   2.220   6.005 -0.6121  0.2961 -0.5411
  167SAPE   HN118788   3.469   2.251   5.949 -1.7735  1.2580 -1.8001
  167SAPE   HN218789   3.333   2.145   5.957  0.4334  0.3145 -1.8107
  167SAPE   HN318790   3.319   2.298   5.994 -0.2107  0.4570 -2.3115
  167SAPE   C1218791   3.402   2.207   6.155  0.2378  0.1475  0.3231
  167SAPE  H12A18792   3.373   2.305   6.199 -1.2632  1.1800 -2.7310
  167SAPE  H12B18793   3.506   2.173   6.176 -0.5026 -3.9722 -1.6631
  167SAPE   C1118794   3.307   2.100   6.216 -0.5982  0.8353 -0.5635
  167SAPE  H11A18795   3.328   2.088   6.324 -0.0650 -2.2452 -0.9174
  167SAPE  H11B18796   3.341   1.999   6.185  0.3516  0.8432  0.3921
  167SAPE     P18797   3.080   2.228   6.249 -0.3272  0.1951 -0.1227
  167SAPE   O1318798   3.166   2.350   6.264  0.0620  0.1232 -0.7997
  167SAPE   O1418799   2.953   2.247   6.176 -0.0030  0.3126 -0.7192
  167SAPE   O1218800   3.173   2.125   6.179  0.8154 -0.3756 -0.2032
  167SAPE   O1118801   3.039   2.172   6.391  0.1695  0.0364  0.3274
  167SAPE    C118802   3.029   2.028   6.407  0.0128 -0.3493  0.5128
  167SAPE    HA18803   2.997   1.968   6.319 -0.4177 -1.6222  1.5010
  167SAPE    HB18804   3.133   1.990   6.422  0.3131  0.2159 -0.0554
  167SAPE    C218805   2.931   1.970   6.504  0.0996 -0.1603  0.1641
  167SAPE    HS18806   2.829   2.010   6.484 -0.0876 -0.7151  0.0116
  167SAPE   O2118807   2.970   2.011   6.641  0.4319 -0.3667  0.3481
  167SAPE   C2118808   2.874   1.993   6.731 -0.3137  0.7125  0.3039
  167SAPE   O2218809   2.765   1.941   6.709 -0.1280 -0.0052 -0.0211
  167SAPE   C2218810   2.922   2.046   6.867  0.3936 -0.1213 -0.2174
  167SAPE   H2R18811   3.019   1.999   6.897 -0.2139 -0.4985  1.2428
  167SAPE   H2S18812   2.946   2.153   6.853  0.7554 -0.2993 -1.0279
  167SAPE    C318813   2.911   1.818   6.489 -0.5560  0.9329  0.1015
  167SAPE    HX18814   2.880   1.790   6.386  0.9691  0.7459 -0.3241
  167SAPE    HY18815   2.830   1.779   6.555 -2.7796 -0.0824 -3.0026
  167SAPE   O3118816   3.044   1.750   6.510  0.0907  0.3473 -0.2574
  167SAPE   C3118817   3.071   1.688   6.624  0.1886 -0.6515 -0.2551
  167SAPE   O3218818   2.986   1.655   6.703  0.3268 -0.3540 -0.7227
  167SAPE   C3218819   3.225   1.657   6.642 -0.0808  0.5535 -0.4278
  167SAPE   H2X18820   3.282   1.749   6.617  1.3140 -0.1901 -0.0840
  167SAPE   H2Y18821   3.240   1.574   6.570 -2.5098  0.9467 -1.4901
  167SAPE   C2318822   2.813   2.035   6.969  0.0698  0.1767 -0.1421
  167SAPE   H3R18823   2.715   2.078   6.940 -0.4949 -0.8981  0.1496
  167SAPE   H3S18824   2.837   2.107   7.050 -1.6009  0.8866 -0.2504
  167SAPE   C2418825   2.786   1.893   7.025 -0.4208 -0.6318 -0.0587
  167SAPE   H4R18826   2.764   1.833   6.934 -3.4814  1.9719 -1.2078
  167SAPE   H4S18827   2.694   1.892   7.087  0.8383 -0.3746  1.8956
  167SAPE   C2518828   2.903   1.842   7.114  0.3913  0.3313  0.1712
  167SAPE   H5R18829   2.971   1.780   7.053  0.1476  0.6189 -0.4042
  167SAPE   C2618830   2.933   1.877   7.243  0.0882  0.7050  0.6320
  167SAPE   H6R18831   3.015   1.825   7.295 -1.3644 -1.4623  0.8594
  167SAPE   C2718832   2.859   1.973   7.328  0.1774  0.1803  0.7454
  167SAPE   H7R18833   2.751   1.948   7.326  0.3958 -1.0698 -3.0830
  167SAPE   H7S18834   2.865   2.068   7.270 -1.8868 -1.0739 -1.7459
  167SAPE   C2818835   2.909   1.981   7.475 -0.5099 -0.0681  0.7089
  167SAPE   H8R18836   2.976   1.902   7.512  1.8969  1.4147 -0.2773
  167SAPE   C2918837   2.868   2.063   7.574  0.0666  0.2215 -0.0551
  167SAPE   H9R18838   2.922   2.060   7.670 -0.4997  0.1200  0.2644
  167SAPE  C21018839   2.771   2.178   7.576  0.5973 -0.5151  0.2854
  167SAPE  H10R18840   2.723   2.197   7.477  0.9123 -0.0353  0.2205
  167SAPE  H10S18841   2.813   2.280   7.592 -1.5806  0.5460 -0.2809
  167SAPE  C21118842   2.661   2.145   7.671  0.0776  0.6442  0.0499
  167SAPE  H11R18843   2.578   2.089   7.625  1.5685 -0.8325 -0.9621
  167SAPE  C21218844   2.654   2.170   7.802 -0.1002  0.3728  0.9724
  167SAPE  H12R18845   2.568   2.124   7.852 -0.4037 -2.1056 -1.5514
  167SAPE  C21318846   2.757   2.238   7.889  0.1319  0.1861 -0.1021
  167SAPE  H13R18847   2.704   2.315   7.949  0.7240  0.2647  0.3274
  167SAPE  H13S18848   2.819   2.302   7.822 -1.0825  0.6071 -0.8738
  167SAPE  C21418849   2.846   2.139   7.961 -0.5428 -0.4076 -0.2055
  167SAPE  H14R18850   2.930   2.106   7.898 -0.3834 -3.4613  1.3991
  167SAPE  C21518851   2.819   2.076   8.076  0.4078  0.0020  0.3269
  167SAPE  H15R18852   2.907   2.028   8.121  0.8952 -0.4523 -1.0455
  167SAPE  C21618853   2.694   2.097   8.163  0.6680  0.2172  0.4028
  167SAPE  H16R18854   2.634   2.003   8.156  0.3261  0.4768 -0.2576
  167SAPE  H16S18855   2.624   2.170   8.115 -1.9376 -1.3684  1.5535
  167SAPE  C21718856   2.705   2.137   8.311  0.2195 -0.6416  0.1640
  167SAPE  H17R18857   2.603   2.136   8.355 -0.2170  1.8670 -0.6280
  167SAPE  H17S18858   2.756   2.234   8.331 -1.1796  0.1278  0.1316
  167SAPE  C21818859   2.783   2.039   8.391  0.0265 -0.0107 -0.3213
  167SAPE  H18R18860   2.890   2.054   8.363  0.2525  1.7625  1.2454
  167SAPE  H18S18861   2.744   1.935   8.388  0.1334 -0.2622  2.9407
  167SAPE  C21918862   2.777   2.070   8.541 -1.1466 -0.3054 -0.7287
  167SAPE  H19R18863   2.674   2.075   8.582  0.1481  3.6648  2.8374
  167SAPE  H19S18864   2.831   2.167   8.548  0.1222 -1.0104 -0.3362
  167SAPE  C22018865   2.858   1.971   8.614  0.4217 -0.0198 -0.2031
  167SAPE  H20R18866   2.816   1.868   8.608  0.7488 -0.1557 -0.1721
  167SAPE  H20S18867   2.845   1.995   8.721  0.5624 -1.1336  0.0781
  167SAPE  H20T18868   2.964   1.964   8.581  0.2799 -2.2455 -0.3699
  167SAPE   C3318869   3.251   1.596   6.780  0.5530 -0.5885 -0.5941
  167SAPE   H3X18870   3.347   1.542   6.768  1.5062  1.0569 -0.6454
  167SAPE   H3Y18871   3.169   1.525   6.806 -1.6761  1.8330 -0.5848
  167SAPE   C3418872   3.269   1.693   6.895  0.0226 -0.2988 -0.4511
  167SAPE   H4X18873   3.172   1.747   6.905  0.2359 -0.3225  3.0081
  167SAPE   H4Y18874   3.347   1.770   6.875 -0.8325  0.0077 -3.0390
  167SAPE   C3518875   3.305   1.617   7.030 -0.3280 -0.6126  0.1486
  167SAPE   H5X18876   3.396   1.559   7.003 -0.7837 -0.9917 -0.5960
  167SAPE   H5Y18877   3.225   1.544   7.050 -0.0433 -1.0766 -0.3878
  167SAPE   C3618878   3.331   1.710   7.150 -0.4117 -0.6747  0.0511
  167SAPE   H6X18879   3.263   1.797   7.150  0.3398 -0.0344  2.4817
  167SAPE   H6Y18880   3.438   1.739   7.157 -0.8626  0.5235  3.3066
  167SAPE   C3718881   3.277   1.637   7.273 -0.3271 -0.3672  0.1206
  167SAPE   H7X18882   3.337   1.544   7.282 -1.1926 -0.9700 -0.1575
  167SAPE   H7Y18883   3.175   1.598   7.253 -0.6235 -0.6574  1.9880
  167SAPE   C3818884   3.275   1.726   7.393  0.4541  0.1289 -0.0908
  167SAPE   H8X18885   3.212   1.816   7.374  0.7525  1.1274  3.0296
  167SAPE   H8Y18886   3.379   1.762   7.412  1.0944 -0.4799 -2.2702
  167SAPE   C3918887   3.227   1.661   7.529  0.5769 -0.7232  0.8437
  167SAPE   H9X18888   3.299   1.581   7.556  1.1197 -1.1526 -1.6791
  167SAPE   H9Y18889   3.125   1.619   7.532  0.2791 -0.3220 -1.7405
  167SAPE  C31018890   3.237   1.779   7.638  0.0680  0.5943  0.5402
  167SAPE  H10X18891   3.158   1.853   7.617 -1.5395 -0.7958  1.4510
  167SAPE  H10Y18892   3.338   1.823   7.622 -0.2649  1.3997  0.6422
  167SAPE  C31118893   3.229   1.728   7.783 -0.6012  0.6017  1.6129
  167SAPE  H11X18894   3.312   1.655   7.789  0.3216  1.5601  0.9570
  167SAPE  H11Y18895   3.132   1.680   7.806 -0.4218 -1.6452 -1.6829
  167SAPE  C31218896   3.247   1.851   7.882  0.3940  0.3047 -0.4215
  167SAPE  H12X18897   3.173   1.930   7.855  1.8515  1.8737 -0.0378
  167SAPE  H12Y18898   3.351   1.889   7.878  0.4736  0.1168 -0.1334
  167SAPE  C31318899   3.222   1.798   8.028 -0.5315 -0.1378  0.1281
  167SAPE  H13X18900   3.295   1.718   8.051 -0.7059 -0.6705 -1.1205
  167SAPE  H13Y18901   3.121   1.754   8.014 -1.7709  2.4264  0.4554
  167SAPE  C31418902   3.208   1.908   8.138 -0.3036 -0.4363  0.3202
  167SAPE  H14X18903   3.195   1.999   8.075  2.3108 -0.0467  0.2030
  167SAPE  H14Y18904   3.310   1.922   8.180  0.9120 -1.0415 -2.1869
  167SAPE  C31518905   3.112   1.881   8.251 -0.3250  0.4732  0.1698
  167SAPE  H15X18906   3.010   1.867   8.209  1.2545  0.8714 -4.3092
  167SAPE  H15Y18907   3.112   1.965   8.324 -1.7839 -0.7199  1.6252
  167SAPE  C31618908   3.149   1.754   8.322  0.0923 -0.1639 -0.3887
  167SAPE  H16X18909   3.251   1.767   8.364  0.0261  1.4119 -0.6823
  167SAPE  H16Y18910   3.146   1.663   8.257  1.4913 -1.2187  0.9489
  167SAPE  C31718911   3.063   1.724   8.444 -0.3101 -0.2244 -0.5309
  167SAPE  H17X18912   2.955   1.726   8.418 -0.5866  1.9337  0.5619
  167SAPE  H17Y18913   3.080   1.797   8.526  2.6551  0.3120 -1.4982
  167SAPE  C31818914   3.094   1.586   8.499 -0.3354 -0.0003  0.2856
  167SAPE  H18X18915   3.125   1.524   8.412 -0.6965  0.7875 -0.4164
  167SAPE  H18Y18916   3.007   1.536   8.547  2.3629 -2.0257  3.5764
  167SAPE  H18Z18917   3.183   1.572   8.564  0.0915 -1.8470 -0.6228
  168SAPE     N18918   4.323   3.805   6.452 -0.0236 -0.1593  0.4446
  168SAPE   HN118919   4.370   3.897   6.458 -0.6855  0.0988  2.8424
  168SAPE   HN218920   4.385   3.725   6.429 -1.5024 -1.8109  1.8424
  168SAPE   HN318921   4.252   3.814   6.377  1.2761  0.3600 -0.7522
  168SAPE   C1218922   4.260   3.768   6.582 -0.0575  0.2195 -0.6233
  168SAPE  H12A18923   4.189   3.849   6.613 -0.2982  0.9810 -2.9454
  168SAPE  H12B18924   4.344   3.756   6.654 -1.6129 -1.5222  1.0366
  168SAPE   C1118925   4.186   3.638   6.577 -0.1719  0.0936 -0.2869
  168SAPE  H11A18926   4.128   3.633   6.482  0.2625  3.1217 -0.8002
  168SAPE  H11B18927   4.112   3.629   6.660  0.9136 -3.1955  0.4611
  168SAPE     P18928   4.256   3.381   6.599 -0.3180  0.4261  0.4635
  168SAPE   O1318929   4.245   3.308   6.467  0.6503 -0.4395  0.2306
  168SAPE   O1418930   4.365   3.331   6.682  0.3486 -0.5388  0.1224
  168SAPE   O1218931   4.281   3.529   6.561  0.0870  0.3418 -0.3260
  168SAPE   O1118932   4.118   3.371   6.675 -0.5456  0.0485  0.5136
  168SAPE    C118933   4.092   3.239   6.736  0.7784 -0.9607  0.2619
  168SAPE    HA18934   3.990   3.225   6.695  0.0788  0.6657  1.3144
  168SAPE    HB18935   4.156   3.154   6.703  1.0321 -0.8806  0.5344
  168SAPE    C218936   4.085   3.243   6.887 -0.1474  0.3162  0.5243
  168SAPE    HS18937   4.059   3.140   6.918 -1.9276  0.8230  0.7986
  168SAPE   O2118938   3.985   3.329   6.930 -0.3303 -0.2879  0.2074
  168SAPE   C2118939   3.865   3.280   6.959  0.8028  0.3012 -0.2096
  168SAPE   O2218940   3.827   3.170   6.926  0.1491 -0.5776 -0.0200
  168SAPE   C2218941   3.779   3.386   7.035 -0.3362 -0.2045  0.0814
  168SAPE   H2R18942   3.840   3.427   7.118  0.6932  0.7285 -1.0935
  168SAPE   H2S18943   3.753   3.459   6.956  2.1625 -2.2283 -2.8691
  168SAPE    C318944   4.224   3.275   6.954  0.5907  0.2390 -0.5522
  168SAPE    HX18945   4.252   3.376   6.917  0.4077  0.8084  0.8319
  168SAPE    HY18946   4.295   3.196   6.921  0.4689 -0.2081  0.2304
  168SAPE   O3118947   4.221   3.276   7.099 -0.2630 -0.1008  0.5365
  168SAPE   C3118948   4.197   3.389   7.158 -0.9597 -0.1724  0.7885
  168SAPE   O3218949   4.167   3.491   7.097 -0.8762  0.1085 -0.3408
  168SAPE   C3218950   4.218   3.378   7.309 -0.1189 -0.8861  0.0193
  168SAPE   H2X18951   4.323   3.341   7.319  0.1975 -0.3053 -0.9455
  168SAPE   H2Y18952   4.131   3.325   7.352 -0.6678 -0.0042  0.0125
  168SAPE   C2318953   3.650   3.320   7.094 -0.3724 -0.6139 -0.5318
  168SAPE   H3R18954   3.601   3.280   7.002 -0.5467  3.9221 -2.6770
  168SAPE   H3S18955   3.586   3.404   7.129 -0.6916 -0.6861 -0.9382
  168SAPE   C2418956   3.669   3.206   7.197 -0.3364 -0.0876  0.6810
  168SAPE   H4R18957   3.700   3.114   7.142  0.0068  1.0343 -1.0883
  168SAPE   H4S18958   3.566   3.179   7.231 -1.6823  0.9155 -2.2900
  168SAPE   C2518959   3.759   3.237   7.311 -0.1857 -0.5720 -0.1627
  168SAPE   H5R18960   3.730   3.321   7.376  0.6810 -1.6520  1.7414
  168SAPE   C2618961   3.874   3.172   7.348  0.5623  0.0480  0.0070
  168SAPE   H6R18962   3.931   3.213   7.432 -0.1892 -2.9936  2.1676
  168SAPE   C2718963   3.941   3.051   7.277  0.3662  0.1162 -0.8256
  168SAPE   H7R18964   3.891   3.032   7.180 -1.2470 -1.1164  0.1783
  168SAPE   H7S18965   3.905   2.958   7.326 -0.3588  0.6298 -0.3484
  168SAPE   C2818966   4.091   3.058   7.267 -0.3644 -0.0857  0.7244
  168SAPE   H8R18967   4.130   3.081   7.167 -1.9800 -1.9902 -0.4229
  168SAPE   C2918968   4.176   3.022   7.364 -0.7234  0.6490  0.7222
  168SAPE   H9R18969   4.285   3.033   7.351 -0.4317 -1.6436  0.7640
  168SAPE  C21018970   4.136   2.980   7.499 -0.1181  0.1085 -0.0503
  168SAPE  H10R18971   4.189   2.886   7.527  1.3994  1.2226  1.0086
  168SAPE  H10S18972   4.030   2.950   7.516 -0.1290  0.3670  0.3364
  168SAPE  C21118973   4.174   3.079   7.611  0.2606  0.1642  0.1538
  168SAPE  H11R18974   4.214   3.177   7.581  0.1032 -0.5601 -2.7328
  168SAPE  C21218975   4.132   3.063   7.739  0.2981 -0.1814  0.4918
  168SAPE  H12R18976   4.156   3.141   7.813 -2.1802  1.0603  0.1120
  168SAPE  C21318977   4.052   2.944   7.801 -0.2062 -0.8353  0.1558
  168SAPE  H13R18978   4.129   2.882   7.852  1.1455  0.0941 -0.6974
  168SAPE  H13S18979   4.013   2.880   7.720 -2.5822  0.0649  0.4829
  168SAPE  C21418980   3.949   2.980   7.906  0.0880 -0.0603  0.2803
  168SAPE  H14R18981   3.984   2.957   8.007  0.7369  2.9495  0.8436
  168SAPE  C21518982   3.835   3.051   7.877 -0.9072  0.1053 -0.9723
  168SAPE  H15R18983   3.764   3.065   7.960 -0.8278 -1.2684 -0.6586
  168SAPE  C21618984   3.804   3.104   7.741  0.3941  0.9323  0.1140
  168SAPE  H16R18985   3.826   3.043   7.650  0.2405  3.7698 -1.9692
  168SAPE  H16S18986   3.867   3.195   7.732 -0.3840  1.5231  0.5296
  168SAPE  C21718987   3.652   3.120   7.720  0.3959  0.3966 -1.1187
  168SAPE  H17R18988   3.610   3.176   7.807  1.7996 -0.4054  0.1302
  168SAPE  H17S18989   3.603   3.021   7.722 -2.3156  1.6448 -1.5659
  168SAPE  C21818990   3.605   3.164   7.589 -0.1948 -0.4088  0.2336
  168SAPE  H18R18991   3.611   3.085   7.512 -2.3728  0.2289 -0.6666
  168SAPE  H18S18992   3.666   3.255   7.569  2.3895 -1.8889  1.0375
  168SAPE  C21918993   3.459   3.206   7.610  0.4244  0.5747  0.7024
  168SAPE  H19R18994   3.437   3.284   7.686 -1.2894  2.2763 -1.3816
  168SAPE  H19S18995   3.411   3.111   7.640  1.3119  0.4225  1.6484
  168SAPE  C22018996   3.393   3.258   7.482  0.5792  0.3643 -0.9856
  168SAPE  H20R18997   3.407   3.180   7.405  2.8127  1.0359 -1.3137
  168SAPE  H20S18998   3.429   3.361   7.460 -0.0081  0.5579 -1.0640
  168SAPE  H20T18999   3.291   3.291   7.513  1.2386  0.6013  1.1471
  168SAPE   C3319000   4.210   3.518   7.376 -0.7981 -0.4363  0.2596
  168SAPE   H3X19001   4.156   3.596   7.318 -3.2316 -2.4544 -0.4164
  168SAPE   H3Y19002   4.306   3.563   7.408 -0.1098 -0.9167 -1.0827
  168SAPE   C3419003   4.134   3.507   7.508  0.8125 -0.3784  0.0211
  168SAPE   H4X19004   4.068   3.417   7.511  1.4869 -0.9714 -1.5540
  168SAPE   H4Y19005   4.078   3.603   7.509  1.1137 -0.1838 -0.9796
  168SAPE   C3519006   4.213   3.497   7.640  0.6400  0.3060 -0.3283
  168SAPE   H5X19007   4.293   3.573   7.644  0.5808  0.3328  0.3752
  168SAPE   H5Y19008   4.267   3.400   7.632  0.1678  0.1867 -2.7791
  168SAPE   C3619009   4.127   3.510   7.762  0.0287  0.3039  0.5044
  168SAPE   H6X19010   4.034   3.458   7.733  0.1571  1.5512 -2.4861
  168SAPE   H6Y19011   4.105   3.615   7.790  0.5151  1.3560 -2.6200
  168SAPE   C3719012   4.193   3.441   7.879  0.5271 -0.0730  0.1212
  168SAPE   H7X19013   4.289   3.480   7.917  0.4735 -0.9099  1.1359
  168SAPE   H7Y19014   4.200   3.334   7.848 -1.5336 -0.6839  1.5219
  168SAPE   C3819015   4.100   3.458   8.003 -0.0262  0.8429  0.4744
  168SAPE   H8X19016   4.047   3.555   8.005 -0.8508  0.4232 -0.5448
  168SAPE   H8Y19017   4.160   3.453   8.097  0.6681 -2.5110 -0.0157
  168SAPE   C3919018   3.987   3.353   8.007  0.2164 -0.0219  0.0126
  168SAPE   H9X19019   4.038   3.257   8.032  1.8545  0.5095 -1.0710
  168SAPE   H9Y19020   3.924   3.350   7.916 -2.4017  1.7527  1.6480
  168SAPE  C31019021   3.897   3.384   8.130 -0.4333  0.5920  1.2217
  168SAPE  H10X19022   3.849   3.481   8.105  2.8087  1.9925 -0.1569
  168SAPE  H10Y19023   3.956   3.411   8.220 -1.2192  1.3225  1.5314
  168SAPE  C31119024   3.795   3.279   8.148  0.1237  0.3439  0.8143
  168SAPE  H11X19025   3.851   3.184   8.161 -0.1047  0.3400  1.8578
  168SAPE  H11Y19026   3.727   3.269   8.061  2.9335 -0.9114 -1.3906
  168SAPE  C31219027   3.703   3.297   8.272  0.4841  0.7072  0.2194
  168SAPE  H12X19028   3.654   3.396   8.282 -0.3617  0.4281 -0.9192
  168SAPE  H12Y19029   3.775   3.303   8.356 -0.6256 -1.9804  1.4778
  168SAPE  C31319030   3.606   3.185   8.306 -0.1917  0.1505  0.4612
  168SAPE  H13X19031   3.644   3.087   8.268  0.2639  0.1775  0.8506
  168SAPE  H13Y19032   3.514   3.217   8.252 -0.4182 -1.1004  0.0541
  168SAPE  C31419033   3.566   3.178   8.451  0.3691  0.5035  0.2977
  168SAPE  H14X19034   3.479   3.116   8.482  0.6118  0.9104  1.8927
  168SAPE  H14Y19035   3.527   3.276   8.485  0.8708  0.5743  0.6745
  168SAPE  C31519036   3.669   3.127   8.551 -1.0020 -0.1107 -0.3073
  168SAPE  H15X19037   3.763   3.187   8.555 -1.2083  0.1737  0.8709
  168SAPE  H15Y19038   3.701   3.023   8.528  1.0454  0.0798  1.3216
  168SAPE  C31619039   3.607   3.128   8.695 -0.3714 -0.4114  0.0802
  168SAPE  H16X19040   3.523   3.056   8.704  0.8752 -2.0731 -0.9260
  168SAPE  H16Y19041   3.582   3.228   8.735  0.0357 -0.5995  0.8169
  168SAPE  C31719042   3.698   3.067   8.803  0.4036  0.4672 -0.0075
  168SAPE  H17X19043   3.659   3.112   8.897  1.2289  0.9159  0.1329
  168SAPE  H17Y19044   3.801   3.108   8.787 -0.2243  1.1987 -2.6118
  168SAPE  C31819045   3.693   2.918   8.806  0.0621  0.7773  0.3252
  168SAPE  H18X19046   3.591   2.875   8.798  0.1146  0.9975 -2.1404
  168SAPE  H18Y19047   3.720   2.885   8.909  0.7120 -1.0009 -0.3726
  168SAPE  H18Z19048   3.758   2.868   8.732  0.7707  0.5120  1.1060
  169SAPE     N19049   3.153   3.965   6.292  0.6616 -0.3714  0.1527
  169SAPE   HN119050   3.218   3.964   6.373  1.6009 -0.7612 -0.5967
  169SAPE   HN219051   3.105   3.873   6.293  0.2941 -0.2947  3.9221
  169SAPE   HN319052   3.210   3.948   6.207  3.1407 -1.0052  1.8298
  169SAPE   C1219053   3.044   4.077   6.297  0.2588  0.5000  0.0197
  169SAPE  H12A19054   3.086   4.172   6.259  1.9798  0.6296  2.0304
  169SAPE  H12B19055   3.030   4.094   6.406 -1.5553 -0.9236  0.0613
  169SAPE   C1119056   2.917   4.036   6.226  0.0636 -0.1744 -0.0846
  169SAPE  H11A19057   2.934   4.052   6.117  0.9482  0.3448  0.1184
  169SAPE  H11B19058   2.838   4.110   6.252 -1.5312 -2.3969  1.7539
  169SAPE     P19059   2.762   3.869   6.366 -0.0365  0.4562  0.1041
  169SAPE   O1319060   2.658   3.971   6.357 -0.3418 -0.3755 -0.0935
  169SAPE   O1419061   2.727   3.729   6.347  0.0264  0.9879  0.3710
  169SAPE   O1219062   2.868   3.907   6.249 -0.1670  0.1009 -0.0192
  169SAPE   O1119063   2.849   3.891   6.491 -0.1183  0.1633 -0.5545
  169SAPE    C119064   2.827   4.007   6.569 -0.2037 -0.2421 -0.2279
  169SAPE    HA19065   2.928   4.036   6.605  0.3066 -3.6512  1.5188
  169SAPE    HB19066   2.776   4.094   6.523  0.2619  1.0131  1.5353
  169SAPE    C219067   2.750   3.978   6.696  0.1165  0.1238 -0.6081
  169SAPE    HS19068   2.647   3.942   6.675 -0.5298  0.8269  1.2102
  169SAPE   O2119069   2.757   4.097   6.776  0.5915  0.2516 -0.1475
  169SAPE   C2119070   2.673   4.191   6.751 -0.1793 -0.2897  0.0994
  169SAPE   O2219071   2.584   4.190   6.666 -0.2366  0.1515 -0.7659
  169SAPE   C2219072   2.703   4.308   6.837 -0.5244 -0.6909 -0.1889
  169SAPE   H2R19073   2.811   4.331   6.828  0.5274 -3.5265  2.9245
  169SAPE   H2S19074   2.643   4.392   6.797 -0.9929 -0.7332  0.4171
  169SAPE    C319075   2.819   3.874   6.774  0.1474 -0.2752 -0.4497
  169SAPE    HX19076   2.924   3.907   6.788 -0.8326  2.7810  0.4444
  169SAPE    HY19077   2.822   3.782   6.712  2.9360 -2.0270  1.9815
  169SAPE   O3119078   2.772   3.860   6.908  0.4848 -0.9827 -0.2526
  169SAPE   C3119079   2.661   3.789   6.914  0.1939 -0.0515  0.0499
  169SAPE   O3219080   2.600   3.742   6.819 -0.4864  0.2502 -0.3318
  169SAPE   C3219081   2.614   3.787   7.063  0.1037 -0.2725 -0.0978
  169SAPE   H2X19082   2.614   3.894   7.095 -0.5744 -0.2523 -0.1559
  169SAPE   H2Y19083   2.696   3.735   7.118  1.2074  0.8571 -0.6276
  169SAPE   C2319084   2.653   4.272   6.984 -0.2668 -0.8666  0.5337
  169SAPE   H3R19085   2.714   4.187   7.020  2.2466  0.8286  0.5129
  169SAPE   H3S19086   2.546   4.240   6.980 -0.2945 -0.6719 -2.0011
  169SAPE   C2419087   2.678   4.386   7.079  0.0076 -0.4882 -0.3455
  169SAPE   H4R19088   2.785   4.413   7.085 -0.0749  0.2377 -1.8593
  169SAPE   H4S19089   2.646   4.352   7.180  1.6429 -2.1266 -0.3360
  169SAPE   C2519090   2.607   4.516   7.044  0.2743 -0.5005  0.1636
  169SAPE   H5R19091   2.512   4.501   6.992  0.2235  0.1690  0.0660
  169SAPE   C2619092   2.637   4.648   7.071  0.3189 -0.5442  0.7508
  169SAPE   H6R19093   2.577   4.730   7.028  0.2143 -0.6304  0.7326
  169SAPE   C2719094   2.761   4.687   7.147 -0.0042 -0.4614  0.1175
  169SAPE   H7R19095   2.798   4.602   7.209 -2.1848  1.6630  4.8029
  169SAPE   H7S19096   2.734   4.771   7.214  0.2435 -0.2905  0.0020
  169SAPE   C2819097   2.881   4.720   7.060  0.8399  0.1427  0.0009
  169SAPE   H8R19098   2.922   4.644   6.992  0.0011  1.5260 -2.1557
  169SAPE   C2919099   2.941   4.839   7.062 -0.5489 -0.0404 -0.4385
  169SAPE   H9R19100   3.030   4.852   6.999 -1.5415  0.2677 -1.8310
  169SAPE  C21019101   2.911   4.947   7.162 -0.1575 -0.1491 -0.1417
  169SAPE  H10R19102   3.005   5.004   7.175 -1.2768  1.5931  0.7156
  169SAPE  H10S19103   2.910   4.902   7.264 -0.6303  1.0846  0.4204
  169SAPE  C21119104   2.797   5.034   7.130  0.3430 -0.2783 -1.0226
  169SAPE  H11R19105   2.731   5.009   7.046 -0.7149  2.2877 -1.0389
  169SAPE  C21219106   2.754   5.129   7.214 -0.4713 -0.0231  0.0686
  169SAPE  H12R19107   2.665   5.186   7.182 -0.8553  0.2580  1.5629
  169SAPE  C21319108   2.810   5.171   7.355 -0.1308  0.8647  1.2585
  169SAPE  H13R19109   2.746   5.253   7.393 -1.3409  0.5494 -0.0227
  169SAPE  H13S19110   2.913   5.214   7.348 -0.5725  2.0212  1.6465
  169SAPE  C21419111   2.811   5.060   7.462 -0.7574  0.3736  0.0711
  169SAPE  H14R19112   2.736   4.980   7.456 -0.3031 -0.0798  0.3191
  169SAPE  C21519113   2.890   5.060   7.567 -0.4910  0.0971 -0.1959
  169SAPE  H15R19114   2.872   4.983   7.644  0.1798  0.2259  0.0881
  169SAPE  C21619115   2.996   5.167   7.600 -0.2079 -0.2237  0.4871
  169SAPE  H16R19116   2.989   5.185   7.710  3.0577 -0.7762  0.8899
  169SAPE  H16S19117   2.971   5.265   7.553 -2.3808 -0.4783  0.9945
  169SAPE  C21719118   3.140   5.117   7.565  0.1560 -0.2562 -0.1001
  169SAPE  H17R19119   3.215   5.196   7.587  0.2099 -0.3527  0.0656
  169SAPE  H17S19120   3.138   5.104   7.455 -0.9943  0.3432 -0.1620
  169SAPE  C21819121   3.186   4.987   7.640  0.3526 -0.2598 -0.6023
  169SAPE  H18R19122   3.281   4.942   7.603  0.4653  0.4085 -1.1553
  169SAPE  H18S19123   3.105   4.912   7.629 -0.4852  0.5863 -0.3350
  169SAPE  C21919124   3.197   5.018   7.791  0.3544  0.2439  0.2498
  169SAPE  H19R19125   3.113   5.070   7.842  2.6984  3.0088  1.6136
  169SAPE  H19S19126   3.280   5.089   7.807 -0.7034  1.9621 -1.4795
  169SAPE  C22019127   3.204   4.889   7.864  0.6034 -0.1638 -0.5208
  169SAPE  H20R19128   3.229   4.899   7.972  1.6172  0.3553 -0.7912
  169SAPE  H20S19129   3.287   4.834   7.815  0.7359  2.4839 -3.6221
  169SAPE  H20T19130   3.112   4.829   7.846  1.6289 -1.3599 -1.9963
  169SAPE   C3319131   2.485   3.713   7.082 -0.2406  0.4929  0.6350
  169SAPE   H3X19132   2.500   3.624   7.017  3.0751  1.2771  0.1284
  169SAPE   H3Y19133   2.397   3.779   7.065 -0.6243  0.1529  1.2673
  169SAPE   C3419134   2.479   3.642   7.222  0.2345 -0.4574  0.8407
  169SAPE   H4X19135   2.576   3.588   7.224  2.0303  2.4499 -0.6026
  169SAPE   H4Y19136   2.394   3.570   7.230  1.2749 -2.0843 -1.6841
  169SAPE   C3519137   2.457   3.738   7.342 -0.0243 -0.0482  1.3086
  169SAPE   H5X19138   2.387   3.819   7.310  0.5264  0.6797  1.9006
  169SAPE   H5Y19139   2.558   3.782   7.359 -0.4111  2.1250 -1.2277
  169SAPE   C3619140   2.403   3.674   7.469 -0.1811  0.2612  0.6838
  169SAPE   H6X19141   2.477   3.604   7.513 -0.1710 -1.0139 -1.1950
  169SAPE   H6Y19142   2.321   3.608   7.434  0.4355 -0.6676  0.9703
  169SAPE   C3719143   2.364   3.779   7.575  0.1367 -0.1855 -0.0703
  169SAPE   H7X19144   2.279   3.843   7.543  0.5853 -0.1399 -1.2005
  169SAPE   H7Y19145   2.439   3.859   7.589  0.4123 -0.3927 -0.3466
  169SAPE   C3819146   2.327   3.724   7.713 -0.0005 -0.5243  0.2884
  169SAPE   H8X19147   2.404   3.657   7.756  0.1402 -1.9741 -2.0201
  169SAPE   H8Y19148   2.237   3.660   7.701 -1.0044  0.6340  1.3444
  169SAPE   C3919149   2.289   3.835   7.809 -0.0162  0.2999  0.2727
  169SAPE   H9X19150   2.206   3.886   7.755  0.7993  0.9085 -0.4278
  169SAPE   H9Y19151   2.376   3.904   7.816  0.2031  0.0703 -0.1573
  169SAPE  C31019152   2.256   3.776   7.953 -0.1070  0.1503 -0.4126
  169SAPE  H10X19153   2.346   3.737   8.005 -0.0227  0.2310 -0.4980
  169SAPE  H10Y19154   2.174   3.701   7.949 -0.1277  0.0248  1.3287
  169SAPE  C31119155   2.205   3.898   8.038 -0.3218  0.8139  0.2349
  169SAPE  H11X19156   2.107   3.932   7.999 -0.1094  0.1000 -0.9666
  169SAPE  H11Y19157   2.285   3.973   8.019  0.4689 -0.0283  0.1737
  169SAPE  C31219158   2.194   3.855   8.184 -0.0495  0.9075  0.1069
  169SAPE  H12X19159   2.272   3.779   8.204 -1.2927  0.0228  1.8967
  169SAPE  H12Y19160   2.102   3.798   8.209  1.8152 -1.6145  1.8238
  169SAPE  C31319161   2.211   3.974   8.277 -0.8314 -0.7423  0.6702
  169SAPE  H13X19162   2.149   4.056   8.235 -1.0695 -0.9651  0.5772
  169SAPE  H13Y19163   2.317   4.003   8.268 -1.3272  0.8800 -0.4512
  169SAPE  C31419164   2.192   3.946   8.424 -0.4466 -0.0700  0.0648
  169SAPE  H14X19165   2.258   3.860   8.446  0.1853  0.8289  1.8108
  169SAPE  H14Y19166   2.089   3.923   8.458 -0.5245  3.4516  2.7861
  169SAPE  C31519167   2.257   4.058   8.507  0.0886  1.0729  0.4046
  169SAPE  H15X19168   2.189   4.144   8.489 -0.9827  0.0520 -0.7286
  169SAPE  H15Y19169   2.361   4.075   8.473 -0.3854  0.9883 -1.2041
  169SAPE  C31619170   2.276   4.040   8.658 -1.1434  0.0927 -0.2903
  169SAPE  H16X19171   2.348   4.114   8.699 -0.3758 -1.0360  0.4626
  169SAPE  H16Y19172   2.319   3.941   8.684 -0.0187  0.9800  1.4661
  169SAPE  C31719173   2.143   4.058   8.731  0.6295 -0.0044 -0.2488
  169SAPE  H17X19174   2.064   4.010   8.669 -0.3675  1.2314  0.0224
  169SAPE  H17Y19175   2.128   4.165   8.754  3.4189  1.1191 -2.9408
  169SAPE  C31819176   2.142   3.979   8.861  0.0249 -0.3788  0.1350
  169SAPE  H18X19177   2.210   4.022   8.936 -1.0013 -1.6464  1.8645
  169SAPE  H18Y19178   2.183   3.878   8.840 -0.6219 -0.7167  0.4684
  169SAPE  H18Z19179   2.045   3.969   8.915 -0.4546 -0.6486 -0.7476
  170SAPE     N19180   4.488   2.245   6.047 -0.0698 -0.5677  0.3584
  170SAPE   HN119181   4.585   2.248   6.086  0.0796  0.3348 -0.0448
  170SAPE   HN219182   4.478   2.148   6.012 -2.1460 -0.0902 -0.4953
  170SAPE   HN319183   4.505   2.298   5.959  1.5976 -1.3016  0.2051
  170SAPE   C1219184   4.390   2.285   6.143  0.4331  0.6644 -0.0387
  170SAPE  H12A19185   4.407   2.392   6.166  2.3748  0.1286  1.2762
  170SAPE  H12B19186   4.415   2.232   6.238  1.6680  3.7539  1.4903
  170SAPE   C1119187   4.253   2.243   6.102  0.0005 -0.6382  0.2268
  170SAPE  H11A19188   4.235   2.271   5.995 -1.7171 -2.0583  0.1058
  170SAPE  H11B19189   4.176   2.292   6.165 -0.3392  1.2460 -1.5226
  170SAPE     P19190   4.238   2.008   6.211 -0.2563 -0.0357 -0.0412
  170SAPE   O1319191   4.154   1.895   6.165  0.2066 -0.0328  0.8322
  170SAPE   O1419192   4.376   1.978   6.245 -0.2860  0.2935  0.2908
  170SAPE   O1219193   4.244   2.102   6.089 -0.5485 -0.3356 -0.4135
  170SAPE   O1119194   4.156   2.094   6.318 -0.0011  0.2933 -0.3828
  170SAPE    C119195   4.217   2.149   6.433  0.3121  0.1794  1.0505
  170SAPE    HA19196   4.324   2.178   6.420  0.8654 -1.9910  0.2697
  170SAPE    HB19197   4.163   2.240   6.468  1.9658  1.3140  0.7629
  170SAPE    C219198   4.222   2.044   6.549 -0.1540  0.2829  0.0162
  170SAPE    HS19199   4.287   1.960   6.519  1.0037  1.5223 -1.0526
  170SAPE   O2119200   4.090   1.988   6.569 -0.0167 -0.1241 -0.4733
  170SAPE   C2119201   4.078   1.876   6.629 -0.3957  0.0956 -0.0308
  170SAPE   O2219202   4.165   1.790   6.644  0.0718 -0.1327 -0.5639
  170SAPE   C2219203   3.938   1.873   6.692 -0.2556  0.2246 -0.5110
  170SAPE   H2R19204   3.946   1.798   6.774 -1.1103  0.3412 -0.3189
  170SAPE   H2S19205   3.909   1.973   6.730 -2.3504  0.0833 -1.5940
  170SAPE    C319206   4.275   2.110   6.680 -0.6377 -0.5866 -0.1004
  170SAPE    HX19207   4.213   2.202   6.671 -0.1032 -0.4159 -2.5309
  170SAPE    HY19208   4.381   2.140   6.670 -1.6930  2.8234 -3.2405
  170SAPE   O3119209   4.246   2.044   6.797 -0.1657 -0.3054 -0.2883
  170SAPE   C3119210   4.331   1.959   6.843 -0.3966  0.3746  0.3825
  170SAPE   O3219211   4.442   1.933   6.789  0.1131 -0.4982 -0.1176
  170SAPE   C3219212   4.290   1.892   6.980 -0.1576  0.7528  0.5295
  170SAPE   H2X19213   4.367   1.814   6.994  0.6445  1.3525 -0.4185
  170SAPE   H2Y19214   4.190   1.847   6.960  0.2815  0.5396 -1.3361
  170SAPE   C2319215   3.821   1.823   6.604  0.1575  0.3142 -0.0354
  170SAPE   H3R19216   3.831   1.718   6.568  1.1145 -0.4869  2.3491
  170SAPE   H3S19217   3.826   1.891   6.516 -2.6445 -1.0092 -1.3563
  170SAPE   C2419218   3.687   1.860   6.666  0.4371 -0.3677  0.3901
  170SAPE   H4R19219   3.617   1.889   6.585 -1.2046 -0.4540  1.7239
  170SAPE   H4S19220   3.711   1.960   6.708  0.1129  0.6906 -1.8138
  170SAPE   C2519221   3.627   1.756   6.761 -0.8900 -0.2521  0.2192
  170SAPE   H5R19222   3.598   1.663   6.709  1.8751 -1.2529  0.3175
  170SAPE   C2619223   3.623   1.756   6.892  0.4104 -0.4006 -0.4453
  170SAPE   H6R19224   3.594   1.667   6.949  3.8757 -0.8027  0.9485
  170SAPE   C2719225   3.674   1.864   6.987  0.1477 -0.2039 -0.8233
  170SAPE   H7R19226   3.605   1.877   7.073  0.0527 -0.7204 -0.8194
  170SAPE   H7S19227   3.663   1.962   6.936 -1.7239  0.8935  1.5280
  170SAPE   C2819228   3.810   1.847   7.051  0.3506 -0.2407  0.1707
  170SAPE   H8R19229   3.889   1.904   7.001  0.2449  1.2073  1.5592
  170SAPE   C2919230   3.847   1.777   7.158 -0.0418 -0.0322  0.6440
  170SAPE   H9R19231   3.953   1.775   7.187 -0.0862 -0.3003  0.7993
  170SAPE  C21019232   3.756   1.693   7.247 -0.1711 -0.3338  0.9258
  170SAPE  H10R19233   3.817   1.602   7.268 -1.7387 -1.2535  1.7405
  170SAPE  H10S19234   3.665   1.661   7.191 -0.2672 -1.8015  1.8738
  170SAPE  C21119235   3.710   1.773   7.360 -0.4318 -0.4039 -0.5418
  170SAPE  H11R19236   3.677   1.872   7.326  0.5956 -0.2910 -1.2807
  170SAPE  C21219237   3.701   1.745   7.496 -0.1750 -0.2329  0.5824
  170SAPE  H12R19238   3.664   1.820   7.567  0.7018 -0.1196  0.9329
  170SAPE  C21319239   3.720   1.616   7.574 -0.3791  0.6251 -0.3908
  170SAPE  H13R19240   3.733   1.537   7.497  0.5436 -0.6303  0.9894
  170SAPE  H13S19241   3.626   1.583   7.621 -0.7819 -0.2299 -1.7625
  170SAPE  C21419242   3.842   1.606   7.673  0.4893 -0.1356 -0.5216
  170SAPE  H14R19243   3.939   1.596   7.622  1.5942  0.9553  1.2759
  170SAPE  C21519244   3.831   1.608   7.811  0.5293  0.6145 -0.3097
  170SAPE  H15R19245   3.920   1.602   7.875  1.3065  1.1338 -1.2924
  170SAPE  C21619246   3.693   1.620   7.880  0.0314  0.0043 -0.3783
  170SAPE  H16R19247   3.628   1.533   7.853  1.7663 -1.1254 -1.0835
  170SAPE  H16S19248   3.639   1.714   7.856 -1.3274 -0.8186 -0.6706
  170SAPE  C21719249   3.712   1.609   8.035 -0.2482 -0.5980  0.0486
  170SAPE  H17R19250   3.779   1.693   8.063 -1.3710  0.3290  0.0403
  170SAPE  H17S19251   3.764   1.514   8.055 -0.6718 -1.0136 -0.7648
  170SAPE  C21819252   3.580   1.623   8.113 -0.4233 -0.0318  0.0415
  170SAPE  H18R19253   3.518   1.532   8.095 -1.6582  1.1218 -1.9949
  170SAPE  H18S19254   3.522   1.702   8.060  0.6053  0.9130  0.2796
  170SAPE  C21919255   3.587   1.642   8.261 -0.3790 -0.3832 -0.6182
  170SAPE  H19R19256   3.592   1.749   8.293  0.8137 -0.7010  0.3125
  170SAPE  H19S19257   3.684   1.595   8.287 -0.0785 -0.7169 -2.2582
  170SAPE  C22019258   3.471   1.571   8.337 -0.4128 -0.0222 -0.2700
  170SAPE  H20R19259   3.370   1.605   8.306 -0.4964  0.0751  0.1123
  170SAPE  H20S19260   3.480   1.593   8.445 -0.9501  0.5021 -0.3278
  170SAPE  H20T19261   3.475   1.461   8.326 -0.1628 -0.3035  2.1909
  170SAPE   C3319262   4.295   1.991   7.095 -0.3359 -0.1487 -0.2188
  170SAPE   H3X19263   4.221   2.072   7.078  1.3833  1.7377  0.7726
  170SAPE   H3Y19264   4.394   2.037   7.117 -0.9042  1.4184 -0.8400
  170SAPE   C3419265   4.251   1.924   7.226  0.5597  0.3873 -0.7020
  170SAPE   H4X19266   4.320   1.840   7.243  0.4627  0.5764  0.7478
  170SAPE   H4Y19267   4.146   1.889   7.218  0.0343  0.9111  2.6058
  170SAPE   C3519268   4.253   2.026   7.337  0.4982 -0.5023 -0.0605
  170SAPE   H5X19269   4.156   2.079   7.334  0.3211 -0.3671  3.2801
  170SAPE   H5Y19270   4.337   2.098   7.321 -1.4648  1.8529 -0.3495
  170SAPE   C3619271   4.256   1.972   7.484  0.0060 -0.0975  0.2028
  170SAPE   H6X19272   4.280   2.046   7.563  0.1677 -1.8296  1.8363
  170SAPE   H6Y19273   4.319   1.881   7.491 -0.1261 -0.1405  0.9021
  170SAPE   C3719274   4.113   1.918   7.523 -0.1647  0.2640 -1.1757
  170SAPE   H7X19275   4.098   1.822   7.470 -2.1265  1.3153 -2.6870
  170SAPE   H7Y19276   4.029   1.985   7.494  0.2170  1.1241 -0.3769
  170SAPE   C3819277   4.103   1.880   7.681 -0.3481 -0.8215  0.1622
  170SAPE   H8X19278   4.185   1.811   7.713  0.6905 -0.0302 -0.7192
  170SAPE   H8Y19279   4.011   1.822   7.702 -0.3360 -0.6221  0.8042
  170SAPE   C3919280   4.090   2.010   7.765  0.1799  0.1428  0.0019
  170SAPE   H9X19281   4.003   2.068   7.728 -1.6020 -1.1017  1.9734
  170SAPE   H9Y19282   4.176   2.080   7.754  0.6561 -0.1880  1.4383
  170SAPE  C31019283   4.078   1.977   7.916 -0.6184 -0.5177  0.9264
  170SAPE  H10X19284   4.133   1.883   7.938 -1.1488 -0.9130  0.5749
  170SAPE  H10Y19285   3.971   1.956   7.935 -1.1215 -0.5760 -1.6475
  170SAPE  C31119286   4.130   2.093   8.001 -0.3650 -0.4946  0.4838
  170SAPE  H11X19287   4.063   2.180   7.986  0.1957 -0.2551 -0.7532
  170SAPE  H11Y19288   4.230   2.135   7.976  0.5930 -2.9519 -0.0546
  170SAPE  C31219289   4.128   2.059   8.153  0.3675  0.1264 -0.3707
  170SAPE  H12X19290   4.206   1.985   8.182 -0.4771  0.2665  2.4721
  170SAPE  H12Y19291   4.032   2.007   8.171  0.7668 -0.9509 -1.1967
  170SAPE  C31319292   4.161   2.183   8.234  0.0338 -0.3337 -0.5335
  170SAPE  H13X19293   4.100   2.269   8.200  0.4381  0.6280  1.0538
  170SAPE  H13Y19294   4.264   2.222   8.216 -0.1650  1.1213  1.1811
  170SAPE  C31419295   4.140   2.177   8.384 -0.3493  0.2875 -0.2551
  170SAPE  H14X19296   4.222   2.114   8.427 -1.2312 -0.0494  0.9918
  170SAPE  H14Y19297   4.041   2.132   8.405 -0.2280 -0.2237 -0.7894
  170SAPE  C31519298   4.135   2.315   8.444 -0.3746 -0.6310 -1.0159
  170SAPE  H15X19299   4.058   2.381   8.399  0.4958  0.7798 -0.5084
  170SAPE  H15Y19300   4.234   2.360   8.421 -0.3479 -0.8948 -1.4226
  170SAPE  C31619301   4.115   2.309   8.594 -0.2010 -0.6010 -0.7790
  170SAPE  H16X19302   4.184   2.235   8.641 -0.9892 -0.3615  0.8094
  170SAPE  H16Y19303   4.008   2.285   8.614  0.6861 -2.5500  2.2943
  170SAPE  C31719304   4.150   2.443   8.661  0.2147 -0.2197  0.0134
  170SAPE  H17X19305   4.104   2.530   8.610 -0.2183  0.1968  1.0635
  170SAPE  H17Y19306   4.258   2.470   8.665 -0.0408  0.8066  0.6646
  170SAPE  C31819307   4.098   2.437   8.805 -0.4146 -0.2818  0.0730
  170SAPE  H18X19308   4.131   2.519   8.872 -2.7306 -1.6292  3.1212
  170SAPE  H18Y19309   4.142   2.343   8.846  2.2814  0.7158 -0.3380
  170SAPE  H18Z19310   3.987   2.431   8.801 -0.4848  1.0305 -0.6549
  171SAPE     N19311   5.876   3.206   6.447  0.2912  0.0690  0.0434
  171SAPE   HN119312   5.959   3.144   6.446  0.3987  0.1844 -2.3031
  171SAPE   HN219313   5.820   3.160   6.372 -0.0215  0.2618  0.1567
  171SAPE   HN319314   5.892   3.301   6.410 -2.3149 -0.5660 -3.1819
  171SAPE   C1219315   5.822   3.202   6.584  0.3548  0.2115 -0.8696
  171SAPE  H12A19316   5.728   3.259   6.599  0.5893  0.4280 -0.1635
  171SAPE  H12B19317   5.896   3.245   6.655 -0.1261 -0.5799  0.1460
  171SAPE   C1119318   5.796   3.056   6.618 -0.1171 -0.4690  0.4955
  171SAPE  H11A19319   5.764   3.045   6.723 -3.8807  0.5487 -0.3919
  171SAPE  H11B19320   5.890   2.997   6.613  0.5628  0.5331  1.2297
  171SAPE     P19321   5.586   2.905   6.571 -0.4827  0.0694 -0.2405
  171SAPE   O1319322   5.473   2.988   6.611 -0.3353  0.0019 -0.2587
  171SAPE   O1419323   5.579   2.811   6.460 -0.6329 -0.1498 -0.0933
  171SAPE   O1219324   5.699   3.003   6.523 -0.7519 -0.2448 -0.2469
  171SAPE   O1119325   5.657   2.828   6.694  0.1267  0.5331 -0.3299
  171SAPE    C119326   5.592   2.702   6.733 -0.2382 -0.2676 -0.2633
  171SAPE    HA19327   5.532   2.647   6.657  0.2039 -1.1712  0.0296
  171SAPE    HB19328   5.674   2.645   6.782 -0.0229 -0.8667 -1.2832
  171SAPE    C219329   5.493   2.734   6.848 -0.2416  0.0428 -0.3490
  171SAPE    HS19330   5.416   2.811   6.827 -0.9895 -0.8654 -1.0203
  171SAPE   O2119331   5.575   2.764   6.961  0.0350 -0.0630 -0.7367
  171SAPE   C2119332   5.504   2.839   7.044 -0.0023  0.2778 -0.4037
  171SAPE   O2219333   5.386   2.867   7.037 -0.1633 -0.1498  0.1366
  171SAPE   C2219334   5.593   2.885   7.169 -0.0598  0.2014  0.7591
  171SAPE   H2R19335   5.672   2.807   7.181  0.0412 -0.1328 -1.5733
  171SAPE   H2S19336   5.647   2.975   7.135  1.5282 -1.5985 -1.9012
  171SAPE    C319337   5.399   2.608   6.876 -0.5042  0.0977  0.1769
  171SAPE    HX19338   5.336   2.597   6.784 -1.6068  0.0286  0.9222
  171SAPE    HY19339   5.316   2.622   6.948  0.7549 -1.4718  2.0306
  171SAPE   O3119340   5.474   2.483   6.891  0.2716  0.2494  0.3009
  171SAPE   C3119341   5.507   2.471   7.021  0.1653 -0.2110  0.2392
  171SAPE   O3219342   5.482   2.554   7.106 -0.1099  0.3598 -0.7232
  171SAPE   C3219343   5.564   2.334   7.054 -0.6525  0.9349  0.0855
  171SAPE   H2X19344   5.621   2.318   6.960  0.1217 -0.8693  0.8209
  171SAPE   H2Y19345   5.480   2.263   7.067  1.6008 -2.1391 -0.9821
  171SAPE   C2319346   5.514   2.900   7.296 -0.0028 -0.3429  0.8228
  171SAPE   H3R19347   5.411   2.935   7.276 -0.2802 -1.0079  1.0862
  171SAPE   H3S19348   5.561   2.984   7.353 -1.5209  1.5275 -0.5687
  171SAPE   C2419349   5.504   2.775   7.383  0.0063  0.0825  0.2452
  171SAPE   H4R19350   5.603   2.744   7.423 -0.0159  0.8153  0.8952
  171SAPE   H4S19351   5.466   2.683   7.333 -0.0541 -0.8896  2.0022
  171SAPE   C2519352   5.421   2.798   7.501  0.1458  0.0079 -0.1093
  171SAPE   H5R19353   5.321   2.753   7.492  0.7531 -2.3453  2.9796
  171SAPE   C2619354   5.464   2.849   7.623  1.1628 -0.3314  0.1173
  171SAPE   H6R19355   5.389   2.862   7.702  0.9048  2.2509 -0.4692
  171SAPE   C2719356   5.593   2.916   7.658 -0.0996  0.0412  0.2546
  171SAPE   H7R19357   5.569   3.024   7.643 -0.0025  0.2949  1.7636
  171SAPE   H7S19358   5.672   2.891   7.585 -2.8009 -1.4294 -2.4131
  171SAPE   C2819359   5.651   2.899   7.800 -0.2827 -0.3802  0.2255
  171SAPE   H8R19360   5.711   2.808   7.816  0.3472  0.1288  0.7958
  171SAPE   C2919361   5.627   2.975   7.905  0.1701 -0.4432 -0.0210
  171SAPE   H9R19362   5.676   2.937   7.995  1.5062  0.0302 -0.5173
  171SAPE  C21019363   5.559   3.104   7.912  0.2768 -0.4874 -0.2284
  171SAPE  H10R19364   5.450   3.094   7.928  0.1652  1.5478  0.5076
  171SAPE  H10S19365   5.572   3.153   7.813 -2.3541  0.7063 -0.0709
  171SAPE  C21119366   5.612   3.204   8.014 -0.1550  0.1955 -0.0139
  171SAPE  H11R19367   5.715   3.237   7.994 -0.2366 -0.4346 -1.6698
  171SAPE  C21219368   5.552   3.245   8.127 -0.6216  0.5371  0.2783
  171SAPE  H12R19369   5.607   3.320   8.186 -1.8790  1.5601  0.1794
  171SAPE  C21319370   5.420   3.204   8.176 -0.0049 -0.2006 -0.0016
  171SAPE  H13R19371   5.389   3.103   8.142 -1.3851  0.2540 -0.1450
  171SAPE  H13S19372   5.344   3.269   8.128 -0.1309  1.5916  2.3907
  171SAPE  C21419373   5.428   3.202   8.324  0.5859 -0.0215  0.2266
  171SAPE  H14R19374   5.448   3.294   8.381  0.6806  0.7418 -1.0050
  171SAPE  C21519375   5.423   3.095   8.398 -0.1518  0.2418 -0.0780
  171SAPE  H15R19376   5.427   3.104   8.508 -1.5953 -0.3272  0.0463
  171SAPE  C21619377   5.411   2.952   8.353 -0.4480 -1.1051 -0.2877
  171SAPE  H16R19378   5.339   2.956   8.269 -0.2223 -1.4044 -0.4970
  171SAPE  H16S19379   5.368   2.893   8.437  2.2153  0.2396  2.2072
  171SAPE  C21719380   5.545   2.892   8.289  0.5369 -0.2211 -0.7887
  171SAPE  H17R19381   5.626   2.893   8.365 -0.6327  1.5698  0.4991
  171SAPE  H17S19382   5.581   2.960   8.210  2.3232 -0.3644 -0.1332
  171SAPE  C21819383   5.525   2.747   8.235  0.1843  0.6831  0.4758
  171SAPE  H18R19384   5.457   2.755   8.148  0.2433  0.8715  0.4468
  171SAPE  H18S19385   5.476   2.682   8.310 -0.0349  0.5053  0.1796
  171SAPE  C21919386   5.660   2.672   8.219  0.7426 -0.5369  0.2424
  171SAPE  H19R19387   5.708   2.674   8.319 -2.3279 -0.0475  1.8322
  171SAPE  H19S19388   5.726   2.738   8.159 -2.4795  1.6725 -1.1855
  171SAPE  C22019389   5.645   2.530   8.165  1.2566  0.5339 -1.4876
  171SAPE  H20R19390   5.569   2.469   8.218  1.8371  1.7824  0.9603
  171SAPE  H20S19391   5.742   2.475   8.172  0.0658 -1.7126 -1.5544
  171SAPE  H20T19392   5.623   2.526   8.056  0.5282 -3.1511 -1.3372
  171SAPE   C3319393   5.654   2.316   7.179 -0.4122 -0.3340 -0.3327
  171SAPE   H3X19394   5.609   2.382   7.256 -0.4068  1.4342 -1.7949
  171SAPE   H3Y19395   5.763   2.331   7.162 -0.0626 -0.4233  1.5816
  171SAPE   C3419396   5.653   2.170   7.226  0.0510 -0.2839 -0.4866
  171SAPE   H4X19397   5.684   2.113   7.137 -1.5974  0.1295 -1.3759
  171SAPE   H4Y19398   5.547   2.139   7.239 -0.4318  1.3176 -0.3348
  171SAPE   C3519399   5.725   2.136   7.358  0.1079 -0.0219  0.3342
  171SAPE   H5X19400   5.809   2.206   7.376 -0.8914  1.4326 -0.4205
  171SAPE   H5Y19401   5.770   2.035   7.356 -1.9590 -1.1219  3.1936
  171SAPE   C3619402   5.638   2.145   7.483  1.1158  0.1328 -0.1103
  171SAPE   H6X19403   5.563   2.064   7.491  1.8407 -0.7330 -1.5603
  171SAPE   H6Y19404   5.581   2.240   7.492 -1.6232 -1.1387 -2.4014
  171SAPE   C3719405   5.724   2.139   7.611  0.4958  0.2162 -0.1324
  171SAPE   H7X19406   5.803   2.217   7.607 -0.3708  1.2338  1.5582
  171SAPE   H7Y19407   5.771   2.038   7.609 -0.2306 -0.3807  3.7455
  171SAPE   C3819408   5.645   2.160   7.743 -0.3148  0.8198 -0.1662
  171SAPE   H8X19409   5.561   2.088   7.742 -0.5084  1.0462 -0.5366
  171SAPE   H8Y19410   5.596   2.260   7.734 -0.2704  0.9267  0.6774
  171SAPE   C3919411   5.743   2.135   7.858  0.9063 -0.2699 -0.3758
  171SAPE   H9X19412   5.822   2.212   7.866 -0.1108  0.6800  1.0476
  171SAPE   H9Y19413   5.782   2.031   7.850  0.0946 -0.5604 -0.5905
  171SAPE  C31019414   5.683   2.112   7.994 -0.3100 -0.6504 -0.1587
  171SAPE  H10X19415   5.608   2.030   7.991 -0.6714 -0.3860  1.0502
  171SAPE  H10Y19416   5.621   2.201   8.019 -2.2631 -2.1942  0.7991
  171SAPE  C31119417   5.787   2.081   8.101  0.0687  0.1888  0.6574
  171SAPE  H11X19418   5.825   2.179   8.137  0.5066 -0.5410  2.3151
  171SAPE  H11Y19419   5.870   2.018   8.062 -0.7240  1.3550 -3.3008
  171SAPE  C31219420   5.730   2.018   8.225 -0.0165 -0.3178 -0.2960
  171SAPE  H12X19421   5.816   2.004   8.293 -0.1611 -0.4842 -0.1442
  171SAPE  H12Y19422   5.698   1.914   8.201 -1.3477  0.5023 -2.3649
  171SAPE  C31319423   5.613   2.084   8.290  0.2492 -0.4105  0.2587
  171SAPE  H13X19424   5.520   2.066   8.231 -0.2328 -0.0331  0.8829
  171SAPE  H13Y19425   5.628   2.194   8.289  0.9173 -0.4924 -0.9027
  171SAPE  C31419426   5.575   2.033   8.429 -0.7051  0.1710 -1.0445
  171SAPE  H14X19427   5.602   1.926   8.421 -0.5686  0.2747 -2.0999
  171SAPE  H14Y19428   5.464   2.046   8.429 -0.5724  1.4548 -1.6804
  171SAPE  C31519429   5.663   2.100   8.540  0.4675 -0.1786  0.4847
  171SAPE  H15X19430   5.633   2.207   8.547  1.0464  0.0311 -0.0988
  171SAPE  H15Y19431   5.769   2.094   8.508  1.0356 -1.6729  2.4672
  171SAPE  C31619432   5.622   2.051   8.681  0.8477 -0.1350 -0.3222
  171SAPE  H16X19433   5.523   2.098   8.699 -1.4435 -3.5623 -2.8410
  171SAPE  H16Y19434   5.696   2.097   8.750 -0.3675 -0.7591  1.4864
  171SAPE  C31719435   5.627   1.898   8.703 -0.6077  0.1838  0.1486
  171SAPE  H17X19436   5.722   1.855   8.664 -1.5364 -2.6432  0.8218
  171SAPE  H17Y19437   5.549   1.857   8.636  0.0809  1.6701 -1.6631
  171SAPE  C31819438   5.595   1.852   8.844 -0.9229 -0.1505 -0.2685
  171SAPE  H18X19439   5.586   1.741   8.839  0.6045 -0.2581 -1.5028
  171SAPE  H18Y19440   5.500   1.900   8.876 -0.4968  1.9346 -1.9156
  171SAPE  H18Z19441   5.665   1.879   8.927 -0.0777  1.2425 -1.3992
  172SAPE     N19442   4.756   1.480   6.705 -0.9804 -0.3552 -0.3736
  172SAPE   HN119443   4.817   1.512   6.627 -1.0114 -0.7936 -0.5807
  172SAPE   HN219444   4.658   1.459   6.675 -1.7438 -0.5496  2.0881
  172SAPE   HN319445   4.754   1.556   6.776 -1.8045 -0.3862 -0.3534
  172SAPE   C1219446   4.814   1.351   6.750 -0.5607  0.9352 -0.4277
  172SAPE  H12A19447   4.758   1.303   6.833  1.5130  0.1971  0.6248
  172SAPE  H12B19448   4.912   1.365   6.801  0.6043 -0.8229 -2.0627
  172SAPE   C1119449   4.835   1.248   6.634 -0.1064  0.0908 -0.7623
  172SAPE  H11A19450   4.735   1.231   6.590 -0.6602  4.1890 -1.4487
  172SAPE  H11B19451   4.865   1.149   6.675  0.6326  0.3464 -0.6742
  172SAPE     P19452   5.064   1.252   6.502  0.1201  0.6015  0.3171
  172SAPE   O1319453   5.064   1.106   6.506 -0.3572  0.5947 -0.0312
  172SAPE   O1419454   5.104   1.309   6.369  0.0227 -0.1860  0.2393
  172SAPE   O1219455   4.921   1.302   6.537  0.6505  0.3380  0.6883
  172SAPE   O1119456   5.149   1.305   6.617  0.1043 -0.1196 -0.2787
  172SAPE    C119457   5.153   1.434   6.666  0.7073 -0.1193 -0.0367
  172SAPE    HA19458   5.141   1.508   6.585  1.8967  0.0359 -0.0810
  172SAPE    HB19459   5.078   1.453   6.746  1.9785 -0.4058  1.2731
  172SAPE    C219460   5.292   1.454   6.739 -0.3479 -0.1397  0.0523
  172SAPE    HS19461   5.362   1.456   6.653  1.5035  0.2141  1.5023
  172SAPE   O2119462   5.312   1.344   6.826 -0.2140  0.0100  0.0640
  172SAPE   C2119463   5.446   1.327   6.861  0.1269  0.0161  0.5502
  172SAPE   O2219464   5.537   1.398   6.818 -0.0297  0.0737  0.1100
  172SAPE   C2219465   5.446   1.242   6.985  0.6501  0.2763 -0.4266
  172SAPE   H2R19466   5.341   1.242   7.020  1.1450  1.3632  1.2164
  172SAPE   H2S19467   5.467   1.137   6.956  1.1451  0.0934  0.5349
  172SAPE    C319468   5.302   1.593   6.803 -0.4404 -0.1738 -0.1839
  172SAPE    HX19469   5.281   1.669   6.724 -0.0694  1.0245  0.8402
  172SAPE    HY19470   5.405   1.601   6.844 -0.0538 -0.8252 -0.9778
  172SAPE   O3119471   5.202   1.605   6.907  0.1843 -1.1432  0.5368
  172SAPE   C3119472   5.247   1.565   7.027 -0.7320  0.2694  0.1288
  172SAPE   O3219473   5.363   1.545   7.055 -0.0204  0.1299 -0.2028
  172SAPE   C3219474   5.117   1.556   7.113 -0.6327 -0.9919  0.3521
  172SAPE   H2X19475   5.038   1.493   7.066 -2.4659  1.3121  0.1545
  172SAPE   H2Y19476   5.091   1.664   7.125  0.0707 -0.8662  0.7865
  172SAPE   C2319477   5.557   1.279   7.087  0.8135 -0.5051  0.1967
  172SAPE   H3R19478   5.559   1.389   7.103 -1.0131 -0.0964 -1.8917
  172SAPE   H3S19479   5.656   1.258   7.044  1.3141  0.9852  0.5490
  172SAPE   C2419480   5.529   1.216   7.220 -0.7633 -1.0032 -0.1879
  172SAPE   H4R19481   5.621   1.229   7.280 -1.2836  0.2891  0.3577
  172SAPE   H4S19482   5.522   1.105   7.209  3.0087 -1.2071 -2.3067
  172SAPE   C2519483   5.400   1.262   7.287 -0.2047  0.2200  0.7257
  172SAPE   H5R19484   5.308   1.256   7.227 -0.1801  0.5590  0.6535
  172SAPE   C2619485   5.389   1.298   7.417 -0.1826  0.2130  0.1425
  172SAPE   H6R19486   5.287   1.328   7.446 -1.7987 -2.5981 -2.1841
  172SAPE   C2719487   5.495   1.324   7.526  0.5269 -0.3635 -0.0263
  172SAPE   H7R19488   5.458   1.405   7.592 -0.3573 -0.5301 -0.2989
  172SAPE   H7S19489   5.581   1.377   7.479 -0.8630  2.1897  0.1195
  172SAPE   C2819490   5.533   1.203   7.604  0.0304  0.7179 -0.3563
  172SAPE   H8R19491   5.544   1.111   7.545  1.0155  1.2261 -0.9917
  172SAPE   C2919492   5.564   1.187   7.736 -0.7995 -0.6331  0.2951
  172SAPE   H9R19493   5.588   1.090   7.783  0.5521  0.6294  2.4209
  172SAPE  C21019494   5.567   1.307   7.829  0.5233 -0.6631 -0.3344
  172SAPE  H10R19495   5.473   1.302   7.888 -0.1286  1.1014 -1.1300
  172SAPE  H10S19496   5.570   1.406   7.778  1.5305  0.2225  1.3471
  172SAPE  C21119497   5.699   1.298   7.911  0.5496  0.0872 -0.2076
  172SAPE  H11R19498   5.795   1.307   7.857  0.1962 -1.2409 -1.1013
  172SAPE  C21219499   5.705   1.263   8.042 -0.8288  0.0239  0.5784
  172SAPE  H12R19500   5.803   1.267   8.092 -0.5089  1.2558 -0.0932
  172SAPE  C21319501   5.592   1.246   8.140  0.3644 -0.1249  0.2104
  172SAPE  H13R19502   5.507   1.308   8.105  1.7035  2.1506  0.8200
  172SAPE  H13S19503   5.621   1.284   8.240  0.0359  0.7027 -0.0013
  172SAPE  C21419504   5.552   1.104   8.151 -0.4689  0.2420 -0.0473
  172SAPE  H14R19505   5.574   1.032   8.070  0.1178  0.4492 -0.0759
  172SAPE  C21519506   5.484   1.052   8.254 -0.4335  0.5017 -0.5634
  172SAPE  H15R19507   5.471   0.943   8.258 -0.4386  0.5265  0.2599
  172SAPE  C21619508   5.434   1.133   8.374 -0.2294 -0.4286  0.4012
  172SAPE  H16R19509   5.340   1.083   8.405 -0.3879 -0.6285 -0.3667
  172SAPE  H16S19510   5.400   1.234   8.346 -2.1808 -0.9788  0.6393
  172SAPE  C21719511   5.545   1.134   8.482 -0.2946  0.7239 -0.3588
  172SAPE  H17R19512   5.631   1.186   8.433 -0.2468 -0.0502 -1.1212
  172SAPE  H17S19513   5.577   1.029   8.498 -2.6172 -0.2167 -1.3540
  172SAPE  C21819514   5.496   1.205   8.611  0.0449 -0.5134  0.6996
  172SAPE  H18R19515   5.427   1.127   8.649  0.4923 -1.7603 -0.9275
  172SAPE  H18S19516   5.436   1.295   8.584  0.4287 -0.4665 -0.0119
  172SAPE  C21919517   5.593   1.223   8.733  0.1824  0.3871 -0.1726
  172SAPE  H19R19518   5.539   1.282   8.810  2.2759  1.3590  0.6086
  172SAPE  H19S19519   5.681   1.286   8.710 -0.1995  1.2115  0.5596
  172SAPE  C22019520   5.657   1.097   8.784 -0.0608 -0.6390  0.5916
  172SAPE  H20R19521   5.586   1.013   8.799  0.7922 -1.5849 -0.4770
  172SAPE  H20S19522   5.713   1.124   8.876 -1.4989  1.5941  0.8879
  172SAPE  H20T19523   5.739   1.074   8.712  0.3797  1.4060  0.3660
  172SAPE   C3319524   5.146   1.516   7.260  0.4542 -0.2975  0.6039
  172SAPE   H3X19525   5.234   1.562   7.310 -0.5533  1.1863  1.0681
  172SAPE   H3Y19526   5.155   1.406   7.274 -2.4072 -0.5469  1.0035
  172SAPE   C3419527   5.029   1.553   7.357  0.5707  0.1444  0.3670
  172SAPE   H4X19528   4.933   1.529   7.305  0.6951 -0.9075  0.6177
  172SAPE   H4Y19529   5.046   1.663   7.366 -0.0978  0.3752 -0.8605
  172SAPE   C3519530   5.049   1.481   7.488 -0.1560 -0.0655  0.2642
  172SAPE   H5X19531   5.153   1.498   7.522 -0.0736 -0.4548  0.2201
  172SAPE   H5Y19532   5.020   1.374   7.499  0.1068  0.1184  4.0224
  172SAPE   C3619533   4.964   1.554   7.597  0.4019  0.1935 -0.4129
  172SAPE   H6X19534   4.859   1.520   7.600  1.0071 -1.6859  0.8023
  172SAPE   H6Y19535   4.952   1.664   7.583 -4.1631  0.1675  1.4881
  172SAPE   C3719536   5.017   1.529   7.744 -1.1331 -0.1854  0.9309
  172SAPE   H7X19537   5.113   1.584   7.746 -0.7956 -0.3819 -2.9141
  172SAPE   H7Y19538   5.028   1.418   7.751 -0.8389 -0.1219  1.5022
  172SAPE   C3819539   4.918   1.587   7.852  0.0213  0.1537  0.0110
  172SAPE   H8X19540   4.826   1.525   7.856  0.5929 -0.6978  0.2255
  172SAPE   H8Y19541   4.890   1.694   7.834 -0.1263  0.2836  0.9530
  172SAPE   C3919542   4.980   1.577   7.991 -0.2917 -0.5236  0.1708
  172SAPE   H9X19543   5.079   1.627   7.982 -1.1103  0.8978 -1.3994
  172SAPE   H9Y19544   5.006   1.470   8.011  0.3574 -0.4625 -0.3204
  172SAPE  C31019545   4.897   1.620   8.116 -1.1477 -0.5529 -0.2473
  172SAPE  H10X19546   4.834   1.530   8.130  1.0408 -1.7018  3.5471
  172SAPE  H10Y19547   4.848   1.718   8.099 -0.6844 -0.5977 -2.1093
  172SAPE  C31119548   4.993   1.630   8.236 -0.1861 -0.1292 -0.6268
  172SAPE  H11X19549   5.050   1.725   8.237  0.8193 -0.7216 -0.1104
  172SAPE  H11Y19550   5.066   1.547   8.237 -2.5480 -2.5072 -3.4489
  172SAPE  C31219551   4.917   1.623   8.376 -0.1954  0.0954  0.6845
  172SAPE  H12X19552   4.980   1.648   8.464  0.9470  0.0909 -0.1119
  172SAPE  H12Y19553   4.896   1.516   8.400  0.2361 -0.3628 -0.8574
  172SAPE  C31319554   4.798   1.714   8.377 -0.1891  0.6367 -0.3614
  172SAPE  H13X19555   4.718   1.694   8.302 -1.5339  0.5793  1.0195
  172SAPE  H13Y19556   4.825   1.820   8.363 -0.1309  1.0631  2.3796
  172SAPE  C31419557   4.719   1.698   8.509 -0.1981 -0.1932  0.0256
  172SAPE  H14X19558   4.775   1.739   8.595 -1.9085 -0.6895  1.4441
  172SAPE  H14Y19559   4.706   1.589   8.524 -0.3231 -0.1731  0.0694
  172SAPE  C31519560   4.581   1.779   8.506 -0.0583 -0.0983  0.6827
  172SAPE  H15X19561   4.526   1.749   8.414  0.0106  0.2475  0.5263
  172SAPE  H15Y19562   4.613   1.885   8.497 -0.8261  0.4319  3.2778
  172SAPE  C31619563   4.503   1.775   8.638  0.4327 -0.4515  0.1464
  172SAPE  H16X19564   4.549   1.810   8.733 -1.0592 -1.3004  1.2349
  172SAPE  H16Y19565   4.478   1.669   8.663  0.0704 -1.4124 -3.6620
  172SAPE  C31719566   4.368   1.847   8.614  0.4235  0.4643 -0.0039
  172SAPE  H17X19567   4.314   1.801   8.528  1.3860  0.1491 -0.4509
  172SAPE  H17Y19568   4.393   1.954   8.600  0.7420  0.3024 -0.7473
  172SAPE  C31819569   4.273   1.844   8.739  0.2534  0.2383  0.1091
  172SAPE  H18X19570   4.236   1.746   8.775 -0.6483  1.1459  1.8095
  172SAPE  H18Y19571   4.188   1.914   8.726 -0.9021 -1.0934  0.2947
  172SAPE  H18Z19572   4.329   1.888   8.825 -0.9422  0.0969  0.9919
  173SOPE     N19573   0.262   0.324  11.124 -0.0898 -0.7288  0.5224
  173SOPE   HN119574   0.268   0.365  11.028 -1.4782  2.0307  1.5140
  173SOPE   HN219575   0.160   0.310  11.131 -0.3335  0.0115 -1.1221
  173SOPE   HN319576   0.276   0.408  11.184 -0.9156  0.2669 -0.6070
  173SOPE   C1219577   0.343   0.202  11.150 -0.6470 -0.2328  0.5720
  173SOPE  H12A19578   0.321   0.180  11.256 -0.1995  1.3503  1.0192
  173SOPE  H12B19579   0.449   0.230  11.130 -0.8386 -0.5760 -1.0687
  173SOPE   C1119580   0.293   0.090  11.057  0.0061 -0.0767  0.4086
  173SOPE  H11A19581   0.364   0.004  11.052 -0.9090 -0.9120  1.3628
  173SOPE  H11B19582   0.281   0.112  10.948 -2.2171 -1.3186  0.3434
  173SOPE     P19583   0.031   0.072  11.047  0.4157  0.3760  0.3126
  173SOPE   O1319584   0.005   0.217  11.068 -0.5641 -0.7237  0.2470
  173SOPE   O1419585  -0.064  -0.025  11.110 -0.0363  0.3741  0.2534
  173SOPE   O1219586   0.167   0.049  11.117  0.6018  0.0579 -0.2024
  173SOPE   O1119587   0.050   0.049  10.893 -0.1524 -0.0637 -0.1929
  173SOPE    C119588   0.050  -0.095  10.860 -0.4343 -0.1201  0.4144
  173SOPE    HA19589  -0.053  -0.136  10.860 -0.7631  0.6786  0.3580
  173SOPE    HB19590   0.125  -0.147  10.923 -2.1897  0.8218  3.4679
  173SOPE    C219591   0.098  -0.112  10.712 -0.6057  1.1662 -0.7001
  173SOPE    HS19592   0.205  -0.085  10.702  0.6244 -2.4169  1.0460
  173SOPE   O2119593   0.013  -0.043  10.620 -0.3064 -0.5302  0.7327
  173SOPE   C2119594   0.060  -0.026  10.497 -0.3629 -0.6366 -0.4498
  173SOPE   O2219595   0.179  -0.024  10.470  0.3351 -0.7845 -0.1037
  173SOPE   C2219596  -0.048  -0.024  10.391  0.3145 -0.0739  0.0282
  173SOPE   H2R19597  -0.091   0.076  10.412  1.1777  0.6066 -1.2925
  173SOPE   H2S19598  -0.116  -0.111  10.403 -0.7932  0.3791 -2.2918
  173SOPE    C319599   0.097  -0.266  10.676 -0.3394 -0.2014  0.6110
  173SOPE    HX19600  -0.009  -0.294  10.692 -0.6738  0.2050 -0.8081
  173SOPE    HY19601   0.147  -0.317  10.761  1.7139  1.0581  0.2188
  173SOPE   O3119602   0.142  -0.311  10.543  0.7114 -0.0795  0.6004
  173SOPE   C3119603   0.273  -0.320  10.533 -0.0043  0.1866 -0.9852
  173SOPE   O3219604   0.357  -0.297  10.620 -0.3284  0.3891  0.2204
  173SOPE   C3219605   0.314  -0.356  10.392 -0.3484 -0.0541 -0.0944
  173SOPE   H2X19606   0.254  -0.300  10.317  0.7219 -2.3025 -2.8254
  173SOPE   H2Y19607   0.291  -0.464  10.378  1.7700 -0.5792  0.2344
  173SOPE   C2319608   0.006  -0.013  10.260  0.2917 -0.3994  0.0102
  173SOPE   H3R19609   0.081  -0.091  10.234  0.5237  0.0269 -0.6340
  173SOPE   H3S19610   0.058   0.085  10.253  2.6668 -1.5582  0.1936
  173SOPE   C2419611  -0.096  -0.011  10.140 -0.5364 -1.0578 -0.4006
  173SOPE   H4R19612  -0.147  -0.109  10.141 -0.0057 -1.3534  1.5194
  173SOPE   H4S19613  -0.183   0.056  10.156 -0.7128 -1.1013 -1.1328
  173SOPE   C2519614  -0.030   0.014  10.007 -1.0553 -0.6693 -0.1277
  173SOPE   H5R19615   0.004   0.120  10.012 -0.3203 -0.9047 -0.0491
  173SOPE   H5S19616   0.059  -0.049   9.987  0.7409  1.9980 -1.1669
  173SOPE   C2619617  -0.130   0.013   9.893  0.7235 -0.4537  0.0499
  173SOPE   H6R19618  -0.190  -0.080   9.903  1.0320 -0.4796  2.2439
  173SOPE   H6S19619  -0.203   0.094   9.914  1.2753 -0.4754  2.3751
  173SOPE   C2719620  -0.069   0.037   9.754 -0.1570 -0.1368  0.0136
  173SOPE   H7R19621  -0.026   0.137   9.730 -0.7369  0.1616  0.1938
  173SOPE   H7S19622   0.019  -0.030   9.745  1.5515  1.9344  0.5173
  173SOPE   C2819623  -0.177   0.009   9.645 -0.0135  0.1905  0.1829
  173SOPE   H8R19624  -0.255  -0.060   9.684  0.8786 -0.9305  0.0388
  173SOPE   H8S19625  -0.231   0.103   9.619 -2.1081 -0.1178  2.8944
  173SOPE   C2919626  -0.134  -0.064   9.520 -0.1932 -0.0453  0.1252
  173SOPE   H9119627  -0.088  -0.161   9.544  0.1391  0.3598  1.1474
  173SOPE  C21019628  -0.134  -0.016   9.395 -0.1283  0.4812  0.1180
  173SOPE  H10119629  -0.106  -0.086   9.315 -0.8064 -0.1353  0.4133
  173SOPE  C21119630  -0.192   0.116   9.350 -0.3072 -0.4140  0.2366
  173SOPE  H11R19631  -0.277   0.147   9.415 -0.1813  0.1653  0.1321
  173SOPE  H11S19632  -0.234   0.112   9.248  1.2063 -1.1657 -0.3864
  173SOPE  C21219633  -0.083   0.224   9.362 -0.1226 -0.3265  0.3265
  173SOPE  H12R19634  -0.048   0.227   9.468  0.7222  1.3849  0.0420
  173SOPE  H12S19635  -0.132   0.320   9.334  0.4616 -0.5532 -1.6715
  173SOPE  C21319636   0.028   0.211   9.254  0.0633  0.0858  0.7927
  173SOPE  H13R19637   0.091   0.127   9.289  0.9146  0.0578 -0.7210
  173SOPE  H13S19638   0.100   0.294   9.269  0.0003 -0.0438  1.8628
  173SOPE  C21419639  -0.004   0.195   9.108  0.3933 -0.4347  0.0686
  173SOPE  H14R19640  -0.061   0.100   9.101 -3.6975  1.7971  0.3648
  173SOPE  H14S19641   0.084   0.198   9.039 -0.5376 -1.4671 -1.2191
  173SOPE  C21519642  -0.101   0.306   9.057  0.4526  0.0847 -0.0441
  173SOPE  H15R19643  -0.050   0.404   9.069 -0.9090  0.5131  3.3944
  173SOPE  H15S19644  -0.189   0.315   9.124 -0.6104  0.2245 -1.4152
  173SOPE  C21619645  -0.150   0.293   8.913 -0.5577 -0.0924 -0.0184
  173SOPE  H16R19646  -0.251   0.248   8.911 -0.3694 -0.4986 -0.9031
  173SOPE  H16S19647  -0.086   0.231   8.847 -1.3458  0.7086 -1.5821
  173SOPE  C21719648  -0.148   0.434   8.848  0.4948  1.2099  0.1159
  173SOPE  H17R19649  -0.044   0.470   8.844  1.4156 -1.3041 -0.4138
  173SOPE  H17S19650  -0.207   0.505   8.910 -1.0138 -0.4885  0.7522
  173SOPE  C21819651  -0.208   0.450   8.706 -0.6051 -0.0402 -0.6901
  173SOPE  H18R19652  -0.314   0.420   8.699 -0.8116  0.8267 -1.6080
  173SOPE  H18S19653  -0.146   0.392   8.634 -1.3371 -0.2461 -1.1577
  173SOPE  H18T19654  -0.210   0.552   8.660  4.0690  0.6122  0.0586
  173SOPE   C3319655   0.459  -0.304  10.363  0.1603 -0.1241  0.0320
  173SOPE   H3X19656   0.524  -0.340  10.446 -2.5154 -2.7347  1.1895
  173SOPE   H3Y19657   0.446  -0.194  10.369 -2.5794 -0.3463 -0.3790
  173SOPE   C3419658   0.509  -0.348  10.221 -0.6683  0.9515 -0.6921
  173SOPE   H4X19659   0.486  -0.455  10.199  0.7581  0.8046 -1.5966
  173SOPE   H4Y19660   0.620  -0.345  10.233 -0.6454 -1.0625  0.0641
  173SOPE   C3519661   0.452  -0.259  10.118 -1.0143 -0.0823  0.4307
  173SOPE   H5X19662   0.488  -0.155  10.130 -0.6649 -0.1069 -0.3513
  173SOPE   H5Y19663   0.342  -0.249  10.126 -1.1840  2.1348 -2.7577
  173SOPE   C3619664   0.476  -0.298   9.969 -0.0403 -0.2561 -0.1821
  173SOPE   H6X19665   0.455  -0.406   9.953 -1.1321  0.0847 -1.2694
  173SOPE   H6Y19666   0.581  -0.273   9.945 -0.6272  3.1801  0.1909
  173SOPE   C3719667   0.376  -0.227   9.875 -0.3278 -0.1592 -0.2155
  173SOPE   H7X19668   0.376  -0.121   9.907 -0.6603  0.7754 -3.0670
  173SOPE   H7Y19669   0.271  -0.264   9.877 -0.2585 -0.3654 -0.3721
  173SOPE   C3819670   0.432  -0.218   9.734  0.4663  0.7241 -0.3329
  173SOPE   H8X19671   0.494  -0.309   9.722  0.4669  0.7810 -0.7584
  173SOPE   H8Y19672   0.503  -0.133   9.733  1.6430 -0.2297 -0.5348
  173SOPE   C3919673   0.332  -0.202   9.621  0.3850 -0.1086 -1.3526
  173SOPE   H9X19674   0.270  -0.111   9.633  0.7300  0.4132 -3.2095
  173SOPE   H9Y19675   0.264  -0.291   9.621  1.2506 -0.8236  0.7990
  173SOPE  C31019676   0.398  -0.173   9.491 -0.2030 -0.0879 -0.4088
  173SOPE  H10X19677   0.435  -0.270   9.452  0.8871  0.5949 -1.1052
  173SOPE  H10Y19678   0.485  -0.111   9.520 -0.6470  0.0631  0.6614
  173SOPE  C31119679   0.324  -0.093   9.384 -0.3856 -0.8693  0.0673
  173SOPE  H11X19680   0.315   0.008   9.431 -2.5956 -0.2032 -1.6285
  173SOPE  H11Y19681   0.221  -0.131   9.370 -1.0343  0.8732 -0.1339
  173SOPE  C31219682   0.394  -0.097   9.255  0.2589  0.4129 -0.0083
  173SOPE  H12X19683   0.405  -0.203   9.224 -0.3179  0.4909 -0.4902
  173SOPE  H12Y19684   0.491  -0.044   9.253  0.9029 -0.7327 -1.5234
  173SOPE  C31319685   0.313  -0.023   9.146 -0.1493 -0.4589  0.1685
  173SOPE  H13X19686   0.316   0.084   9.177 -0.2641 -0.0648 -1.0967
  173SOPE  H13Y19687   0.206  -0.052   9.150 -0.2688  0.0348  0.7131
  173SOPE  C31419688   0.373  -0.051   9.004 -0.3499  0.4840 -1.1419
  173SOPE  H14X19689   0.381  -0.162   8.996 -1.1000  0.3426 -0.1545
  173SOPE  H14Y19690   0.476  -0.007   9.005 -1.0004  2.1665  1.4068
  173SOPE  C31519691   0.287   0.011   8.889  0.2059  0.3619  0.1310
  173SOPE  H15X19692   0.286   0.121   8.904 -0.7240  0.2113  1.3700
  173SOPE  H15Y19693   0.185  -0.031   8.899 -0.4534  1.4095 -1.7621
  173SOPE  C31619694   0.337  -0.033   8.750 -0.8146  0.4160 -0.0154
  173SOPE  H16X19695   0.301  -0.131   8.714  1.9820 -0.4175 -0.7877
  173SOPE  H16Y19696   0.445  -0.056   8.766 -0.8120 -0.6912 -1.5092
  173SOPE  C31719697   0.320   0.070   8.641  0.0938  0.7196  0.4386
  173SOPE  H17X19698   0.376   0.039   8.549  0.7218 -0.4800  1.1945
  173SOPE  H17Y19699   0.372   0.162   8.675  0.7871 -0.0316  1.4544
  173SOPE  C31819700   0.175   0.086   8.606  0.2909  0.8257 -0.9037
  173SOPE  H18X19701   0.111   0.120   8.690  1.1577  0.8679 -0.2517
  173SOPE  H18Y19702   0.129   0.001   8.552  2.6265 -0.9475 -0.2630
  173SOPE  H18Z19703   0.165   0.177   8.543  0.2019  1.5756  0.1603
  174SOPE     N19704   6.402   6.662  11.054  0.0698 -0.2819  0.8213
  174SOPE   HN119705   6.310   6.617  11.075  0.1716 -0.5430  0.7150
  174SOPE   HN219706   6.476   6.589  11.051 -1.3571 -1.8067  0.8455
  174SOPE   HN319707   6.421   6.743  11.115  3.8076 -1.6426  1.6950
  174SOPE   C1219708   6.391   6.711  10.912 -0.3739  0.9245 -0.0499
  174SOPE  H12A19709   6.477   6.781  10.902 -0.1952  1.4400  3.6796
  174SOPE  H12B19710   6.295   6.766  10.893 -1.0863 -0.0525  0.6302
  174SOPE   C1119711   6.397   6.593  10.806  0.1131  0.7515  0.4752
  174SOPE  H11A19712   6.429   6.630  10.706  1.0707 -0.0899  0.4443
  174SOPE  H11B19713   6.301   6.546  10.775  0.5993  1.7086 -2.9376
  174SOPE     P19714   6.468   6.346  10.859 -0.4970  0.0519 -0.1281
  174SOPE   O1319715   6.378   6.323  10.978  0.0972 -0.0608  0.5764
  174SOPE   O1419716   6.592   6.268  10.856 -0.5233  0.0745 -0.0080
  174SOPE   O1219717   6.500   6.500  10.840 -0.4281  0.2145 -0.1608
  174SOPE   O1119718   6.392   6.285  10.727  0.1401 -0.3584 -0.2342
  174SOPE    C119719   6.374   6.142  10.699  0.5687 -0.2706  0.3078
  174SOPE    HA19720   6.273   6.121  10.657  1.4814  0.2998 -2.3255
  174SOPE    HB19721   6.383   6.091  10.798  1.2712  1.7365  1.3293
  174SOPE    C219722   6.486   6.089  10.610  0.1472  0.4405  0.2656
  174SOPE    HS19723   6.587   6.115  10.649  0.7584 -3.1166  1.3683
  174SOPE   O2119724   6.452   6.122  10.472  0.2733 -0.1938 -0.5380
  174SOPE   C2119725   6.543   6.201  10.409  0.0946 -0.1316 -0.2287
  174SOPE   O2219726   6.652   6.240  10.455  0.2099 -0.5432 -0.3209
  174SOPE   C2219727   6.500   6.221  10.264  0.2327  0.1512  0.1581
  174SOPE   H2R19728   6.392   6.243  10.276 -0.0414  1.1306 -3.1775
  174SOPE   H2S19729   6.507   6.125  10.208 -1.6311 -0.8874  1.6051
  174SOPE    C319730   6.484   5.933  10.615  0.1005  0.0885 -0.0579
  174SOPE    HX19731   6.380   5.895  10.609  0.9367 -2.3221 -0.3496
  174SOPE    HY19732   6.526   5.888  10.708 -2.2479 -0.0661  0.9922
  174SOPE   O3119733   6.558   5.881  10.499  0.2453  0.2749 -0.1775
  174SOPE   C3119734   6.499   5.826  10.392 -0.2826 -0.2876 -0.6549
  174SOPE   O3219735   6.381   5.815  10.381 -0.2951 -0.4678  0.7335
  174SOPE   C3219736   6.604   5.791  10.289 -0.6014  0.3829 -0.6677
  174SOPE   H2X19737   6.653   5.699  10.329 -1.9825  0.7919  2.2321
  174SOPE   H2Y19738   6.670   5.881  10.294  0.7196 -0.6085  1.1219
  174SOPE   C2319739   6.580   6.338  10.194  0.3342  0.4496  0.5157
  174SOPE   H3R19740   6.596   6.415  10.273  0.1392  1.0915 -0.0541
  174SOPE   H3S19741   6.502   6.380  10.127 -1.6972 -1.3653  1.6028
  174SOPE   C2419742   6.717   6.304  10.123  0.0507 -0.1699 -0.0403
  174SOPE   H4R19743   6.800   6.307  10.197  0.2825 -1.0283 -0.2568
  174SOPE   H4S19744   6.706   6.198  10.092 -1.4745 -0.4791  1.4285
  174SOPE   C2519745   6.739   6.405  10.010  0.7910  0.4206 -0.7296
  174SOPE   H5R19746   6.743   6.507  10.054 -2.8094  0.2226  0.3539
  174SOPE   H5S19747   6.835   6.372   9.965 -0.0542 -2.2495 -0.7749
  174SOPE   C2619748   6.643   6.404   9.894  0.0125 -0.6556  0.9902
  174SOPE   H6R19749   6.537   6.428   9.919 -0.6311 -0.2328 -1.8098
  174SOPE   H6S19750   6.682   6.474   9.818 -1.8471 -0.0455  0.5293
  174SOPE   C2719751   6.639   6.266   9.823  0.3403 -0.6110 -0.5723
  174SOPE   H7R19752   6.739   6.261   9.775  1.1462 -0.0774  0.9891
  174SOPE   H7S19753   6.617   6.187   9.899 -1.4989 -1.8393 -2.2566
  174SOPE   C2819754   6.515   6.246   9.734  0.1095 -0.9649  0.5724
  174SOPE   H8R19755   6.517   6.148   9.681  1.0380  0.2664 -1.8399
  174SOPE   H8S19756   6.428   6.234   9.802  0.0323  0.1227  0.6773
  174SOPE   C2919757   6.480   6.359   9.633 -0.1252  0.2601  0.2361
  174SOPE   H9119758   6.430   6.449   9.670 -1.1820 -0.9182  1.8162
  174SOPE  C21019759   6.509   6.351   9.504 -0.1566 -0.2535  0.1265
  174SOPE  H10119760   6.487   6.440   9.443  0.3460 -0.6005 -0.5641
  174SOPE  C21119761   6.569   6.245   9.422 -0.9774 -0.1215 -0.4105
  174SOPE  H11R19762   6.487   6.195   9.367 -0.1342  1.2045 -3.0255
  174SOPE  H11S19763   6.629   6.167   9.474 -1.1176 -0.5837 -0.9383
  174SOPE  C21219764   6.666   6.298   9.311  0.3657 -0.4739 -0.5200
  174SOPE  H12R19765   6.637   6.401   9.280 -1.7723 -0.6825  0.5860
  174SOPE  H12S19766   6.661   6.231   9.223 -0.8988 -0.6928 -0.3023
  174SOPE  C21319767   6.809   6.317   9.365  0.0044  0.0294  0.2410
  174SOPE  H13R19768   6.852   6.219   9.395  1.6474  0.7752  0.4490
  174SOPE  H13S19769   6.804   6.373   9.461 -2.0917  0.9001 -0.3351
  174SOPE  C21419770   6.906   6.386   9.273 -0.3421 -0.3030  0.6427
  174SOPE  H14R19771   6.998   6.412   9.330  0.5121 -1.2297 -0.2609
  174SOPE  H14S19772   6.860   6.480   9.236 -1.9315 -0.5938  1.7801
  174SOPE  C21519773   6.957   6.293   9.155 -0.9103  0.0283 -0.2471
  174SOPE  H15R19774   6.933   6.188   9.180 -1.2291  0.0047 -0.6425
  174SOPE  H15S19775   7.067   6.305   9.146 -0.5889  0.4894  3.1770
  174SOPE  C21619776   6.893   6.335   9.023  1.0167 -0.0323 -0.3043
  174SOPE  H16R19777   6.925   6.438   8.996 -0.0650  0.3598 -0.1081
  174SOPE  H16S19778   6.783   6.346   9.026  1.2533  3.5763  0.0633
  174SOPE  C21719779   6.940   6.243   8.905 -0.1505 -0.7813 -0.7256
  174SOPE  H17R19780   6.901   6.140   8.919 -1.4873 -0.0204  1.7652
  174SOPE  H17S19781   7.051   6.237   8.903  0.2671  3.6082 -0.4849
  174SOPE  C21819782   6.880   6.281   8.766  0.4545 -0.1913  0.3712
  174SOPE  H18R19783   6.769   6.278   8.766  0.4611 -0.4794  0.1414
  174SOPE  H18S19784   6.920   6.211   8.689  0.4484 -0.8764  0.9765
  174SOPE  H18T19785   6.906   6.384   8.734  2.8077 -0.3761  1.5294
  174SOPE   C3319786   6.547   5.745  10.153 -0.4820 -0.7107  0.5596
  174SOPE   H3X19787   6.458   5.682  10.172 -1.0071 -0.7030 -1.5829
  174SOPE   H3Y19788   6.622   5.685  10.098 -1.1136 -0.7957 -0.2292
  174SOPE   C3419789   6.502   5.855  10.059  0.4322 -0.3514  0.1052
  174SOPE   H4X19790   6.574   5.935  10.035 -0.8842  1.3402  1.5189
  174SOPE   H4Y19791   6.421   5.915  10.105  2.7248  2.0623  1.2875
  174SOPE   C3519792   6.461   5.811   9.910 -0.2579 -0.3604  0.0934
  174SOPE   H5X19793   6.439   5.909   9.862  1.1579  0.6615  1.4206
  174SOPE   H5Y19794   6.378   5.737   9.908 -0.0350 -0.6085 -0.4828
  174SOPE   C3619795   6.585   5.748   9.832 -0.2740 -0.2279 -0.2526
  174SOPE   H6X19796   6.599   5.657   9.894 -0.8452  0.4247  0.8772
  174SOPE   H6Y19797   6.678   5.803   9.858  1.8145 -2.9109 -1.5799
  174SOPE   C3719798   6.555   5.720   9.691 -0.2051 -0.0865 -0.0830
  174SOPE   H7X19799   6.448   5.693   9.682 -0.2278 -0.8969  2.0360
  174SOPE   H7Y19800   6.615   5.632   9.658 -2.1349 -1.4451 -0.1686
  174SOPE   C3819801   6.597   5.841   9.601 -0.1011  0.0252  0.6641
  174SOPE   H8X19802   6.691   5.887   9.637 -0.8568  2.2756 -0.1202
  174SOPE   H8Y19803   6.518   5.915   9.626  0.1534  0.8140 -0.8171
  174SOPE   C3919804   6.604   5.809   9.445  0.0497  0.1190  0.2208
  174SOPE   H9X19805   6.662   5.719   9.418  0.4509  0.6978 -0.9157
  174SOPE   H9Y19806   6.651   5.891   9.387  1.5108  0.4612  1.8220
  174SOPE  C31019807   6.452   5.795   9.398 -0.3261 -1.1851  0.0454
  174SOPE  H10X19808   6.387   5.876   9.439  0.2168 -0.9361  0.4177
  174SOPE  H10Y19809   6.415   5.697   9.436  2.4937 -2.2126  0.3517
  174SOPE  C31119810   6.443   5.793   9.244 -0.0501 -0.4206 -0.3933
  174SOPE  H11X19811   6.468   5.689   9.216 -1.1926 -1.1062  0.9977
  174SOPE  H11Y19812   6.504   5.878   9.207 -0.7767  0.2933 -0.0024
  174SOPE  C31219813   6.304   5.819   9.193  0.1238 -0.3879 -0.3744
  174SOPE  H12X19814   6.248   5.908   9.230 -0.3451 -0.5206 -0.7577
  174SOPE  H12Y19815   6.243   5.728   9.209  0.7662 -1.3661 -2.9737
  174SOPE  C31319816   6.306   5.857   9.041 -0.2298  0.7484 -0.1851
  174SOPE  H13X19817   6.352   5.767   8.996 -1.3414  1.0706 -2.0605
  174SOPE  H13Y19818   6.369   5.948   9.029  1.9205 -0.8140 -1.2475
  174SOPE  C31419819   6.172   5.881   8.980  0.3448  0.4747  0.9192
  174SOPE  H14X19820   6.132   5.982   9.002 -2.0661 -0.1486 -0.2773
  174SOPE  H14Y19821   6.098   5.810   9.021  1.5845 -0.4864  1.5466
  174SOPE  C31519822   6.168   5.854   8.830 -0.3232  0.1061  0.4488
  174SOPE  H15X19823   6.069   5.889   8.795  0.2743  0.4503 -0.9677
  174SOPE  H15Y19824   6.189   5.748   8.801  1.7212  1.1106 -2.1776
  174SOPE  C31619825   6.274   5.940   8.746  0.1274 -0.4140 -0.4244
  174SOPE  H16X19826   6.376   5.926   8.788  1.0830  0.6716 -2.2384
  174SOPE  H16Y19827   6.262   6.050   8.753  2.9776  0.0646 -1.4130
  174SOPE  C31719828   6.285   5.910   8.597  0.4045  1.1059  0.6635
  174SOPE  H17X19829   6.245   5.808   8.580 -0.0507  1.2397  0.8920
  174SOPE  H17Y19830   6.391   5.897   8.566  0.1431 -1.3814  0.6156
  174SOPE  C31819831   6.216   6.007   8.506 -0.0477  0.8539 -0.3044
  174SOPE  H18X19832   6.112   6.023   8.543  0.0300 -0.0457  0.3443
  174SOPE  H18Y19833   6.219   5.960   8.406  4.5413 -1.4654  0.6962
  174SOPE  H18Z19834   6.272   6.103   8.510 -1.0231  1.4283  0.2953
  175SOPE     N19835   0.757   1.777  10.686 -0.4207 -0.3525  0.1256
  175SOPE   HN119836   0.840   1.757  10.745 -0.5249 -0.3578  0.2712
  175SOPE   HN219837   0.744   1.693  10.626 -2.4637 -0.4179  0.5751
  175SOPE   HN319838   0.766   1.854  10.617  1.4253 -1.7398 -1.2814
  175SOPE   C1219839   0.634   1.769  10.764  0.6107  1.0690 -0.0782
  175SOPE  H12A19840   0.655   1.834  10.852  1.7906  2.2319 -1.1756
  175SOPE  H12B19841   0.602   1.666  10.788 -0.7043  1.8508  1.7497
  175SOPE   C1119842   0.518   1.840  10.686 -0.3064  0.0745 -0.0126
  175SOPE  H11A19843   0.531   1.828  10.576  3.1531  2.8165 -0.0843
  175SOPE  H11B19844   0.530   1.951  10.691  0.1063  0.0549 -0.4820
  175SOPE     P19845   0.266   1.823  10.643  0.0038  0.1430  0.2070
  175SOPE   O1319846   0.283   1.942  10.558  0.0072  0.2934  0.5895
  175SOPE   O1419847   0.147   1.836  10.730  0.3321 -0.2911 -0.0954
  175SOPE   O1219848   0.391   1.808  10.745 -0.0485  0.0848  0.1549
  175SOPE   O1119849   0.258   1.689  10.552 -0.6049 -0.1878 -0.1502
  175SOPE    C119850   0.302   1.564  10.619  0.0141  0.5235 -1.0655
  175SOPE    HA19851   0.283   1.554  10.728  0.9351 -2.5264 -1.0961
  175SOPE    HB19852   0.411   1.550  10.602 -0.1617 -0.0657 -1.7454
  175SOPE    C219853   0.219   1.437  10.564 -0.4075 -0.3275 -0.5307
  175SOPE    HS19854   0.217   1.353  10.635 -0.6784 -0.7673 -1.0468
  175SOPE   O2119855   0.282   1.393  10.440 -0.0789  0.2106  0.5643
  175SOPE   C2119856   0.269   1.262  10.409  0.1248  0.1232 -0.3411
  175SOPE   O2219857   0.210   1.183  10.482 -0.2422 -0.0843 -0.0202
  175SOPE   C2219858   0.333   1.235  10.279  0.5197  0.2735 -0.1252
  175SOPE   H2R19859   0.362   1.128  10.268  1.1467  0.6516 -2.4727
  175SOPE   H2S19860   0.427   1.291  10.261  0.4641  1.1099  1.8527
  175SOPE    C319861   0.071   1.479  10.539 -0.3539  0.4722  0.2188
  175SOPE    HX19862   0.069   1.540  10.446 -0.7786 -0.4832 -0.4145
  175SOPE    HY19863   0.039   1.543  10.624  0.7265  2.1709 -0.6014
  175SOPE   O3119864  -0.008   1.362  10.523  0.8348 -0.2672 -0.4431
  175SOPE   C3119865  -0.057   1.309  10.641 -0.1903 -0.0935 -0.0069
  175SOPE   O3219866  -0.036   1.359  10.752  0.5151  1.0024 -0.0633
  175SOPE   C3219867  -0.162   1.198  10.608 -0.2305 -0.0683  1.1913
  175SOPE   H2X19868  -0.258   1.220  10.659 -1.3297 -0.8366 -0.4733
  175SOPE   H2Y19869  -0.109   1.104  10.634  1.4677  0.4708 -0.0838
  175SOPE   C2319870   0.234   1.261  10.161 -0.3099 -0.3739 -0.2222
  175SOPE   H3R19871   0.183   1.357  10.187 -1.3078 -1.5648  2.6322
  175SOPE   H3S19872   0.160   1.179  10.171  0.8499 -1.4997 -0.5800
  175SOPE   C2419873   0.305   1.257  10.028  0.0457 -0.2857 -0.7797
  175SOPE   H4R19874   0.354   1.357  10.019 -1.0332  0.2108 -1.3352
  175SOPE   H4S19875   0.385   1.181  10.018  0.3515 -0.1640  0.5405
  175SOPE   C2519876   0.214   1.242   9.907 -0.1109  0.3926  0.2513
  175SOPE   H5R19877   0.202   1.131   9.899 -0.9691  0.6078 -2.7994
  175SOPE   H5S19878   0.116   1.287   9.932 -0.0507 -0.4706  2.1682
  175SOPE   C2619879   0.285   1.308   9.786  0.3055 -0.0232 -0.3068
  175SOPE   H6R19880   0.288   1.419   9.797 -0.1819 -0.2002  2.2624
  175SOPE   H6S19881   0.393   1.286   9.772  0.0438 -0.4005 -1.9721
  175SOPE   C2719882   0.206   1.268   9.657 -0.2526 -0.0890  0.2683
  175SOPE   H7R19883   0.184   1.160   9.667 -1.0790 -0.1088 -1.3792
  175SOPE   H7S19884   0.105   1.306   9.683  0.0928  0.6139  0.6151
  175SOPE   C2819885   0.275   1.304   9.524 -0.1582  0.0734 -0.8257
  175SOPE   H8R19886   0.298   1.412   9.515 -1.2277  0.2877 -1.1938
  175SOPE   H8S19887   0.374   1.254   9.524  0.1550  0.6671  0.1095
  175SOPE   C2919888   0.193   1.259   9.408 -0.2661  0.7936 -0.3573
  175SOPE   H9119889   0.161   1.155   9.418  0.5921  0.5325 -0.3082
  175SOPE  C21019890   0.163   1.335   9.301  0.5753 -0.2829 -0.9688
  175SOPE  H10119891   0.099   1.293   9.223 -3.4714  1.4317  1.1461
  175SOPE  C21119892   0.205   1.474   9.265  0.2954  0.0672  0.2288
  175SOPE  H11R19893   0.308   1.482   9.306  0.2133 -3.4191  1.4760
  175SOPE  H11S19894   0.139   1.547   9.315 -0.0760  0.7650 -1.2192
  175SOPE  C21219895   0.201   1.502   9.113  0.7684 -0.7341  0.3342
  175SOPE  H12R19896   0.224   1.610   9.098 -1.6651 -0.4085 -1.5156
  175SOPE  H12S19897   0.102   1.475   9.071  1.2247 -1.5175 -0.2555
  175SOPE  C21319898   0.301   1.406   9.036  0.3358  0.4929 -0.0758
  175SOPE  H13R19899   0.255   1.305   9.049  1.1195  0.4764  4.1313
  175SOPE  H13S19900   0.393   1.396   9.096  0.1687 -1.3677 -0.0767
  175SOPE  C21419901   0.313   1.433   8.887 -0.0313 -0.4806 -0.3342
  175SOPE  H14R19902   0.384   1.519   8.886  0.4973 -0.9089 -0.1803
  175SOPE  H14S19903   0.218   1.466   8.840 -0.8928  1.0942  2.3297
  175SOPE  C21519904   0.365   1.321   8.802 -0.9311  0.6376 -0.3197
  175SOPE  H15R19905   0.293   1.236   8.805 -0.1800  0.0118  0.3151
  175SOPE  H15S19906   0.459   1.281   8.846  0.2030  0.2849 -2.8438
  175SOPE  C21619907   0.409   1.376   8.669 -0.5469 -0.0574  0.3407
  175SOPE  H16R19908   0.455   1.477   8.678  2.7909 -1.5088  1.1481
  175SOPE  H16S19909   0.322   1.375   8.600  0.1893  0.1807 -0.6199
  175SOPE  C21719910   0.509   1.281   8.600 -0.1326 -0.5630 -1.0487
  175SOPE  H17R19911   0.608   1.280   8.650 -1.4674  1.9776  1.9405
  175SOPE  H17S19912   0.527   1.314   8.495  1.9443  1.9409  0.0006
  175SOPE  C21819913   0.462   1.138   8.584 -0.1273  0.8063  0.8304
  175SOPE  H18R19914   0.371   1.131   8.520 -0.2499 -0.1473  1.1038
  175SOPE  H18S19915   0.440   1.095   8.684  0.1394  0.6505  0.8200
  175SOPE  H18T19916   0.536   1.073   8.533 -0.1941  0.3836  1.2677
  175SOPE   C3319917  -0.190   1.185  10.455  0.5575 -0.2140 -0.0281
  175SOPE   H3X19918  -0.183   1.281  10.399 -2.9328 -0.7870 -1.7509
  175SOPE   H3Y19919  -0.295   1.161  10.428  0.7411  0.3533 -1.3169
  175SOPE   C3419920  -0.112   1.070  10.395  0.6036 -0.3002  0.5900
  175SOPE   H4X19921  -0.134   0.977  10.451  2.0053 -0.0099  1.6881
  175SOPE   H4Y19922  -0.007   1.076  10.430  0.7642 -0.8102  0.2162
  175SOPE   C3519923  -0.116   1.060  10.237 -0.6098 -0.1438 -0.2651
  175SOPE   H5X19924  -0.085   1.160  10.199  1.3050 -0.2340  0.9612
  175SOPE   H5Y19925  -0.220   1.049  10.199 -1.0301 -0.3503  0.9011
  175SOPE   C3619926  -0.024   0.958  10.175 -0.1223  0.1064  0.1634
  175SOPE   H6X19927  -0.070   0.861  10.200 -1.1379  0.6410  0.4232
  175SOPE   H6Y19928   0.080   0.952  10.212  0.6934 -1.4452 -2.1281
  175SOPE   C3719929  -0.009   0.976  10.024 -0.2513  0.1711  0.4880
  175SOPE   H7X19930   0.031   1.076   9.996  0.6463 -0.1635  0.5388
  175SOPE   H7Y19931  -0.116   0.980   9.992  0.5071 -0.1646 -2.4224
  175SOPE   C3819932   0.052   0.853   9.957  0.2944 -0.2334  0.8965
  175SOPE   H8X19933   0.009   0.761  10.001  0.1140 -1.2819 -1.3588
  175SOPE   H8Y19934   0.158   0.848   9.988  0.5717 -1.9153 -0.2223
  175SOPE   C3919935   0.052   0.852   9.795  0.4202  0.2271 -0.1628
  175SOPE   H9X19936   0.097   0.753   9.772 -1.2993 -0.4450 -0.8412
  175SOPE   H9Y19937   0.115   0.929   9.747  0.7948  1.0271  1.5540
  175SOPE  C31019938  -0.091   0.859   9.742 -0.0873 -0.6489 -0.0910
  175SOPE  H10X19939  -0.148   0.937   9.796  0.4080  0.2418 -0.8286
  175SOPE  H10Y19940  -0.138   0.760   9.758  1.3985 -1.5302 -0.9159
  175SOPE  C31119941  -0.084   0.903   9.596 -0.1947  0.0095  0.0671
  175SOPE  H11X19942  -0.029   0.998   9.578  0.5436 -0.7196 -1.7036
  175SOPE  H11Y19943  -0.185   0.921   9.553  0.6556 -1.3543 -2.7191
  175SOPE  C31219944  -0.029   0.803   9.497  0.0318 -0.4859  0.2224
  175SOPE  H12X19945  -0.071   0.700   9.499 -1.2163 -0.0890 -2.2278
  175SOPE  H12Y19946   0.065   0.762   9.541  0.7708  3.0400  2.3332
  175SOPE  C31319947  -0.002   0.844   9.351  0.5942 -0.4515 -0.5544
  175SOPE  H13X19948   0.078   0.784   9.303  0.4848 -3.0574  2.2080
  175SOPE  H13Y19949   0.034   0.949   9.346  1.2093 -0.5759  0.8538
  175SOPE  C31419950  -0.129   0.838   9.261 -0.3021  0.4179 -0.6391
  175SOPE  H14X19951  -0.204   0.903   9.310  0.4690  0.9861 -0.1856
  175SOPE  H14Y19952  -0.150   0.731   9.285  2.0493  0.7624  4.0798
  175SOPE  C31519953  -0.115   0.860   9.105 -0.1051  0.6284 -0.1113
  175SOPE  H15X19954  -0.211   0.845   9.051 -1.1871  2.7937  1.0873
  175SOPE  H15Y19955  -0.045   0.782   9.067 -1.1319  0.5508 -1.9938
  175SOPE  C31619956  -0.074   1.004   9.071  0.1590  0.5033  0.5719
  175SOPE  H16X19957   0.036   1.010   9.086  0.9880 -3.7626 -2.1964
  175SOPE  H16Y19958  -0.134   1.068   9.139 -1.0104 -2.0783  2.0905
  175SOPE  C31719959  -0.116   1.044   8.927 -0.0029 -0.3336  0.1563
  175SOPE  H17X19960  -0.226   1.057   8.934  0.2181  1.2589  1.3595
  175SOPE  H17Y19961  -0.091   0.957   8.863 -0.0663 -0.2800  0.0592
  175SOPE  C31819962  -0.057   1.174   8.882  0.8109 -0.7865 -0.1313
  175SOPE  H18X19963   0.052   1.169   8.862  0.9910 -0.4108  0.7233
  175SOPE  H18Y19964  -0.070   1.256   8.955 -1.3788 -0.1397 -1.1569
  175SOPE  H18Z19965  -0.108   1.194   8.785 -0.6537 -1.7715  0.4121
  176SOPE     N19966   0.172   1.176  11.237  0.3784 -0.6952  0.5050
  176SOPE   HN119967   0.121   1.260  11.273  1.9395  0.2077  0.7090
  176SOPE   HN219968   0.142   1.096  11.296 -1.1539 -0.7938 -0.3531
  176SOPE   HN319969   0.270   1.196  11.264 -0.1575  0.9101  1.4610
  176SOPE   C1219970   0.158   1.156  11.089  0.4346  0.5500 -0.6892
  176SOPE  H12A19971   0.236   1.081  11.063  0.5433  0.5198 -0.2727
  176SOPE  H12B19972   0.192   1.250  11.040  2.1066 -0.5469 -1.7523
  176SOPE   C1119973   0.017   1.115  11.053  0.2422  0.0937  0.1907
  176SOPE  H11A19974   0.015   1.007  11.081  1.9081  0.1256  0.5526
  176SOPE  H11B19975  -0.001   1.120  10.944  1.5443  0.2813 -0.0402
  176SOPE     P19976  -0.246   1.171  11.104  0.0740  0.1524  0.1902
  176SOPE   O1319977  -0.321   1.293  11.065  0.3031 -0.2892 -0.5301
  176SOPE   O1419978  -0.299   1.110  11.227 -0.0230 -0.1810  0.5261
  176SOPE   O1219979  -0.089   1.204  11.115 -0.3853  0.1799 -0.4948
  176SOPE   O1119980  -0.260   1.075  10.984  0.0492 -0.1545 -0.1671
  176SOPE    C119981  -0.299   0.936  11.000  0.6988 -0.4421 -0.2429
  176SOPE    HA19982  -0.399   0.931  11.047  1.6580 -1.7960  1.8207
  176SOPE    HB19983  -0.225   0.877  11.058 -1.6080 -2.1338  1.1686
  176SOPE    C219984  -0.307   0.866  10.863 -0.4883 -0.2053  0.0898
  176SOPE    HS19985  -0.344   0.762  10.880  0.3968 -0.9635 -2.2031
  176SOPE   O2119986  -0.173   0.867  10.816  0.3547 -0.0354 -0.3892
  176SOPE   C2119987  -0.099   0.762  10.843 -0.3074  0.2414 -0.5609
  176SOPE   O2219988  -0.134   0.659  10.899 -0.0208 -0.1688 -0.3809
  176SOPE   C2219989   0.036   0.787  10.781  0.9935  0.1363  0.0148
  176SOPE   H2R19990   0.102   0.738  10.855 -0.2136  2.0195  2.4901
  176SOPE   H2S19991   0.047   0.897  10.786  0.2535  0.4195 -2.8555
  176SOPE    C319992  -0.412   0.935  10.772  0.1296  0.1441  0.7135
  176SOPE    HX19993  -0.376   1.040  10.764  1.2137 -0.3121 -0.8227
  176SOPE    HY19994  -0.515   0.932  10.812 -0.3046 -2.3604 -0.3818
  176SOPE   O3119995  -0.401   0.876  10.638  0.0754 -0.0662 -0.4866
  176SOPE   C3119996  -0.468   0.951  10.551 -0.4291 -1.3756 -0.1620
  176SOPE   O3219997  -0.531   1.054  10.575 -0.5812  0.3520 -0.5174
  176SOPE   C3219998  -0.440   0.893  10.415 -0.5935  0.3208  0.1984
  176SOPE   H2X19999  -0.416   0.785  10.428  1.2271  0.4429 -1.6192
  176SOPE   H2Y20000  -0.346   0.940  10.380 -0.0868 -2.2913 -2.4395
  176SOPE   C2320001   0.059   0.741  10.642 -0.1066  0.9132  0.1932
  176SOPE   H3R20002  -0.010   0.798  10.576  1.1923  1.2623 -0.8967
  176SOPE   H3S20003   0.049   0.630  10.640  0.4316  0.8452 -2.3826
  176SOPE   C2420004   0.194   0.781  10.587 -0.2192 -0.2703  0.0901
  176SOPE   H4R20005   0.195   0.891  10.573 -2.2285  0.2008  2.7152
  176SOPE   H4S20006   0.274   0.762  10.661  0.1630  1.4590  0.1526
  176SOPE   C2520007   0.228   0.720  10.448 -0.2758  1.0295 -0.1978
  176SOPE   H5R20008   0.237   0.610  10.454 -1.1072  0.7446 -2.6830
  176SOPE   H5S20009   0.145   0.738  10.375 -2.3344 -2.5667  0.9772
  176SOPE   C2620010   0.352   0.779  10.384 -0.3399  0.4221 -0.5109
  176SOPE   H6R20011   0.343   0.888  10.402  1.0857  0.4428  0.1496
  176SOPE   H6S20012   0.432   0.747  10.453 -0.6913  0.4275 -0.0948
  176SOPE   C2720013   0.384   0.738  10.236  0.9026 -0.6195 -0.1750
  176SOPE   H7R20014   0.396   0.627  10.237 -0.6823 -0.9028 -2.6618
  176SOPE   H7S20015   0.285   0.753  10.189 -0.3596 -0.9757  2.2011
  176SOPE   C2820016   0.491   0.816  10.170  0.0745  0.3630 -0.3739
  176SOPE   H8R20017   0.442   0.913  10.147  0.1126  1.1138  2.4044
  176SOPE   H8S20018   0.570   0.843  10.243 -0.5961  1.9063 -0.1833
  176SOPE   C2920019   0.548   0.742  10.044 -0.0099  0.1414 -0.1970
  176SOPE   H9120020   0.615   0.658  10.066 -1.9630 -1.2405  0.9306
  176SOPE  C21020021   0.522   0.782   9.919 -0.1461  0.1331  0.1373
  176SOPE  H10120022   0.563   0.719   9.839 -0.6646  2.0527 -1.7081
  176SOPE  C21120023   0.432   0.893   9.872 -0.1386 -0.2675  1.1371
  176SOPE  H11R20024   0.489   0.988   9.870  2.4151 -1.6636  2.8198
  176SOPE  H11S20025   0.343   0.886   9.937 -0.3763 -1.4799  0.7126
  176SOPE  C21220026   0.387   0.869   9.725 -0.4954 -0.2271 -0.1692
  176SOPE  H12R20027   0.324   0.953   9.688 -2.5340 -1.9975 -0.9617
  176SOPE  H12S20028   0.333   0.775   9.701  0.0215 -0.8476  1.0335
  176SOPE  C21320029   0.510   0.875   9.632  0.7720 -0.4271 -0.5229
  176SOPE  H13R20030   0.576   0.786   9.649  0.1755 -0.2882  3.3512
  176SOPE  H13S20031   0.571   0.967   9.643 -0.3400  0.0813  2.2655
  176SOPE  C21420032   0.449   0.877   9.491  0.2220  0.1540 -0.2281
  176SOPE  H14R20033   0.404   0.977   9.473 -0.1404  0.0952  0.3188
  176SOPE  H14S20034   0.380   0.791   9.482  2.4256 -1.5105 -2.2769
  176SOPE  C21520035   0.547   0.871   9.373 -0.2111 -0.1942  0.1998
  176SOPE  H15R20036   0.612   0.788   9.408 -1.0979 -0.4001  1.4428
  176SOPE  H15S20037   0.606   0.965   9.382 -0.3576  0.2148 -2.3336
  176SOPE  C21620038   0.478   0.863   9.239  0.9768 -0.0215  0.1556
  176SOPE  H16R20039   0.404   0.781   9.250  0.5453  0.5410  1.7978
  176SOPE  H16S20040   0.547   0.828   9.160 -1.3639 -0.1278 -1.9540
  176SOPE  C21720041   0.401   0.995   9.206  0.2595  0.1817 -0.7832
  176SOPE  H17R20042   0.471   1.081   9.192 -0.7012  1.3035  0.9235
  176SOPE  H17S20043   0.332   1.013   9.291  0.1743  0.6536 -0.9478
  176SOPE  C21820044   0.324   0.986   9.070 -0.2337  0.4011  0.3736
  176SOPE  H18R20045   0.258   0.897   9.066 -0.8051  0.8404 -0.3603
  176SOPE  H18S20046   0.399   0.983   8.988 -1.2796 -1.3881 -0.5666
  176SOPE  H18T20047   0.261   1.075   9.049  1.5045  1.2970 -1.3759
  176SOPE   C3320048  -0.542   0.906  10.290  0.5694  0.2444  0.6229
  176SOPE   H3X20049  -0.553   1.013  10.262 -1.4014  0.3345  1.5626
  176SOPE   H3Y20050  -0.631   0.866  10.343  1.4876  0.1926  2.1712
  176SOPE   C3420051  -0.494   0.828  10.168  0.3336 -0.4761  0.0672
  176SOPE   H4X20052  -0.474   0.722  10.193  2.8569 -0.4300 -1.4003
  176SOPE   H4Y20053  -0.396   0.871  10.140  1.3677 -2.7357  0.0309
  176SOPE   C3520054  -0.593   0.850  10.054  0.2268  0.3907  0.1444
  176SOPE   H5X20055  -0.638   0.951  10.059  0.3473  0.5328 -1.1127
  176SOPE   H5Y20056  -0.672   0.775  10.073  0.6169  0.5742  2.7630
  176SOPE   C3620057  -0.521   0.825   9.919  0.1501 -0.3043 -1.4114
  176SOPE   H6X20058  -0.492   0.720   9.903  3.4094 -0.0926  1.7831
  176SOPE   H6Y20059  -0.423   0.875   9.911 -1.1067  2.0442 -3.3679
  176SOPE   C3720060  -0.604   0.877   9.804 -0.3229 -0.1961  1.2230
  176SOPE   H7X20061  -0.624   0.986   9.814  1.2781  0.2660 -0.2523
  176SOPE   H7Y20062  -0.707   0.834   9.797 -1.7690  2.9486  1.3377
  176SOPE   C3820063  -0.517   0.861   9.673  0.5182  0.1278 -0.6299
  176SOPE   H8X20064  -0.500   0.752   9.666  0.7866 -0.0389  1.7492
  176SOPE   H8Y20065  -0.422   0.916   9.691  0.9142 -0.2209 -1.5887
  176SOPE   C3920066  -0.586   0.937   9.560 -0.1231  0.0241  0.2727
  176SOPE   H9X20067  -0.551   1.040   9.585  1.5182 -0.4446  0.0686
  176SOPE   H9Y20068  -0.695   0.923   9.546  0.3945 -1.8729 -2.7153
  176SOPE  C31020069  -0.517   0.895   9.427  0.6756 -0.7224 -0.0389
  176SOPE  H10X20070  -0.544   0.788   9.412  0.2014 -0.4902 -0.9102
  176SOPE  H10Y20071  -0.406   0.901   9.428  0.6715  0.8497 -1.8386
  176SOPE  C31120072  -0.563   0.986   9.315  0.4213  0.0917  0.0161
  176SOPE  H11X20073  -0.544   1.093   9.338 -0.5290  0.1740  0.4653
  176SOPE  H11Y20074  -0.673   0.975   9.301  0.7659 -1.4651 -1.9088
  176SOPE  C31220075  -0.499   0.947   9.177  0.4359 -0.6279 -0.0022
  176SOPE  H12X20076  -0.530   0.842   9.158  0.5908 -0.3846 -1.8812
  176SOPE  H12Y20077  -0.389   0.940   9.190  0.2494 -1.1643  1.3513
  176SOPE  C31320078  -0.550   1.038   9.064 -0.0994  0.3062 -0.3462
  176SOPE  H13X20079  -0.498   1.136   9.057  0.1281  0.1759 -0.4975
  176SOPE  H13Y20080  -0.651   1.078   9.087  0.3618  2.0993 -1.2538
  176SOPE  C31420081  -0.543   0.981   8.929  0.4009  0.4230 -0.3464
  176SOPE  H14X20082  -0.600   0.886   8.938  0.5059  0.2953 -0.9290
  176SOPE  H14Y20083  -0.436   0.956   8.910 -0.4231 -3.2804 -0.8482
  176SOPE  C31520084  -0.599   1.079   8.819 -0.3709 -0.5619 -0.7427
  176SOPE  H15X20085  -0.545   1.176   8.831  0.1845 -1.0224  0.8781
  176SOPE  H15Y20086  -0.707   1.099   8.836 -0.1114 -0.3203  0.8612
  176SOPE  C31620087  -0.586   1.026   8.678 -0.7649 -0.4872  0.1783
  176SOPE  H16X20088  -0.649   0.935   8.665 -2.5929  0.7211  0.1436
  176SOPE  H16Y20089  -0.479   1.001   8.660 -0.3090  0.8262  0.9067
  176SOPE  C31720090  -0.640   1.133   8.589 -0.0585 -0.2285  1.3179
  176SOPE  H17X20091  -0.625   1.106   8.482 -2.2564  3.4156 -0.1070
  176SOPE  H17Y20092  -0.579   1.225   8.597 -1.9874  1.4215 -1.2107
  176SOPE  C31820093  -0.793   1.141   8.608 -0.8125  0.2339 -0.3281
  176SOPE  H18X20094  -0.834   1.192   8.698  0.9626 -0.5241  0.9845
  176SOPE  H18Y20095  -0.831   1.037   8.612  0.8739 -0.5025 -1.9084
  176SOPE  H18Z20096  -0.843   1.192   8.524 -1.4638 -1.6144 -1.1171
  177SOPE     N20097   0.319   4.251  10.845  0.6558  0.1970  0.0729
  177SOPE   HN120098   0.288   4.307  10.763 -1.9257  0.3617  1.0761
  177SOPE   HN220099   0.420   4.276  10.845  0.1401  2.5567 -0.2511
  177SOPE   HN320100   0.301   4.149  10.837  0.2349  0.3159 -0.5812
  177SOPE   C1220101   0.260   4.303  10.973  0.2762  0.1092  0.1152
  177SOPE  H12A20102   0.220   4.209  11.016  1.7387 -2.0794 -2.9868
  177SOPE  H12B20103   0.184   4.381  10.950 -0.6919 -0.2379  1.9162
  177SOPE   C1120104   0.373   4.372  11.053 -0.6336 -0.4327  0.3071
  177SOPE  H11A20105   0.433   4.282  11.079 -0.4057 -0.2666  0.3649
  177SOPE  H11B20106   0.319   4.406  11.144 -0.3269 -0.4658  0.5032
  177SOPE     P20107   0.543   4.572  11.049 -0.0936 -0.3406  0.2737
  177SOPE   O1320108   0.675   4.577  10.979 -0.1455  0.3912  0.0778
  177SOPE   O1420109   0.544   4.544  11.192 -0.3329 -0.2414 -0.6458
  177SOPE   O1220110   0.439   4.475  10.963 -0.0949 -0.2173 -1.3141
  177SOPE   O1120111   0.472   4.721  11.041 -0.3963 -0.4832  0.1334
  177SOPE    C120112   0.333   4.731  11.057  0.4655 -0.4143  0.2958
  177SOPE    HA20113   0.318   4.830  11.106 -0.0241  0.6219 -1.8502
  177SOPE    HB20114   0.289   4.650  11.119 -1.6964  0.0265 -0.5794
  177SOPE    C220115   0.263   4.733  10.920 -0.0044 -0.2603 -0.7065
  177SOPE    HS20116   0.273   4.635  10.869 -2.5182 -0.4368 -1.0104
  177SOPE   O2120117   0.304   4.838  10.841 -0.3616  0.0700 -0.2009
  177SOPE   C2120118   0.322   4.816  10.715 -0.6365 -0.4144 -0.0682
  177SOPE   O2220119   0.323   4.709  10.657 -0.6112  0.3841  0.1380
  177SOPE   C2220120   0.354   4.944  10.644 -0.1507 -0.8522 -0.5339
  177SOPE   H2R20121   0.353   5.028  10.717  0.2888 -0.5576 -0.8640
  177SOPE   H2S20122   0.277   4.970  10.569  0.3796  0.5509 -0.6083
  177SOPE    C320123   0.109   4.736  10.947  0.0249  0.8179 -0.1627
  177SOPE    HX20124   0.097   4.834  10.997 -1.8750  1.0390 -0.9812
  177SOPE    HY20125   0.074   4.651  11.009  2.2267  0.0075  0.0711
  177SOPE   O3120126   0.030   4.754  10.828 -0.1255  0.0096  0.4096
  177SOPE   C3120127   0.004   4.645  10.764 -0.8777 -0.2090  0.0279
  177SOPE   O3220128   0.021   4.532  10.807  0.1174  0.0254 -0.0230
  177SOPE   C3220129  -0.049   4.686  10.628 -0.3186  0.7023  0.0441
  177SOPE   H2X20130   0.034   4.738  10.574 -0.8070  1.2524 -0.1951
  177SOPE   H2Y20131  -0.123   4.767  10.648  1.8949  4.0159 -3.6264
  177SOPE   C2320132   0.493   4.950  10.590  0.3173 -0.3970 -0.0162
  177SOPE   H3R20133   0.502   4.865  10.519 -2.2993  0.6305 -1.7180
  177SOPE   H3S20134   0.565   4.933  10.672 -0.8003 -0.4144  0.9879
  177SOPE   C2420135   0.522   5.087  10.527 -0.8493  0.3538 -0.3313
  177SOPE   H4R20136   0.436   5.126  10.468 -0.9214 -1.5459 -1.5690
  177SOPE   H4S20137   0.523   5.166  10.605 -0.8420  0.9817 -0.9637
  177SOPE   C2520138   0.645   5.088  10.434 -0.0006 -0.1252 -0.6315
  177SOPE   H5R20139   0.729   5.058  10.500 -0.1385 -1.9277 -1.1937
  177SOPE   H5S20140   0.638   5.002  10.363 -1.2708  0.3516 -1.1156
  177SOPE   C2620141   0.664   5.225  10.371  1.3582 -0.6755  0.2176
  177SOPE   H6R20142   0.567   5.257  10.328  0.2583 -1.8298  1.7188
  177SOPE   H6S20143   0.680   5.297  10.454 -0.7731 -1.7874  1.6815
  177SOPE   C2720144   0.775   5.230  10.264  0.0467  0.6698 -0.2555
  177SOPE   H7R20145   0.809   5.335  10.263  0.4878  0.5613  1.2573
  177SOPE   H7S20146   0.863   5.166  10.286  0.9343  1.3308 -1.7290
  177SOPE   C2820147   0.733   5.191  10.123  0.0555 -0.1343  0.1634
  177SOPE   H8R20148   0.819   5.167  10.057  0.3314  0.6073  0.2469
  177SOPE   H8S20149   0.667   5.101  10.121  0.0758 -0.1469 -0.8766
  177SOPE   C2920150   0.652   5.305  10.051 -0.2463  0.4326 -0.1529
  177SOPE   H9120151   0.588   5.355  10.126 -0.6379 -3.0147  2.0478
  177SOPE  C21020152   0.667   5.351   9.926  0.6807  0.2930 -0.7043
  177SOPE  H10120153   0.604   5.438   9.900  0.1534  0.6311  1.4689
  177SOPE  C21120154   0.760   5.297   9.827  0.2335  0.2831 -0.2821
  177SOPE  H11R20155   0.712   5.306   9.727 -0.6910  3.0705  0.3505
  177SOPE  H11S20156   0.784   5.190   9.845  1.5336  0.5407 -0.3860
  177SOPE  C21220157   0.894   5.365   9.826 -0.4840  0.2944  0.1643
  177SOPE  H12R20158   0.963   5.320   9.900  3.2796  2.2597 -1.8222
  177SOPE  H12S20159   0.893   5.472   9.856  2.8026  0.3527  0.4770
  177SOPE  C21320160   0.983   5.339   9.698 -0.8718 -0.0540  0.3365
  177SOPE  H13R20161   0.987   5.228   9.689 -3.3596 -0.4432  2.6504
  177SOPE  H13S20162   1.083   5.386   9.709 -0.3065 -1.1624  0.0744
  177SOPE  C21420163   0.933   5.402   9.565 -0.4015  0.9827  0.3691
  177SOPE  H14R20164   0.869   5.491   9.582 -1.5652 -0.0066  1.2390
  177SOPE  H14S20165   0.873   5.315   9.532 -1.3000  0.9158  2.0974
  177SOPE  C21520166   1.038   5.431   9.454  0.2701  0.1881 -0.1237
  177SOPE  H15R20167   1.092   5.522   9.490 -1.3062  0.3041  2.1481
  177SOPE  H15S20168   0.997   5.452   9.353  3.1332  0.0373 -1.4241
  177SOPE  C21620169   1.148   5.322   9.436  0.1933  0.0426  0.1381
  177SOPE  H16R20170   1.092   5.227   9.420  1.8653 -0.9067 -0.2624
  177SOPE  H16S20171   1.206   5.299   9.527  1.9094 -1.3375 -1.2194
  177SOPE  C21720172   1.243   5.352   9.315  0.1400  0.5366  0.2289
  177SOPE  H17R20173   1.276   5.457   9.310  0.8691  0.2813 -0.4820
  177SOPE  H17S20174   1.195   5.317   9.220 -2.2010 -0.4161  1.6599
  177SOPE  C21820175   1.371   5.269   9.339  1.1412 -0.5050 -0.6240
  177SOPE  H18R20176   1.431   5.312   9.423  1.2466  2.0164 -1.8811
  177SOPE  H18S20177   1.440   5.281   9.253  1.0861 -0.6951 -0.6953
  177SOPE  H18T20178   1.351   5.160   9.341 -0.9141 -0.1682  1.0670
  177SOPE   C3320179  -0.127   4.587  10.532  0.7789  0.1973  0.0249
  177SOPE   H3X20180  -0.215   4.553  10.592 -0.2442 -0.9789 -2.0394
  177SOPE   H3Y20181  -0.073   4.492  10.518  1.0359  0.3904 -0.3019
  177SOPE   C3420182  -0.178   4.652  10.408 -0.6932  0.2161 -0.1476
  177SOPE   H4X20183  -0.236   4.741  10.439  0.7249  1.5439 -1.1931
  177SOPE   H4Y20184  -0.247   4.581  10.357 -0.2853  0.6652 -1.3568
  177SOPE   C3520185  -0.058   4.682  10.326 -0.5627  1.3401  0.0585
  177SOPE   H5X20186   0.014   4.599  10.308 -1.8401  0.5725 -1.8137
  177SOPE   H5Y20187   0.004   4.767  10.365 -0.8553  0.9329  1.4748
  177SOPE   C3620188  -0.107   4.732  10.186  0.0219 -0.5032 -0.1420
  177SOPE   H6X20189  -0.159   4.829  10.204  0.8327 -0.0549 -0.1911
  177SOPE   H6Y20190  -0.187   4.664  10.151 -0.1579  0.8886 -2.6771
  177SOPE   C3720191  -0.005   4.733  10.073  0.0490  0.0203  0.4916
  177SOPE   H7X20192   0.060   4.643  10.072  1.2314  0.8471  0.3114
  177SOPE   H7Y20193   0.067   4.816  10.088 -1.8959  1.2313  4.5977
  177SOPE   C3820194  -0.069   4.762   9.934 -0.7619  0.1403  0.4497
  177SOPE   H8X20195  -0.090   4.871   9.941  1.7765  0.9631 -2.3709
  177SOPE   H8Y20196  -0.164   4.711   9.910 -0.3378  0.7721 -3.2114
  177SOPE   C3920197   0.022   4.739   9.809  0.4796  0.8100  0.6308
  177SOPE   H9X20198   0.009   4.632   9.783  0.3481  1.2830 -1.3723
  177SOPE   H9Y20199   0.131   4.733   9.831  0.3578  0.6594  1.2275
  177SOPE  C31020200  -0.019   4.825   9.691  0.0430 -0.0745  0.2762
  177SOPE  H10X20201  -0.010   4.932   9.721  1.1552 -0.6532  2.2338
  177SOPE  H10Y20202  -0.126   4.808   9.665 -0.2589  2.1455 -0.1738
  177SOPE  C31120203   0.070   4.785   9.570 -0.5482  0.4171 -0.5213
  177SOPE  H11X20204   0.084   4.674   9.570 -0.8786  0.3416  1.6356
  177SOPE  H11Y20205   0.171   4.829   9.584  0.4898 -2.0264  0.1982
  177SOPE  C31220206  -0.002   4.826   9.436 -0.5169  0.8597 -0.2080
  177SOPE  H12X20207  -0.014   4.935   9.452 -0.5729  0.8305 -0.0507
  177SOPE  H12Y20208  -0.101   4.781   9.415 -0.3254  0.9790 -1.4172
  177SOPE  C31320209   0.088   4.807   9.308 -0.1312 -0.4654  0.8991
  177SOPE  H13X20210   0.075   4.700   9.284  2.1103 -0.5004 -0.4343
  177SOPE  H13Y20211   0.196   4.822   9.330 -0.5276  0.1776  2.5674
  177SOPE  C31420212   0.043   4.903   9.192 -0.8300 -0.0615 -0.4597
  177SOPE  H14X20213   0.127   4.926   9.122  1.2673 -0.7637  1.6847
  177SOPE  H14Y20214   0.019   5.007   9.220 -0.9910  0.9523 -3.8809
  177SOPE  C31520215  -0.069   4.841   9.111  0.7717  0.4153 -0.2008
  177SOPE  H15X20216  -0.149   4.819   9.185  1.2853 -2.0412 -0.3062
  177SOPE  H15Y20217  -0.045   4.740   9.071 -0.8905  0.8835 -2.5947
  177SOPE  C31620218  -0.123   4.923   8.997  0.2625 -0.0292  0.5062
  177SOPE  H16X20219  -0.062   4.927   8.904 -0.7290  0.2111 -0.1553
  177SOPE  H16Y20220  -0.137   5.025   9.040 -2.3113 -0.5751  1.1236
  177SOPE  C31720221  -0.262   4.878   8.937 -0.4062 -0.0528  0.0009
  177SOPE  H17X20222  -0.346   4.923   8.993 -0.6618  1.0044 -1.2121
  177SOPE  H17Y20223  -0.267   4.767   8.942 -2.2739  0.0328  0.6085
  177SOPE  C31820224  -0.297   4.913   8.793  0.4576 -0.2949  0.1480
  177SOPE  H18X20225  -0.234   4.995   8.752 -0.8772 -1.2371 -4.4537
  177SOPE  H18Y20226  -0.407   4.925   8.791  0.5529  0.8798  1.0144
  177SOPE  H18Z20227  -0.279   4.830   8.721 -1.2823 -1.3608  0.8807
  178SOPE     N20228   3.720   3.630  11.030 -0.2708  0.9103  0.3660
  178SOPE   HN120229   3.802   3.684  10.996  2.1830 -2.8552 -0.1677
  178SOPE   HN220230   3.726   3.650  11.132  1.3343  0.2159  0.4312
  178SOPE   HN320231   3.751   3.535  11.004  0.7348  1.7473 -1.7347
  178SOPE   C1220232   3.607   3.679  10.951 -0.8709 -0.5220  0.4630
  178SOPE  H12A20233   3.606   3.641  10.847 -1.2241  1.2765 -0.2286
  178SOPE  H12B20234   3.622   3.788  10.935 -1.7420 -0.7184 -2.3027
  178SOPE   C1120235   3.471   3.667  11.025 -0.1908 -0.5057  0.1470
  178SOPE  H11A20236   3.493   3.643  11.132  0.9974 -3.2183 -0.6165
  178SOPE  H11B20237   3.410   3.580  10.994  0.4918 -1.5198  1.5407
  178SOPE     P20238   3.307   3.812  10.884 -0.3049  0.3851  0.1083
  178SOPE   O1320239   3.344   3.942  10.823 -1.0724  0.2887 -0.3747
  178SOPE   O1420240   3.174   3.792  10.924  0.9941 -0.4157  0.3837
  178SOPE   O1220241   3.394   3.786  11.013  0.4158 -0.5775  0.9437
  178SOPE   O1120242   3.341   3.690  10.783  0.6588  0.0463  0.0685
  178SOPE    C120243   3.283   3.673  10.650  0.1387  0.1879 -0.5269
  178SOPE    HA20244   3.291   3.766  10.590 -0.0728  1.9388  1.9988
  178SOPE    HB20245   3.174   3.654  10.662  0.4773 -1.5295  0.1648
  178SOPE    C220246   3.354   3.545  10.581 -0.0182 -0.0193  0.3675
  178SOPE    HS20247   3.464   3.557  10.595  0.5423  0.8223 -3.5558
  178SOPE   O2120248   3.324   3.535  10.440 -0.0872 -0.3537 -0.4006
  178SOPE   C2120249   3.384   3.629  10.366  0.1098  0.5355  0.1268
  178SOPE   O2220250   3.460   3.714  10.405  0.1564 -0.3729  0.3043
  178SOPE   C2220251   3.354   3.600  10.225  0.5273  0.0345 -0.0162
  178SOPE   H2R20252   3.243   3.591  10.226  0.6120 -1.7159  2.1092
  178SOPE   H2S20253   3.401   3.506  10.190  0.0786  0.0117 -0.5678
  178SOPE    C320254   3.299   3.423  10.654 -0.8535  0.5595 -0.2371
  178SOPE    HX20255   3.189   3.417  10.646 -0.7577 -0.3739 -1.0683
  178SOPE    HY20256   3.309   3.443  10.762 -0.8574  2.0673 -0.4906
  178SOPE   O3120257   3.357   3.304  10.599 -0.3723  0.5217 -0.6829
  178SOPE   C3120258   3.473   3.258  10.642  0.7805 -0.9739  0.3709
  178SOPE   O3220259   3.538   3.305  10.735 -0.0870  0.2219  0.6787
  178SOPE   C3220260   3.506   3.132  10.559 -0.5242  0.4925  0.0482
  178SOPE   H2X20261   3.422   3.107  10.491 -1.6374 -0.4002  1.6804
  178SOPE   H2Y20262   3.516   3.058  10.641 -1.9929  1.4133  1.1141
  178SOPE   C2320263   3.399   3.714  10.128  0.0784  0.2337 -0.2639
  178SOPE   H3R20264   3.503   3.752  10.138  0.6365 -1.5688  1.5526
  178SOPE   H3S20265   3.342   3.806  10.151  0.2771  0.6645 -1.4271
  178SOPE   C2420266   3.378   3.682   9.979 -0.4165 -0.2061  0.1763
  178SOPE   H4R20267   3.415   3.766   9.916  1.2311 -1.2646 -0.3149
  178SOPE   H4S20268   3.449   3.598   9.968  1.5033  1.1603  1.5090
  178SOPE   C2520269   3.229   3.660   9.939  0.5876  0.5479 -0.3794
  178SOPE   H5R20270   3.204   3.564   9.988  2.5490  0.8881  1.4187
  178SOPE   H5S20271   3.162   3.738   9.982 -0.6732 -1.4242  1.4190
  178SOPE   C2620272   3.195   3.634   9.793  0.3638 -0.5057 -0.4001
  178SOPE   H6R20273   3.085   3.627   9.780  0.5019 -1.8510 -1.0347
  178SOPE   H6S20274   3.228   3.720   9.731  1.1535 -0.2610  0.3429
  178SOPE   C2720275   3.268   3.509   9.754 -0.0198 -0.0473  0.2474
  178SOPE   H7R20276   3.376   3.532   9.764 -0.5131  2.2379  0.9433
  178SOPE   H7S20277   3.242   3.431   9.829  4.0707 -0.7551  1.1333
  178SOPE   C2820278   3.247   3.464   9.608  0.2947 -0.2328 -0.3891
  178SOPE   H8R20279   3.277   3.359   9.586  0.1396 -0.1181 -1.1899
  178SOPE   H8S20280   3.138   3.473   9.591  0.4691  0.1638 -1.3602
  178SOPE   C2920281   3.318   3.539   9.504  0.3090  0.4464  0.5484
  178SOPE   H9120282   3.418   3.569   9.539 -0.9602  0.7253  4.4709
  178SOPE  C21020283   3.275   3.589   9.385  0.6513 -0.6885  0.7279
  178SOPE  H10120284   3.333   3.662   9.327 -0.8978  1.1252  1.3733
  178SOPE  C21120285   3.139   3.567   9.335 -0.3804  0.0279 -0.1197
  178SOPE  H11R20286   3.093   3.488   9.397 -0.7214  1.2389  1.2178
  178SOPE  H11S20287   3.138   3.527   9.232 -0.1820 -0.4328  0.0549
  178SOPE  C21220288   3.054   3.690   9.351 -0.0383 -0.5783 -0.1928
  178SOPE  H12R20289   3.099   3.772   9.291 -0.0349 -1.2134 -1.0705
  178SOPE  H12S20290   3.056   3.710   9.461  0.0198  1.6158 -0.5476
  178SOPE  C21320291   2.900   3.683   9.320  0.6742  0.4389  0.0706
  178SOPE  H13R20292   2.842   3.767   9.362 -0.6898 -0.8256  0.7712
  178SOPE  H13S20293   2.857   3.595   9.371  2.3846  0.0220  0.8800
  178SOPE  C21420294   2.875   3.672   9.169  0.4690 -0.1508 -0.6182
  178SOPE  H14R20295   2.764   3.683   9.164  0.6233  2.4982  0.0098
  178SOPE  H14S20296   2.917   3.576   9.132 -1.1857 -1.2623  0.2706
  178SOPE  C21520297   2.936   3.777   9.079  0.2972 -0.1031  1.2140
  178SOPE  H15R20298   3.045   3.758   9.065  0.5033  0.1804  2.3647
  178SOPE  H15S20299   2.924   3.881   9.116 -0.4023  0.2288  0.1257
  178SOPE  C21620300   2.878   3.789   8.934  0.0411  0.2227 -0.2915
  178SOPE  H16R20301   2.767   3.774   8.932  0.1933 -0.9580 -1.6276
  178SOPE  H16S20302   2.911   3.702   8.874 -1.6781 -1.7757  1.4854
  178SOPE  C21720303   2.913   3.910   8.858 -0.5619  0.2079 -0.7077
  178SOPE  H17R20304   2.946   3.992   8.925 -0.6929 -2.2609  2.6371
  178SOPE  H17S20305   2.824   3.945   8.802  0.9196  2.5802 -1.7558
  178SOPE  C21820306   3.028   3.890   8.752  0.6286  0.6316 -0.5064
  178SOPE  H18R20307   3.122   3.856   8.799  0.9631  0.9332 -0.9504
  178SOPE  H18S20308   3.042   3.982   8.691  1.2232  0.3725 -0.7650
  178SOPE  H18T20309   3.001   3.808   8.682  0.6308 -1.5123  1.8664
  178SOPE   C3320310   3.638   3.159  10.481  1.1438  0.2517  0.4997
  178SOPE   H3X20311   3.670   3.065  10.433 -1.9139 -2.3111  3.0286
  178SOPE   H3Y20312   3.717   3.194  10.550 -0.6140  2.5007  1.5379
  178SOPE   C3420313   3.619   3.251  10.360  0.2143 -1.2330  0.3315
  178SOPE   H4X20314   3.720   3.287  10.331  0.3656  0.1451  2.3566
  178SOPE   H4Y20315   3.563   3.345  10.376  3.5979  1.5272 -2.4857
  178SOPE   C3520316   3.552   3.179  10.235  0.6576 -0.5034 -0.9054
  178SOPE   H5X20317   3.441   3.172  10.243  0.5730 -1.5898 -2.4995
  178SOPE   H5Y20318   3.588   3.075  10.226  0.0102 -0.6966 -1.3320
  178SOPE   C3620319   3.589   3.269  10.118  0.3623 -0.5447 -0.0402
  178SOPE   H6X20320   3.697   3.290  10.129  0.2645  1.9277 -2.5387
  178SOPE   H6Y20321   3.529   3.363  10.123 -1.3098 -1.5114 -0.8745
  178SOPE   C3720322   3.578   3.210   9.982  0.2770 -0.1027  0.4685
  178SOPE   H7X20323   3.472   3.182   9.965  0.5291 -1.5924  1.2300
  178SOPE   H7Y20324   3.643   3.122   9.966 -1.1369 -1.4135  1.6456
  178SOPE   C3820325   3.611   3.305   9.869 -0.3231  0.5008 -0.3537
  178SOPE   H8X20326   3.713   3.342   9.891  0.8260 -0.6458 -3.2128
  178SOPE   H8Y20327   3.539   3.390   9.864 -0.8525  0.1587  1.0012
  178SOPE   C3920328   3.619   3.228   9.735 -0.3284 -0.2525  0.9264
  178SOPE   H9X20329   3.524   3.179   9.704 -0.4723  0.8172 -0.4353
  178SOPE   H9Y20330   3.696   3.147   9.738 -0.1095 -0.2876 -2.0330
  178SOPE  C31020331   3.659   3.330   9.624 -0.3325  0.3867 -0.2247
  178SOPE  H10X20332   3.752   3.380   9.659 -0.4642  2.0175 -2.0330
  178SOPE  H10Y20333   3.585   3.413   9.618  0.9127  1.4235 -2.8998
  178SOPE  C31120334   3.670   3.261   9.487 -0.5261 -0.9223 -0.1709
  178SOPE  H11X20335   3.569   3.233   9.451 -2.2905  1.4821  2.4715
  178SOPE  H11Y20336   3.732   3.169   9.496  1.6314  0.2324 -2.0909
  178SOPE  C31220337   3.728   3.357   9.374 -0.0231  0.2531  0.1407
  178SOPE  H12X20338   3.839   3.360   9.371 -0.0095 -0.6388 -0.6644
  178SOPE  H12Y20339   3.685   3.458   9.396  0.2056  0.1841  0.9502
  178SOPE  C31320340   3.689   3.314   9.230 -0.4198  0.0865 -0.3808
  178SOPE  H13X20341   3.580   3.302   9.211 -0.2036  0.4351 -2.0229
  178SOPE  H13Y20342   3.734   3.213   9.219  1.4255  0.8133  0.0346
  178SOPE  C31420343   3.745   3.411   9.122  0.8030  0.3501 -0.2088
  178SOPE  H14X20344   3.829   3.359   9.071  1.6594 -0.8749  2.3090
  178SOPE  H14Y20345   3.784   3.499   9.178 -0.3444  0.6988  0.0649
  178SOPE  C31520346   3.640   3.468   9.029  0.0454  0.5303 -0.1199
  178SOPE  H15X20347   3.576   3.381   9.003 -0.1930 -0.5187  3.4372
  178SOPE  H15Y20348   3.682   3.513   8.936  1.8563  3.7412  2.0485
  178SOPE  C31620349   3.537   3.561   9.089 -0.1341 -0.3512  0.2311
  178SOPE  H16X20350   3.582   3.644   9.148 -1.8315  0.1788  0.8279
  178SOPE  H16Y20351   3.476   3.495   9.153  2.1723 -2.3670  0.5042
  178SOPE  C31720352   3.453   3.613   8.975  0.4534 -0.2294  0.0587
  178SOPE  H17X20353   3.419   3.521   8.924  0.5375 -1.1628  1.6037
  178SOPE  H17Y20354   3.509   3.681   8.908 -1.4231  0.4749 -0.8723
  178SOPE  C31820355   3.333   3.695   9.006 -0.2711 -0.5633 -0.2796
  178SOPE  H18X20356   3.361   3.793   9.052 -2.5936  1.7308 -3.3272
  178SOPE  H18Y20357   3.264   3.638   9.071  0.0742 -0.0541  0.5657
  178SOPE  H18Z20358   3.273   3.721   8.917 -2.0126  0.6142  1.1570
  179SOPE     N20359   2.470   4.695   6.605 -0.8977 -0.7949 -0.0379
  179SOPE   HN120360   2.551   4.760   6.595 -0.4755 -0.4821  3.9298
  179SOPE   HN220361   2.503   4.606   6.564  1.6384 -0.4151  0.9948
  179SOPE   HN320362   2.406   4.746   6.541 -0.3376  1.8006  1.3045
  179SOPE   C1220363   2.432   4.697   6.750  0.7615 -0.0184  0.0476
  179SOPE  H12A20364   2.456   4.792   6.802  0.7381  0.0574 -0.0817
  179SOPE  H12B20365   2.496   4.621   6.801 -0.5308  0.4898  2.5764
  179SOPE   C1120366   2.276   4.677   6.761 -0.3625  0.3610  0.4203
  179SOPE  H11A20367   2.223   4.771   6.733 -1.2152  0.1535  1.3032
  179SOPE  H11B20368   2.250   4.662   6.868  0.0816  0.2540  0.5138
  179SOPE     P20369   2.101   4.511   6.646 -0.0744  0.1468  0.3681
  179SOPE   O1320370   2.107   4.362   6.659 -0.7389 -0.4510 -0.0351
  179SOPE   O1420371   2.054   4.556   6.513 -0.9808  0.3834  0.6226
  179SOPE   O1220372   2.242   4.574   6.666 -0.5169  0.4197  0.3501
  179SOPE   O1120373   2.019   4.577   6.756  0.1917 -0.3983 -0.3729
  179SOPE    C120374   1.889   4.520   6.792 -0.2930  0.3266 -0.6685
  179SOPE    HA20375   1.869   4.424   6.739 -2.0459  0.0059  0.4953
  179SOPE    HB20376   1.811   4.589   6.754 -1.8627 -0.7501  0.4856
  179SOPE    C220377   1.867   4.512   6.943  0.1517  0.5145  0.0970
  179SOPE    HS20378   1.776   4.451   6.961  0.2251  0.4195  0.1474
  179SOPE   O2120379   1.863   4.643   7.000 -0.1508  0.2421 -0.1641
  179SOPE   C2120380   1.748   4.677   7.060  0.1837  0.0577 -0.1494
  179SOPE   O2220381   1.647   4.610   7.073  0.9710 -0.3829 -0.1770
  179SOPE   C2220382   1.766   4.817   7.107  1.0205 -0.6417 -0.7659
  179SOPE   H2R20383   1.689   4.845   7.181 -1.3596  0.0669 -3.3461
  179SOPE   H2S20384   1.738   4.886   7.025 -0.8814  1.7836  1.7459
  179SOPE    C320385   1.983   4.434   7.017  0.0500  0.3958 -0.2679
  179SOPE    HX20386   2.080   4.488   7.017  0.2596  0.0192 -0.2360
  179SOPE    HY20387   2.008   4.337   6.970  1.0850  0.2372  0.5624
  179SOPE   O3120388   1.941   4.422   7.156  0.0122  0.2174 -0.2294
  179SOPE   C3120389   1.843   4.326   7.181  0.0855 -0.0223  0.3077
  179SOPE   O3220390   1.800   4.242   7.107 -0.5128 -0.7059  0.0409
  179SOPE   C3220391   1.796   4.353   7.324  0.2702 -0.3223 -0.3701
  179SOPE   H2X20392   1.686   4.366   7.318 -0.0399 -1.7655  1.3152
  179SOPE   H2Y20393   1.832   4.453   7.355 -0.8519 -0.1791  0.5285
  179SOPE   C2320394   1.908   4.842   7.162  0.4207 -0.1211 -0.0876
  179SOPE   H3R20395   1.923   4.948   7.192  0.7848  0.1088 -1.0735
  179SOPE   H3S20396   1.988   4.804   7.096 -0.5823 -0.5197 -1.1042
  179SOPE   C2420397   1.931   4.765   7.291 -0.4607  0.3163 -0.5197
  179SOPE   H4R20398   1.951   4.656   7.279  2.9007  0.5884  1.5009
  179SOPE   H4S20399   2.029   4.804   7.327 -1.0631  0.3116  1.2162
  179SOPE   C2520400   1.828   4.795   7.411 -0.0481  0.0880  0.4200
  179SOPE   H5R20401   1.810   4.905   7.415 -0.3153  0.1382 -1.3860
  179SOPE   H5S20402   1.726   4.771   7.375 -0.0139  0.6323 -0.0684
  179SOPE   C2620403   1.837   4.722   7.541 -0.2627  1.0644 -0.5118
  179SOPE   H6R20404   1.811   4.619   7.509 -0.7487  1.6491 -2.0966
  179SOPE   H6S20405   1.935   4.709   7.592 -1.0033 -0.6053  0.5993
  179SOPE   C2720406   1.723   4.767   7.632  1.2834 -0.2951 -0.2099
  179SOPE   H7R20407   1.739   4.876   7.641  1.1895 -0.2369 -0.7386
  179SOPE   H7S20408   1.629   4.741   7.578  2.1674 -1.0076 -1.4714
  179SOPE   C2820409   1.726   4.687   7.765 -0.4998 -0.4739  0.8116
  179SOPE   H8R20410   1.705   4.578   7.753  0.2069 -0.6373  0.9950
  179SOPE   H8S20411   1.830   4.688   7.803 -0.2107 -0.5484  0.0407
  179SOPE   C2920412   1.626   4.732   7.873  0.4824 -0.3354 -0.5102
  179SOPE   H9120413   1.541   4.799   7.854 -1.5191 -1.7197  2.7121
  179SOPE  C21020414   1.630   4.688   8.004 -0.2779  0.0782 -0.3387
  179SOPE  H10120415   1.563   4.726   8.082 -0.0422  0.5495 -0.3568
  179SOPE  C21120416   1.733   4.589   8.055 -0.7101  0.0130  0.2595
  179SOPE  H11R20417   1.799   4.535   7.983  0.8380  0.5694  1.2243
  179SOPE  H11S20418   1.680   4.506   8.106 -1.4102 -0.8984 -1.8169
  179SOPE  C21220419   1.822   4.668   8.150 -0.1389 -0.1553  0.2432
  179SOPE  H12R20420   1.875   4.748   8.094  2.3578 -1.0025  1.2347
  179SOPE  H12S20421   1.904   4.602   8.185  1.9647  2.8529  1.3440
  179SOPE  C21320422   1.752   4.716   8.279  0.0684  0.0534 -0.5404
  179SOPE  H13R20423   1.701   4.622   8.309 -0.6061  0.8346  0.8210
  179SOPE  H13S20424   1.681   4.796   8.250 -0.1129  0.4009  0.8020
  179SOPE  C21420425   1.843   4.771   8.386  1.0947 -0.3320 -0.2444
  179SOPE  H14R20426   1.878   4.872   8.354  1.9918 -0.8847 -1.0807
  179SOPE  H14S20427   1.935   4.709   8.393  1.2966 -0.2347 -1.6716
  179SOPE  C21520428   1.777   4.788   8.526 -0.0342 -0.1419  0.2022
  179SOPE  H15R20429   1.850   4.839   8.592 -1.2591 -0.1512  1.5964
  179SOPE  H15S20430   1.737   4.693   8.567 -2.4131  1.4647  1.8811
  179SOPE  C21620431   1.649   4.879   8.521 -0.9803 -0.4758  0.7852
  179SOPE  H16R20432   1.576   4.854   8.441 -0.9879  3.3334 -0.5969
  179SOPE  H16S20433   1.681   4.982   8.492  0.8651 -0.7844  1.5426
  179SOPE  C21720434   1.579   4.898   8.649  0.2126 -0.4002 -0.1103
  179SOPE  H17R20435   1.624   4.981   8.707  0.2146  1.3334 -2.4592
  179SOPE  H17S20436   1.594   4.803   8.705  0.3738  0.0441  0.6116
  179SOPE  C21820437   1.425   4.921   8.652 -0.5668 -0.2012  0.5001
  179SOPE  H18R20438   1.401   5.025   8.622 -1.4717 -1.0896 -2.1248
  179SOPE  H18S20439   1.388   4.895   8.753 -1.6483 -1.4720 -0.1975
  179SOPE  H18T20440   1.374   4.846   8.588 -1.0049 -1.3154  2.1015
  179SOPE   C3320441   1.804   4.232   7.421 -0.4699 -0.6327  0.1848
  179SOPE   H3X20442   1.883   4.165   7.380 -0.3041 -0.4624  0.2201
  179SOPE   H3Y20443   1.705   4.182   7.423 -1.3811  1.1109  1.7676
  179SOPE   C3420444   1.855   4.269   7.563  0.5901 -0.0242  0.5307
  179SOPE   H4X20445   1.776   4.328   7.615 -1.2610 -1.3991 -0.6154
  179SOPE   H4Y20446   1.951   4.325   7.573 -0.5766  1.9020  1.4185
  179SOPE   C3520447   1.877   4.134   7.629  0.1609 -0.0463 -0.4618
  179SOPE   H5X20448   1.942   4.068   7.567  1.9947 -1.2131  2.4789
  179SOPE   H5Y20449   1.779   4.087   7.653  1.0254 -3.4670 -2.7852
  179SOPE   C3620450   1.950   4.136   7.766  0.0114 -0.6379  0.3676
  179SOPE   H6X20451   2.042   4.197   7.754 -1.7556  2.4329  1.1402
  179SOPE   H6Y20452   1.975   4.033   7.800  0.4660 -0.2909  1.1022
  179SOPE   C3720453   1.860   4.202   7.875  0.0255  0.0016 -0.2794
  179SOPE   H7X20454   1.765   4.145   7.866  1.1154 -2.0323  0.5608
  179SOPE   H7Y20455   1.838   4.309   7.854  0.9796  0.6877  1.8799
  179SOPE   C3820456   1.909   4.158   8.018 -0.3115  0.0605 -0.1944
  179SOPE   H8X20457   2.016   4.187   8.019 -0.4324  0.5084  0.3050
  179SOPE   H8Y20458   1.897   4.048   8.025 -1.9111  0.3005  2.6067
  179SOPE   C3920459   1.847   4.230   8.133 -0.2863 -0.7588 -0.1521
  179SOPE   H9X20460   1.738   4.212   8.142 -0.5792  1.0861  0.3844
  179SOPE   H9Y20461   1.859   4.338   8.111 -2.0754 -0.7398 -1.2646
  179SOPE  C31020462   1.914   4.206   8.278  0.3325  0.2505  0.4544
  179SOPE  H10X20463   2.024   4.211   8.265  0.2931 -0.5374 -0.3670
  179SOPE  H10Y20464   1.896   4.098   8.299 -3.7462  0.5556 -0.5862
  179SOPE  C31120465   1.868   4.315   8.377 -0.9079 -0.4942  0.9864
  179SOPE  H11X20466   1.758   4.311   8.394 -1.0024 -0.9026  0.3119
  179SOPE  H11Y20467   1.877   4.417   8.334 -0.6622 -2.0236 -2.9394
  179SOPE  C31220468   1.942   4.311   8.504  0.3295 -0.4737  0.3797
  179SOPE  H12X20469   2.048   4.327   8.474  0.0258 -2.6691 -2.2578
  179SOPE  H12Y20470   1.926   4.210   8.546 -0.1345 -0.1472  1.0072
  179SOPE  C31320471   1.889   4.410   8.592 -0.2253 -0.1866 -0.4020
  179SOPE  H13X20472   1.783   4.385   8.617 -0.4170  0.3392 -0.6893
  179SOPE  H13Y20473   1.881   4.506   8.537 -1.4041 -0.0862 -0.0788
  179SOPE  C31420474   1.967   4.415   8.722 -0.3794  0.6720  0.0600
  179SOPE  H14X20475   2.075   4.430   8.702  0.5549 -0.8300  3.4151
  179SOPE  H14Y20476   1.969   4.324   8.785  1.9721  0.5231 -0.1363
  179SOPE  C31520477   1.927   4.538   8.810 -0.3633  0.4397  0.6261
  179SOPE  H15X20478   1.933   4.626   8.743  0.1831  0.8182  1.1600
  179SOPE  H15Y20479   2.009   4.550   8.885 -1.2167  2.4588  1.2912
  179SOPE  C31620480   1.793   4.538   8.886  0.3783  0.4458  0.2692
  179SOPE  H16X20481   1.788   4.457   8.962 -2.9557 -1.3170 -1.6463
  179SOPE  H16Y20482   1.719   4.516   8.807  2.1320  0.7315 -1.5318
  179SOPE  C31720483   1.759   4.668   8.959 -0.1834  0.0869 -0.2820
  179SOPE  H17X20484   1.673   4.662   9.030  0.4047 -2.1236  0.3370
  179SOPE  H17Y20485   1.731   4.735   8.875 -1.5952 -0.2228 -0.0966
  179SOPE  C31820486   1.872   4.723   9.045  0.2010 -0.2488 -0.1305
  179SOPE  H18X20487   1.944   4.781   8.984  0.3952  1.9988  2.0697
  179SOPE  H18Y20488   1.931   4.652   9.108  2.5888  1.9866  0.3133
  179SOPE  H18Z20489   1.835   4.801   9.116 -0.4733  0.1597 -0.9174
  180SOPE     N20490   0.020   4.548   6.203  0.6088  0.8634 -0.1535
  180SOPE   HN120491  -0.055   4.613   6.171 -0.7117 -1.1408 -1.3216
  180SOPE   HN220492   0.106   4.589   6.159  0.7092 -0.2215 -1.0010
  180SOPE   HN320493   0.000   4.460   6.152 -1.6068  0.8294  0.6864
  180SOPE   C1220494   0.011   4.516   6.353  0.1523 -0.5282  0.2348
  180SOPE  H12A20495  -0.094   4.485   6.366 -0.4758  1.6021  0.7486
  180SOPE  H12B20496   0.038   4.609   6.408  1.5707 -0.8488  0.1233
  180SOPE   C1120497   0.109   4.402   6.386 -0.0341 -0.1241 -0.0800
  180SOPE  H11A20498   0.097   4.368   6.491 -0.1848 -0.1446 -0.1039
  180SOPE  H11B20499   0.211   4.445   6.375  0.9993 -2.0498  1.4083
  180SOPE     P20500  -0.018   4.178   6.320 -0.1463  0.6517 -0.1385
  180SOPE   O1320501   0.015   4.058   6.238 -0.0927 -0.3768  0.0389
  180SOPE   O1420502  -0.151   4.240   6.310  0.6181 -0.2638  0.3174
  180SOPE   O1220503   0.097   4.291   6.298  0.4014  0.0543 -0.0729
  180SOPE   O1120504   0.003   4.138   6.470 -0.6442 -0.3472 -0.3852
  180SOPE    C120505   0.134   4.094   6.515 -0.9666 -0.1937  0.5700
  180SOPE    HA20506   0.197   4.176   6.554 -1.2684  0.6610 -0.6697
  180SOPE    HB20507   0.191   4.045   6.433 -2.2372 -0.4676 -0.1876
  180SOPE    C220508   0.118   3.987   6.623  0.1623  0.2344 -0.2027
  180SOPE    HS20509   0.049   3.908   6.586  0.5129 -1.2587  2.1434
  180SOPE   O2120510   0.079   4.048   6.747 -0.0138  0.3645 -0.2987
  180SOPE   C2120511   0.061   3.973   6.850  0.2614 -0.3618 -0.0629
  180SOPE   O2220512   0.044   3.848   6.843  0.4195  0.3118 -0.0279
  180SOPE   C2220513   0.061   4.055   6.982 -0.0903  0.6062 -0.4570
  180SOPE   H2R20514   0.106   4.153   6.956  1.7055 -0.8307 -3.2803
  180SOPE   H2S20515   0.144   3.998   7.028  0.9087  3.2108  1.1598
  180SOPE    C320516   0.254   3.914   6.645  0.2363  0.0767 -0.5923
  180SOPE    HX20517   0.280   3.858   6.552  1.3409  2.4936 -1.8375
  180SOPE    HY20518   0.245   3.833   6.720 -0.4513 -0.9951 -1.7932
  180SOPE   O3120519   0.375   4.005   6.673 -0.6740  0.6883 -0.0157
  180SOPE   C3120520   0.422   4.025   6.794 -0.4945 -0.8512 -0.3137
  180SOPE   O3220521   0.378   3.971   6.898  0.5360  0.7572  0.3710
  180SOPE   C3220522   0.542   4.115   6.790 -0.5665  1.0998 -0.0452
  180SOPE   H2X20523   0.613   4.067   6.720 -2.7143 -2.4127 -0.0885
  180SOPE   H2Y20524   0.605   4.116   6.881  0.9605 -2.1111 -0.9457
  180SOPE   C2320525  -0.066   4.041   7.068 -0.4775 -0.2258  0.3645
  180SOPE   H3R20526  -0.088   3.939   7.107  0.4230 -0.4914  0.2042
  180SOPE   H3S20527  -0.159   4.067   7.015  0.3812  1.4945 -0.3733
  180SOPE   C2420528  -0.063   4.129   7.192  0.1582  0.0824 -0.0109
  180SOPE   H4R20529  -0.002   4.085   7.274 -0.1020  0.9664  0.6688
  180SOPE   H4S20530  -0.020   4.230   7.180 -1.6029  0.6199 -2.6081
  180SOPE   C2520531  -0.208   4.157   7.236 -0.6866 -0.7368  0.2830
  180SOPE   H5R20532  -0.247   4.215   7.150 -1.0077 -0.6440  0.4872
  180SOPE   H5S20533  -0.260   4.060   7.245 -0.2421 -1.0471 -0.4237
  180SOPE   C2620534  -0.224   4.234   7.362 -0.6026 -0.2361  0.4735
  180SOPE   H6R20535  -0.190   4.176   7.450 -0.8900 -2.1346 -0.6096
  180SOPE   H6S20536  -0.178   4.336   7.365 -0.5342 -0.2424 -0.2019
  180SOPE   C2720537  -0.367   4.265   7.360  0.3648  0.2966 -0.8096
  180SOPE   H7R20538  -0.373   4.330   7.270  1.9286  1.4144 -0.1546
  180SOPE   H7S20539  -0.420   4.168   7.353  1.5956 -0.4587 -0.0618
  180SOPE   C2820540  -0.403   4.350   7.480 -0.3000 -0.4450 -0.1530
  180SOPE   H8R20541  -0.341   4.442   7.475  2.4600 -2.2288 -1.0267
  180SOPE   H8S20542  -0.508   4.382   7.462 -0.0167  1.0198  0.6352
  180SOPE   C2920543  -0.386   4.281   7.614  0.1491 -0.1963  0.5332
  180SOPE   H9120544  -0.437   4.185   7.633  1.8390 -1.2813 -0.2426
  180SOPE  C21020545  -0.315   4.324   7.719  0.1699  0.1235 -0.2568
  180SOPE  H10120546  -0.302   4.271   7.814  2.4708  1.5774  0.3276
  180SOPE  C21120547  -0.242   4.459   7.712 -0.1175  0.2722  0.7062
  180SOPE  H11R20548  -0.310   4.545   7.694  0.2372  0.3902 -0.1555
  180SOPE  H11S20549  -0.182   4.459   7.618 -1.7196 -2.3999 -0.4494
  180SOPE  C21220550  -0.149   4.488   7.832 -0.5188  0.5074  0.5486
  180SOPE  H12R20551  -0.067   4.555   7.800 -0.5820 -0.0569 -0.8770
  180SOPE  H12S20552  -0.100   4.393   7.863 -2.1084 -0.1624  1.1045
  180SOPE  C21320553  -0.231   4.543   7.949 -0.6550 -0.2924  0.4490
  180SOPE  H13R20554  -0.308   4.468   7.980 -1.2527  0.2501  0.2982
  180SOPE  H13S20555  -0.281   4.638   7.920  0.6606 -0.0784 -1.2416
  180SOPE  C21420556  -0.130   4.567   8.069  1.0959 -0.0581  0.2345
  180SOPE  H14R20557  -0.050   4.638   8.040  0.9709 -0.8366 -2.1895
  180SOPE  H14S20558  -0.085   4.467   8.086  3.8792  0.6290 -2.3684
  180SOPE  C21520559  -0.191   4.618   8.198 -0.3205 -0.2500 -0.2599
  180SOPE  H15R20560  -0.276   4.552   8.224 -0.6476 -0.2651 -1.2985
  180SOPE  H15S20561  -0.240   4.712   8.166 -1.6771 -0.6135  0.6935
  180SOPE  C21620562  -0.104   4.635   8.320 -0.2352 -0.1562  0.6899
  180SOPE  H16R20563  -0.053   4.734   8.318  0.9824 -0.7666  0.1128
  180SOPE  H16S20564  -0.025   4.558   8.308  2.1863  2.2026  0.2866
  180SOPE  C21720565  -0.181   4.626   8.446 -0.3609  0.0014 -0.3535
  180SOPE  H17R20566  -0.241   4.533   8.453  0.8021 -0.6722  1.0872
  180SOPE  H17S20567  -0.262   4.702   8.457 -0.1401  0.5566 -2.1707
  180SOPE  C21820568  -0.090   4.635   8.575  0.2812 -0.7522 -0.5364
  180SOPE  H18R20569  -0.148   4.634   8.670  0.7770  0.4278 -0.2065
  180SOPE  H18S20570  -0.029   4.727   8.572 -0.8566  0.0298 -0.2338
  180SOPE  H18T20571  -0.020   4.549   8.584  1.2642  0.1426  0.5617
  180SOPE   C3320572   0.505   4.256   6.743  0.1541 -0.0166  0.5206
  180SOPE   H3X20573   0.447   4.265   6.648  0.1453 -1.2902  0.3808
  180SOPE   H3Y20574   0.599   4.314   6.738 -0.1111  0.5016  1.3849
  180SOPE   C3420575   0.424   4.329   6.847  0.5955 -0.5244  0.0656
  180SOPE   H4X20576   0.321   4.286   6.845  0.6162 -0.6075 -2.1956
  180SOPE   H4Y20577   0.411   4.434   6.812 -5.3082 -0.6703  0.7134
  180SOPE   C3520578   0.485   4.322   6.985 -0.8341  0.1962  0.1527
  180SOPE   H5X20579   0.573   4.390   6.982 -1.5083  1.0694 -1.0090
  180SOPE   H5Y20580   0.525   4.224   7.016 -0.2721  0.3427 -0.0957
  180SOPE   C3620581   0.387   4.371   7.090  0.1728  0.5876 -0.0884
  180SOPE   H6X20582   0.309   4.293   7.075  1.8585 -1.0182 -0.8297
  180SOPE   H6Y20583   0.341   4.471   7.074  0.5498  0.3728 -3.0754
  180SOPE   C3720584   0.438   4.363   7.232  0.5560 -0.3044  0.1996
  180SOPE   H7X20585   0.356   4.404   7.295  1.3819  0.9048  0.5263
  180SOPE   H7Y20586   0.524   4.433   7.242 -0.6975  1.3082  0.3205
  180SOPE   C3820587   0.465   4.225   7.282 -0.1857  0.8922 -0.1804
  180SOPE   H8X20588   0.534   4.161   7.222 -1.6682 -1.1715  0.1848
  180SOPE   H8Y20589   0.364   4.179   7.295 -0.0208  0.3683 -0.6843
  180SOPE   C3920590   0.527   4.222   7.424 -0.6699  0.1687  0.5714
  180SOPE   H9X20591   0.632   4.255   7.409 -0.5173 -0.2914  0.6050
  180SOPE   H9Y20592   0.545   4.117   7.457  1.8656  0.6856  0.9980
  180SOPE  C31020593   0.453   4.305   7.526  0.0507 -0.1308 -0.0595
  180SOPE  H10X20594   0.345   4.279   7.520 -0.1825  0.6187  0.6859
  180SOPE  H10Y20595   0.452   4.413   7.500 -1.1373 -0.7930 -3.2490
  180SOPE  C31120596   0.513   4.299   7.668  0.0587 -0.1223 -0.7071
  180SOPE  H11X20597   0.453   4.364   7.735  3.3081  0.2310  2.2157
  180SOPE  H11Y20598   0.615   4.344   7.661  0.1164 -0.1632 -0.1907
  180SOPE  C31220599   0.519   4.156   7.735 -0.6312  0.1370  0.3691
  180SOPE  H12X20600   0.557   4.183   7.835 -1.2850  1.3607  0.3085
  180SOPE  H12Y20601   0.592   4.092   7.680 -0.2170  1.1218 -0.2514
  180SOPE  C31320602   0.375   4.084   7.752  0.0800 -0.2199  0.0779
  180SOPE  H13X20603   0.321   4.072   7.656  0.0613 -1.9709  0.2792
  180SOPE  H13Y20604   0.323   4.146   7.829  0.9927 -0.5341  0.9784
  180SOPE  C31420605   0.398   3.952   7.815 -0.0021  0.2878 -0.8383
  180SOPE  H14X20606   0.445   3.891   7.735  0.3063 -0.6148  0.0183
  180SOPE  H14Y20607   0.300   3.904   7.836  0.4214 -0.2532 -0.0277
  180SOPE  C31520608   0.478   3.944   7.948  0.4826 -0.2188  0.1439
  180SOPE  H15X20609   0.456   4.030   8.016 -0.4945  0.7551 -1.3389
  180SOPE  H15Y20610   0.587   3.956   7.927  0.8953  0.7312  2.4073
  180SOPE  C31620611   0.452   3.817   8.010  0.2268  0.7141 -0.1563
  180SOPE  H16X20612   0.460   3.732   7.938  1.3081  2.4836 -2.2464
  180SOPE  H16Y20613   0.347   3.812   8.046 -0.7675  0.1774 -2.8964
  180SOPE  C31720614   0.530   3.796   8.139 -0.1728  0.7731  0.0324
  180SOPE  H17X20615   0.637   3.824   8.130 -0.1871  1.9742  2.7261
  180SOPE  H17Y20616   0.530   3.686   8.154 -2.1325  0.6762 -0.3207
  180SOPE  C31820617   0.488   3.866   8.266  0.5435  0.4202 -0.1614
  180SOPE  H18X20618   0.561   3.840   8.346 -0.0431  0.9285  0.5520
  180SOPE  H18Y20619   0.390   3.832   8.306  0.9993 -0.3436  0.3284
  180SOPE  H18Z20620   0.484   3.973   8.238  0.8040  0.3239 -0.5748
  181SOPE     N20621   1.620   1.706   6.090  0.3221 -0.3341 -0.7383
  181SOPE   HN120622   1.678   1.631   6.133  1.6440  1.0895  0.0673
  181SOPE   HN220623   1.597   1.767   6.171  0.0161 -1.4612  0.0419
  181SOPE   HN320624   1.531   1.659   6.066 -0.3177 -0.4850  1.6596
  181SOPE   C1220625   1.702   1.794   5.995  0.3053 -0.3383 -0.0646
  181SOPE  H12A20626   1.633   1.857   5.934 -0.8883 -1.0230  0.5421
  181SOPE  H12B20627   1.773   1.735   5.933  1.5720 -0.8195  1.7596
  181SOPE   C1120628   1.801   1.881   6.077  0.5075 -0.3567  0.2128
  181SOPE  H11A20629   1.862   1.945   6.009  3.8896 -1.9915  1.4601
  181SOPE  H11B20630   1.880   1.815   6.120  1.1901 -0.9124 -1.7727
  181SOPE     P20631   1.739   1.939   6.329  0.0533 -0.2568  0.0226
  181SOPE   O1320632   1.707   1.795   6.351  0.4037  0.0504 -0.7073
  181SOPE   O1420633   1.641   2.036   6.380  0.0127  0.5530 -0.2058
  181SOPE   O1220634   1.743   1.965   6.172  0.5510 -0.5979  0.1223
  181SOPE   O1120635   1.890   1.977   6.372 -0.2638  0.1977 -0.1645
  181SOPE    C120636   1.965   1.868   6.426 -0.2345 -0.1949  0.2721
  181SOPE    HA20637   2.044   1.829   6.359  0.8707  0.7127  1.0109
  181SOPE    HB20638   1.900   1.787   6.467 -0.5795 -0.0721 -0.0220
  181SOPE    C220639   2.045   1.902   6.548 -1.1599  0.2544 -0.9629
  181SOPE    HS20640   2.059   1.808   6.607 -2.1817  1.5395  1.4772
  181SOPE   O2120641   1.990   2.003   6.630 -0.3019 -0.2573  0.0307
  181SOPE   C2120642   1.886   1.970   6.701  0.5714  0.1772 -0.1230
  181SOPE   O2220643   1.832   1.859   6.703 -0.4883  0.1242 -0.1500
  181SOPE   C2220644   1.859   2.078   6.799  0.4482 -0.0801  0.1497
  181SOPE   H2R20645   1.812   2.158   6.738 -2.0542 -2.0401 -0.6466
  181SOPE   H2S20646   1.953   2.120   6.841  0.7940  0.4580 -1.1115
  181SOPE    C320647   2.192   1.956   6.496  0.2627  0.0490 -0.5558
  181SOPE    HX20648   2.176   2.047   6.434  1.1446 -1.3419 -2.9531
  181SOPE    HY20649   2.244   1.883   6.431  1.1101 -1.2414  1.4677
  181SOPE   O3120650   2.284   1.985   6.604 -0.1998 -0.0035  0.1743
  181SOPE   C3120651   2.333   1.882   6.667  0.5157  0.6170 -0.2980
  181SOPE   O3220652   2.323   1.764   6.631 -0.4348  0.3387 -0.0255
  181SOPE   C3220653   2.392   1.923   6.799  0.4763 -0.1856  0.2879
  181SOPE   H2X20654   2.421   2.029   6.782 -1.1767  0.5329  1.5858
  181SOPE   H2Y20655   2.479   1.859   6.823 -0.2508 -0.5494  2.1659
  181SOPE   C2320656   1.776   2.024   6.912  0.1851 -0.4681  0.4162
  181SOPE   H3R20657   1.798   1.928   6.963 -0.8780 -0.9780 -0.0536
  181SOPE   H3S20658   1.677   1.994   6.871  0.6999  0.3363 -1.5470
  181SOPE   C2420659   1.759   2.134   7.020 -0.0634 -0.4360 -0.3676
  181SOPE   H4R20660   1.729   2.232   6.977  2.1043  0.7649  0.6600
  181SOPE   H4S20661   1.676   2.092   7.079  0.3409 -0.9165 -0.1304
  181SOPE   C2520662   1.883   2.150   7.118  0.0065  0.6124 -0.2798
  181SOPE   H5R20663   1.910   2.046   7.145  1.2386  0.6572 -1.2645
  181SOPE   H5S20664   1.972   2.197   7.070 -1.0938  2.3549 -0.7245
  181SOPE   C2620665   1.845   2.223   7.247 -0.3489  0.0312  0.4792
  181SOPE   H6R20666   1.911   2.311   7.262  1.1143 -1.1994  1.5606
  181SOPE   H6S20667   1.740   2.258   7.246 -0.3347  0.0616 -0.1187
  181SOPE   C2720668   1.848   2.121   7.365  0.0715 -0.0462  0.6182
  181SOPE   H7R20669   1.794   2.026   7.346  0.6698 -0.1715 -0.4997
  181SOPE   H7S20670   1.955   2.093   7.378 -0.0369 -0.5240  0.5194
  181SOPE   C2820671   1.776   2.176   7.483 -0.5234 -0.3951 -0.5343
  181SOPE   H8R20672   1.669   2.178   7.454 -0.7767 -0.4813  0.3531
  181SOPE   H8S20673   1.771   2.096   7.560 -1.6556 -0.3275 -0.5191
  181SOPE   C2920674   1.811   2.325   7.514  0.5469 -0.1380  0.5320
  181SOPE   H9120675   1.774   2.403   7.445  0.6729 -1.6045 -1.2678
  181SOPE  C21020676   1.879   2.355   7.622 -0.5859 -0.8688  0.5408
  181SOPE  H10120677   1.905   2.460   7.640  3.7733 -1.9197  1.5478
  181SOPE  C21120678   1.947   2.256   7.719 -0.0321  0.5728  0.0298
  181SOPE  H11R20679   2.057   2.261   7.704  0.1242  0.0792  0.9738
  181SOPE  H11S20680   1.928   2.152   7.685  2.7130 -0.0417  0.1490
  181SOPE  C21220681   1.897   2.266   7.859 -0.1367  0.1990 -0.0511
  181SOPE  H12R20682   1.932   2.171   7.906  0.9142  0.2792 -0.6557
  181SOPE  H12S20683   1.787   2.272   7.871 -0.6969  0.7861 -4.2687
  181SOPE  C21320684   1.972   2.365   7.948 -0.5193 -0.4441  0.0408
  181SOPE  H13R20685   1.939   2.469   7.924  0.5733 -0.5917 -2.4474
  181SOPE  H13S20686   2.082   2.355   7.936 -0.3459  1.9028 -0.8832
  181SOPE  C21420687   1.931   2.344   8.098  0.5785  0.0723  0.1369
  181SOPE  H14R20688   1.995   2.406   8.164 -0.5464  1.9232 -0.4334
  181SOPE  H14S20689   1.930   2.235   8.118 -0.8302 -0.2422 -1.3732
  181SOPE  C21520690   1.777   2.383   8.118 -0.2995 -0.7512 -0.7928
  181SOPE  H15R20691   1.715   2.318   8.054  0.7901 -2.7763  0.1211
  181SOPE  H15S20692   1.766   2.492   8.097 -3.3006 -0.8082 -0.0019
  181SOPE  C21620693   1.717   2.351   8.259  0.8317 -0.7865  0.0690
  181SOPE  H16R20694   1.781   2.385   8.344  2.6101 -2.7307 -0.3965
  181SOPE  H16S20695   1.686   2.245   8.260 -1.5288 -0.1576 -0.6392
  181SOPE  C21720696   1.586   2.422   8.275  0.2528 -0.1636  0.4784
  181SOPE  H17R20697   1.509   2.372   8.214 -0.5946  0.5380  0.9515
  181SOPE  H17S20698   1.592   2.524   8.232  1.4302  0.0214  1.0175
  181SOPE  C21820699   1.537   2.427   8.424  0.0058  0.0130  0.3286
  181SOPE  H18R20700   1.612   2.480   8.488  0.4729  1.6783 -1.5169
  181SOPE  H18S20701   1.528   2.326   8.470 -0.6120 -0.1231 -0.0779
  181SOPE  H18T20702   1.445   2.489   8.423 -0.1158 -0.1568  0.7789
  181SOPE   C3320703   2.294   1.929   6.921 -0.4287  0.7253 -0.0692
  181SOPE   H3X20704   2.241   1.831   6.916 -4.6986  2.8253 -0.5276
  181SOPE   H3Y20705   2.214   2.005   6.913 -1.3961 -0.2477  0.0777
  181SOPE   C3420706   2.366   1.941   7.057 -0.6553  0.2675  0.3616
  181SOPE   H4X20707   2.412   2.042   7.066 -1.5720  0.6438  0.9356
  181SOPE   H4Y20708   2.437   1.856   7.058 -1.1896 -0.2424 -1.3962
  181SOPE   C3520709   2.270   1.948   7.172  0.1583 -0.7132  0.3291
  181SOPE   H5X20710   2.185   1.879   7.157 -0.1635 -0.4880  1.0611
  181SOPE   H5Y20711   2.228   2.051   7.173 -1.0271 -1.1641  2.1576
  181SOPE   C3620712   2.326   1.923   7.306  0.0278 -0.0684 -0.7736
  181SOPE   H6X20713   2.430   1.961   7.314 -0.2890  1.3492 -2.6581
  181SOPE   H6Y20714   2.341   1.814   7.313 -0.5161 -0.2276 -1.9136
  181SOPE   C3720715   2.240   1.966   7.425  0.3546  0.1245  0.1828
  181SOPE   H7X20716   2.150   1.901   7.424  0.0584  0.5363  0.2355
  181SOPE   H7Y20717   2.220   2.073   7.403  1.5754  0.8322  2.2065
  181SOPE   C3820718   2.305   1.945   7.561 -0.2075  0.4933  0.1033
  181SOPE   H8X20719   2.381   2.023   7.582  0.1032  0.9794 -2.4025
  181SOPE   H8Y20720   2.364   1.851   7.559  1.5004  1.5386 -0.1977
  181SOPE   C3920721   2.201   1.938   7.677 -0.0337  0.0410 -0.4880
  181SOPE   H9X20722   2.130   1.864   7.635  0.0795  0.1132 -0.8102
  181SOPE   H9Y20723   2.162   2.041   7.687 -2.7032 -0.2087 -5.4289
  181SOPE  C31020724   2.265   1.880   7.803  0.2381  0.0904  0.6187
  181SOPE  H10X20725   2.366   1.926   7.815  0.4693 -0.4868  0.9306
  181SOPE  H10Y20726   2.282   1.772   7.783 -0.2913  0.3807 -1.6550
  181SOPE  C31120727   2.175   1.895   7.925 -0.2824  0.0580  0.1275
  181SOPE  H11X20728   2.201   1.815   7.996 -0.3074 -0.5818 -0.5697
  181SOPE  H11Y20729   2.072   1.878   7.887 -0.5446  2.8114 -0.6338
  181SOPE  C31220730   2.187   2.041   7.981  0.0113  0.5251 -0.4190
  181SOPE  H12X20731   2.101   2.076   8.042 -0.3985  1.3806 -1.4512
  181SOPE  H12Y20732   2.185   2.103   7.889 -1.2636  0.3331 -0.5413
  181SOPE  C31320733   2.310   2.066   8.067 -0.2318 -0.3460  0.4657
  181SOPE  H13X20734   2.308   2.174   8.093  1.9143 -0.5068  1.5074
  181SOPE  H13Y20735   2.401   2.043   8.008  0.4730  1.6275  0.6854
  181SOPE  C31420736   2.319   1.982   8.195 -0.8100  0.2533  0.0308
  181SOPE  H14X20737   2.418   2.009   8.237  0.0800  1.0955 -2.4168
  181SOPE  H14Y20738   2.323   1.876   8.163 -1.2427  0.0854  0.5072
  181SOPE  C31520739   2.215   2.004   8.305  0.0456  0.3078 -0.0192
  181SOPE  H15X20740   2.118   1.967   8.267 -0.6640 -0.6714  2.5935
  181SOPE  H15Y20741   2.192   2.112   8.312  2.2029  0.7065  2.1119
  181SOPE  C31620742   2.255   1.936   8.433 -0.0060 -0.1557 -0.1824
  181SOPE  H16X20743   2.366   1.936   8.436 -0.0122  0.7694  0.5250
  181SOPE  H16Y20744   2.220   1.831   8.428  1.3632 -0.5742 -1.6082
  181SOPE  C31720745   2.222   2.007   8.564  0.0197 -0.1593  0.3887
  181SOPE  H17X20746   2.237   2.115   8.542  2.8678 -0.7883 -1.3666
  181SOPE  H17Y20747   2.292   1.972   8.643 -0.0716  1.6676  1.3105
  181SOPE  C31820748   2.081   1.997   8.620 -0.7091  0.5207  0.0997
  181SOPE  H18X20749   2.076   1.902   8.678  1.2711 -0.1496 -0.7473
  181SOPE  H18Y20750   1.999   1.998   8.545 -0.2450  2.5111 -0.4393
  181SOPE  H18Z20751   2.064   2.075   8.697 -0.3582 -1.5648  2.4208
  182SOPE     N20752   1.919   4.562   6.275  0.4015  0.5689 -0.4290
  182SOPE   HN120753   1.988   4.562   6.352  2.5311 -1.6442 -2.1690
  182SOPE   HN220754   1.942   4.485   6.208 -0.4410  0.2223 -0.3377
  182SOPE   HN320755   1.915   4.652   6.223  0.3097  1.3935  0.9785
  182SOPE   C1220756   1.778   4.544   6.325 -0.8233 -0.8573 -0.1510
  182SOPE  H12A20757   1.704   4.557   6.244  0.3840 -1.3263 -1.3660
  182SOPE  H12B20758   1.775   4.621   6.405  1.1837 -0.9700  0.0877
  182SOPE   C1120759   1.765   4.404   6.399 -0.0765  0.4294 -0.1595
  182SOPE  H11A20760   1.665   4.400   6.448 -0.5840 -1.5347 -1.2616
  182SOPE  H11B20761   1.843   4.398   6.477 -0.6204 -3.5446  0.2743
  182SOPE     P20762   1.706   4.165   6.323 -0.0605  0.0335 -0.1839
  182SOPE   O1320763   1.798   4.047   6.335  0.1291 -0.3178  0.0530
  182SOPE   O1420764   1.620   4.169   6.198  0.1408  0.1032  0.0811
  182SOPE   O1220765   1.794   4.293   6.320  0.0309  0.1003  0.4516
  182SOPE   O1120766   1.620   4.161   6.459  0.4017  0.0696  0.5079
  182SOPE    C120767   1.477   4.134   6.446 -0.2159 -0.2578  0.0939
  182SOPE    HA20768   1.445   4.039   6.399 -4.6854  1.8170 -1.6576
  182SOPE    HB20769   1.432   4.215   6.385  0.8620 -0.8348 -1.5398
  182SOPE    C220770   1.403   4.137   6.581 -0.7143 -0.3528  0.0542
  182SOPE    HS20771   1.415   4.238   6.627 -0.7159 -0.0363 -0.6201
  182SOPE   O2120772   1.464   4.044   6.670  0.4432 -0.1350 -0.2033
  182SOPE   C2120773   1.450   3.916   6.657  0.0188 -0.1810 -0.0876
  182SOPE   O2220774   1.390   3.860   6.566 -0.0099  0.3873  0.1422
  182SOPE   C2220775   1.521   3.852   6.778 -0.3156 -0.1501  0.2229
  182SOPE   H2R20776   1.612   3.909   6.808 -1.4427  0.9175  1.7898
  182SOPE   H2S20777   1.551   3.751   6.743 -0.4894 -0.4037  0.7984
  182SOPE    C320778   1.250   4.117   6.564  0.7147 -0.1949  0.5754
  182SOPE    HX20779   1.234   4.018   6.516 -2.2759  0.7106 -0.4754
  182SOPE    HY20780   1.204   4.182   6.487 -1.3138 -1.3618  0.7372
  182SOPE   O3120781   1.178   4.127   6.687  0.0325  0.0126  0.2084
  182SOPE   C3120782   1.165   4.245   6.748 -0.3359 -0.2205  0.1416
  182SOPE   O3220783   1.197   4.352   6.697  0.0788 -0.2178  0.0113
  182SOPE   C3220784   1.117   4.218   6.891 -0.2876 -0.0217 -0.8127
  182SOPE   H2X20785   1.146   4.291   6.969  1.6500 -4.2601  2.8535
  182SOPE   H2Y20786   1.182   4.138   6.931 -0.1317  1.4905  2.2715
  182SOPE   C2320787   1.423   3.851   6.901  0.2083  0.8360 -0.0749
  182SOPE   H3R20788   1.352   3.770   6.877  1.2972  0.0709 -0.8155
  182SOPE   H3S20789   1.368   3.946   6.915  1.6799  1.6830  0.2483
  182SOPE   C2420790   1.500   3.830   7.031  0.5472  0.3139  0.2893
  182SOPE   H4R20791   1.565   3.742   7.014 -0.5792 -0.7960  1.4167
  182SOPE   H4S20792   1.565   3.916   7.059  5.0818 -2.1930 -1.5619
  182SOPE   C2520793   1.415   3.782   7.144  0.1060  0.1745 -0.6142
  182SOPE   H5R20794   1.343   3.861   7.176 -1.4355 -1.0017 -1.0488
  182SOPE   H5S20795   1.358   3.689   7.120  1.9984 -1.3685  0.5831
  182SOPE   C2620796   1.491   3.735   7.268  0.2466 -0.1258 -0.1406
  182SOPE   H6R20797   1.583   3.682   7.237 -0.1281  0.2865 -2.0459
  182SOPE   H6S20798   1.534   3.821   7.324  1.0236 -0.6062  0.0153
  182SOPE   C2720799   1.419   3.639   7.361 -0.0147 -0.9860 -0.4243
  182SOPE   H7R20800   1.376   3.556   7.300 -2.1020 -0.3428  0.0792
  182SOPE   H7S20801   1.497   3.606   7.433  0.1679 -0.5424 -0.4219
  182SOPE   C2820802   1.303   3.712   7.436 -0.6168 -0.1582  0.7941
  182SOPE   H8R20803   1.356   3.790   7.495  1.0684 -0.2149 -0.5464
  182SOPE   H8S20804   1.239   3.770   7.367  0.9555 -1.2892 -1.7757
  182SOPE   C2920805   1.208   3.624   7.519 -0.6194 -0.1147 -0.2774
  182SOPE   H9120806   1.117   3.597   7.463 -0.5835  0.0430 -0.4133
  182SOPE  C21020807   1.230   3.592   7.651 -0.4875 -0.0839  0.0066
  182SOPE  H10120808   1.182   3.505   7.698 -0.5732 -0.6421 -1.0951
  182SOPE  C21120809   1.339   3.645   7.741  0.2996 -0.3916 -0.0769
  182SOPE  H11R20810   1.321   3.746   7.783  0.6099 -0.1818 -0.4401
  182SOPE  H11S20811   1.432   3.655   7.682  0.6517  0.8401  0.6548
  182SOPE  C21220812   1.373   3.545   7.852 -0.3321  0.1040  0.5059
  182SOPE  H12R20813   1.479   3.567   7.875  0.1913  0.5100 -2.0270
  182SOPE  H12S20814   1.375   3.440   7.816 -1.6308  0.2120  0.0441
  182SOPE  C21320815   1.281   3.547   7.970 -0.6815  0.3551  0.2783
  182SOPE  H13R20816   1.177   3.517   7.943 -1.1235  1.9241  0.1757
  182SOPE  H13S20817   1.261   3.646   8.015 -2.7881 -0.4866  1.3774
  182SOPE  C21420818   1.334   3.452   8.078 -0.8601 -0.0339 -0.2107
  182SOPE  H14R20819   1.437   3.476   8.112 -1.0184  0.1008  0.1734
  182SOPE  H14S20820   1.327   3.353   8.027  1.4584 -0.1023 -0.5084
  182SOPE  C21520821   1.253   3.446   8.208  0.3960  0.3484 -0.5684
  182SOPE  H15R20822   1.147   3.415   8.191 -0.7704  2.3419  2.2210
  182SOPE  H15S20823   1.254   3.548   8.252 -1.3990  0.8628 -1.6167
  182SOPE  C21620824   1.311   3.335   8.304 -0.5648 -0.0528  0.0458
  182SOPE  H16R20825   1.419   3.359   8.316 -0.0652 -2.2776  0.4213
  182SOPE  H16S20826   1.314   3.241   8.246  1.5883  0.5733 -0.9424
  182SOPE  C21720827   1.249   3.337   8.447 -0.2357  0.2795 -0.6384
  182SOPE  H17R20828   1.297   3.257   8.508  0.7185  1.8880  0.8063
  182SOPE  H17S20829   1.142   3.307   8.444 -0.7662  1.8308  1.2653
  182SOPE  C21820830   1.261   3.470   8.524 -0.4680 -0.0152  0.6753
  182SOPE  H18R20831   1.228   3.454   8.629 -1.6808  1.2985  0.5344
  182SOPE  H18S20832   1.189   3.545   8.485 -0.0897  0.0053  0.0121
  182SOPE  H18T20833   1.364   3.511   8.518 -1.0680  1.5954  0.8911
  182SOPE   C3320834   0.966   4.199   6.916 -0.0383 -0.4694  0.5483
  182SOPE   H3X20835   0.937   4.159   7.016 -0.9495 -3.2391 -0.7447
  182SOPE   H3Y20836   0.940   4.122   6.841  1.0622 -1.4222  1.1038
  182SOPE   C3420837   0.887   4.329   6.898  0.1821 -0.2678  0.8554
  182SOPE   H4X20838   0.780   4.301   6.906  0.2944 -0.9205  0.1650
  182SOPE   H4Y20839   0.897   4.363   6.792  1.8922  1.6594  1.5566
  182SOPE   C3520840   0.920   4.448   6.991 -1.1354  0.1310 -0.1760
  182SOPE   H5X20841   0.868   4.532   6.940 -1.9386 -0.1976  0.0834
  182SOPE   H5Y20842   1.029   4.466   6.994 -1.0966 -0.2227  0.8567
  182SOPE   C3620843   0.862   4.424   7.133  0.5789 -0.4903  0.0379
  182SOPE   H6X20844   0.896   4.331   7.183 -1.8344 -0.5874  1.6508
  182SOPE   H6Y20845   0.756   4.399   7.113  0.8957 -1.1556 -0.9440
  182SOPE   C3720846   0.880   4.537   7.229 -0.1072 -0.0084  0.0639
  182SOPE   H7X20847   0.857   4.632   7.176 -0.0370 -0.8840 -1.5973
  182SOPE   H7Y20848   0.987   4.561   7.248 -0.9165  2.5849  1.9702
  182SOPE   C3820849   0.800   4.523   7.360  0.0394  0.1343 -0.3688
  182SOPE   H8X20850   0.808   4.412   7.368  1.7671  0.1666 -1.1202
  182SOPE   H8Y20851   0.692   4.544   7.346 -0.2344  0.9490  2.3159
  182SOPE   C3920852   0.868   4.591   7.475 -0.3523 -0.4599 -0.0272
  182SOPE   H9X20853   0.850   4.700   7.464 -3.6282 -0.7056  1.6218
  182SOPE   H9Y20854   0.979   4.584   7.464 -0.2716  1.9212 -1.3257
  182SOPE  C31020855   0.814   4.550   7.614  0.5424  0.1686  0.4509
  182SOPE  H10X20856   0.819   4.439   7.610 -0.5681  0.0668  1.7015
  182SOPE  H10Y20857   0.706   4.572   7.617  0.3357 -0.5367 -0.8117
  182SOPE  C31120858   0.885   4.617   7.735 -0.3214 -0.0593 -0.3244
  182SOPE  H11X20859   0.857   4.725   7.739  0.3746  0.1251 -0.3609
  182SOPE  H11Y20860   0.994   4.606   7.719 -0.1354  1.0635  0.0843
  182SOPE  C31220861   0.849   4.540   7.863 -0.6871 -0.0784  0.7011
  182SOPE  H12X20862   0.877   4.433   7.857 -0.1081  0.1445 -1.5369
  182SOPE  H12Y20863   0.739   4.532   7.873 -0.7238  0.2332  0.5665
  182SOPE  C31320864   0.907   4.611   7.979  0.0286  0.1914 -0.4888
  182SOPE  H13X20865   0.851   4.707   7.971 -3.9438 -1.6669  1.6063
  182SOPE  H13Y20866   1.016   4.629   7.982 -0.2974  2.5129 -0.7261
  182SOPE  C31420867   0.859   4.549   8.116 -0.3830  0.4785  0.7392
  182SOPE  H14X20868   0.895   4.445   8.130 -1.0299  0.4064  2.0119
  182SOPE  H14Y20869   0.750   4.531   8.109 -0.2970  0.2994 -0.1487
  182SOPE  C31520870   0.892   4.637   8.243 -0.1390  0.1804  0.5560
  182SOPE  H15X20871   0.865   4.736   8.201  1.6984 -0.1500 -1.6186
  182SOPE  H15Y20872   1.001   4.645   8.260  0.0526  2.9985 -1.2666
  182SOPE  C31620873   0.811   4.617   8.371 -0.1146 -0.7006  0.2159
  182SOPE  H16X20874   0.702   4.633   8.355  0.2022  1.6452  0.0509
  182SOPE  H16Y20875   0.838   4.690   8.450  0.7935 -0.8942  0.0880
  182SOPE  C31720876   0.837   4.477   8.439  0.0684  0.3379  0.1419
  182SOPE  H17X20877   0.946   4.455   8.437  0.1528  0.6229  1.2348
  182SOPE  H17Y20878   0.781   4.395   8.389  0.9205 -0.5794  0.6565
  182SOPE  C31820879   0.775   4.470   8.581  0.0977 -0.0216 -0.2659
  182SOPE  H18X20880   0.666   4.483   8.561  0.4310  0.0885 -2.2078
  182SOPE  H18Y20881   0.819   4.550   8.644 -1.1610  1.3978 -1.1135
  182SOPE  H18Z20882   0.780   4.374   8.637  0.5808  0.8168  1.1797
  183SOPE     N20883   3.799   0.956   6.114 -0.0387  0.1819 -0.2821
  183SOPE   HN120884   3.840   1.013   6.037  0.3107  1.1557  0.6113
  183SOPE   HN220885   3.866   0.957   6.193  1.1295  0.3713 -1.2563
  183SOPE   HN320886   3.771   0.858   6.090 -2.3977  0.4844  0.9298
  183SOPE   C1220887   3.670   1.020   6.145  0.1068 -0.2537  0.1042
  183SOPE  H12A20888   3.599   0.994   6.065 -0.0715  1.1061 -0.2042
  183SOPE  H12B20889   3.688   1.129   6.131  0.7916 -0.4052 -0.2512
  183SOPE   C1120890   3.620   0.988   6.287  0.2271  0.0610 -0.0504
  183SOPE  H11A20891   3.525   1.041   6.313  0.1752 -1.3226  2.9693
  183SOPE  H11B20892   3.693   1.019   6.364 -0.7708 -1.5817  1.6561
  183SOPE     P20893   3.674   0.751   6.398  0.1228  0.0958  0.2983
  183SOPE   O1320894   3.812   0.803   6.409 -0.2041 -0.2831  0.2859
  183SOPE   O1420895   3.650   0.616   6.345  0.4308  0.2733 -0.8423
  183SOPE   O1220896   3.599   0.846   6.301  0.1244 -0.5981  0.4323
  183SOPE   O1120897   3.598   0.766   6.539  0.0355 -0.0475  0.0457
  183SOPE    C120898   3.457   0.801   6.560 -1.1746 -0.2385  0.3806
  183SOPE    HA20899   3.401   0.705   6.563 -0.5270 -0.5977  2.5484
  183SOPE    HB20900   3.423   0.869   6.479  0.1955  0.7357  0.5853
  183SOPE    C220901   3.452   0.859   6.702  0.2221  0.1153 -0.0568
  183SOPE    HS20902   3.353   0.905   6.722 -0.2499 -0.4948 -0.9191
  183SOPE   O2120903   3.554   0.959   6.720 -0.1079 -0.6459 -0.0206
  183SOPE   C2120904   3.534   1.072   6.659 -0.3440  0.2023 -0.0060
  183SOPE   O2220905   3.456   1.094   6.571 -0.1768  0.2050  0.3884
  183SOPE   C2220906   3.638   1.169   6.706  0.0548 -0.4822  0.1748
  183SOPE   H2R20907   3.663   1.239   6.623 -1.3080 -0.7024 -0.4397
  183SOPE   H2S20908   3.727   1.112   6.742 -1.7902 -2.1119  2.4286
  183SOPE    C320909   3.453   0.747   6.805 -0.2672 -0.2523 -0.0369
  183SOPE    HX20910   3.531   0.672   6.780 -0.2425 -1.0381  2.1292
  183SOPE    HY20911   3.354   0.697   6.797 -0.6261  0.2849  0.8788
  183SOPE   O3120912   3.467   0.796   6.938 -0.2578 -0.4160  0.4050
  183SOPE   C3120913   3.588   0.794   6.995 -0.7166 -0.5340 -0.8786
  183SOPE   O3220914   3.692   0.753   6.943  0.2924 -0.1081  0.5457
  183SOPE   C3220915   3.574   0.859   7.132  0.5521  0.4824 -0.0101
  183SOPE   H2X20916   3.513   0.952   7.126  3.0085  2.2514  0.8490
  183SOPE   H2Y20917   3.674   0.892   7.168  0.9553 -1.7663  1.1518
  183SOPE   C2320918   3.580   1.257   6.815  0.1562  0.0947 -0.4481
  183SOPE   H3R20919   3.482   1.300   6.789 -0.1069 -0.5648 -0.5734
  183SOPE   H3S20920   3.643   1.348   6.822 -1.6270  1.3793 -0.5035
  183SOPE   C2420921   3.589   1.195   6.954  0.3429 -0.3443 -0.6901
  183SOPE   H4R20922   3.516   1.111   6.953 -2.1414  1.5744  1.9167
  183SOPE   H4S20923   3.687   1.145   6.973  0.3380 -1.1602 -2.5768
  183SOPE   C2520924   3.553   1.290   7.068 -0.8695  0.5313  0.3007
  183SOPE   H5R20925   3.626   1.374   7.068 -0.0741  0.0782 -4.1822
  183SOPE   H5S20926   3.454   1.333   7.044 -1.2440  0.0115  0.8787
  183SOPE   C2620927   3.560   1.223   7.204  0.0595  0.3730 -0.6441
  183SOPE   H6R20928   3.487   1.139   7.202  1.6007 -1.0135 -0.7480
  183SOPE   H6S20929   3.660   1.182   7.232 -1.3526 -1.8088  1.6851
  183SOPE   C2720930   3.518   1.322   7.316  0.1102 -0.0258  0.1184
  183SOPE   H7R20931   3.574   1.417   7.299  2.1949 -1.5506 -2.2229
  183SOPE   H7S20932   3.409   1.335   7.305  0.2810  0.7308 -0.8018
  183SOPE   C2820933   3.555   1.269   7.456 -0.4057  0.7638 -0.0269
  183SOPE   H8R20934   3.512   1.167   7.472 -0.0933  0.6261 -0.0480
  183SOPE   H8S20935   3.665   1.258   7.448 -0.7867 -3.0105 -3.1232
  183SOPE   C2920936   3.515   1.350   7.569  0.5530  0.1726  0.2476
  183SOPE   H9120937   3.456   1.441   7.548  1.6530  1.0593  0.9030
  183SOPE  C21020938   3.550   1.321   7.691  0.3788  0.4668  0.0068
  183SOPE  H10120939   3.527   1.379   7.782  3.8720  1.0052  0.6690
  183SOPE  C21120940   3.629   1.203   7.735 -0.2887 -0.6314 -0.2587
  183SOPE  H11R20941   3.730   1.237   7.765 -0.6746 -0.1530  0.5052
  183SOPE  H11S20942   3.662   1.131   7.656  1.3348  1.7721 -1.9370
  183SOPE  C21220943   3.591   1.128   7.860  0.5063 -0.9530  0.4345
  183SOPE  H12R20944   3.666   1.048   7.879  1.3469 -0.3229 -0.1189
  183SOPE  H12S20945   3.488   1.087   7.854  0.5098 -1.0276  0.8586
  183SOPE  C21320946   3.590   1.204   7.992 -0.3794  0.5182 -0.1780
  183SOPE  H13R20947   3.509   1.279   8.005 -0.1098  0.7430  0.2461
  183SOPE  H13S20948   3.680   1.268   8.009  0.5514 -1.2491  2.0682
  183SOPE  C21420949   3.582   1.104   8.111  0.7502 -0.2341 -0.3921
  183SOPE  H14R20950   3.676   1.047   8.100  0.1851 -0.9864 -1.6141
  183SOPE  H14S20951   3.497   1.037   8.085  0.7754 -0.7898  0.8628
  183SOPE  C21520952   3.562   1.171   8.249 -0.1155 -0.0140 -0.5972
  183SOPE  H15R20953   3.479   1.244   8.235 -2.3047 -2.0963  0.6020
  183SOPE  H15S20954   3.654   1.226   8.275 -0.6461  0.2398  0.8256
  183SOPE  C21620955   3.533   1.069   8.365  0.2752  0.2436 -0.2868
  183SOPE  H16R20956   3.630   1.018   8.387  1.6035  2.2381 -1.2033
  183SOPE  H16S20957   3.471   0.996   8.309 -3.0557  1.3162  1.7436
  183SOPE  C21720958   3.468   1.121   8.496 -0.3736 -1.2069 -0.2652
  183SOPE  H17R20959   3.360   1.138   8.477 -0.0842  1.9478  0.3308
  183SOPE  H17S20960   3.508   1.222   8.522  0.1782 -1.4323 -0.2245
  183SOPE  C21820961   3.488   1.033   8.611  0.0272  0.3231  0.0066
  183SOPE  H18R20962   3.437   0.935   8.601  1.0600 -0.1862 -0.3112
  183SOPE  H18S20963   3.456   1.084   8.704 -1.4262 -0.5365  0.0156
  183SOPE  H18T20964   3.598   1.024   8.618  0.2566  2.8507  0.6446
  183SOPE   C3320965   3.518   0.776   7.244  0.0187  1.5701 -0.1919
  183SOPE   H3X20966   3.595   0.698   7.262  0.1064  1.8712  0.8165
  183SOPE   H3Y20967   3.422   0.721   7.231  0.7728 -0.0794  0.7954
  183SOPE   C3420968   3.509   0.852   7.379 -0.0968  0.2646 -0.0534
  183SOPE   H4X20969   3.430   0.930   7.374  2.2747  2.8272 -0.7858
  183SOPE   H4Y20970   3.603   0.906   7.405  0.4685 -0.8801  0.3296
  183SOPE   C3520971   3.494   0.744   7.486  0.5882 -0.4268 -0.4457
  183SOPE   H5X20972   3.592   0.693   7.501  0.9122  0.5818  1.1400
  183SOPE   H5Y20973   3.419   0.665   7.466  0.9553 -1.5314  2.1517
  183SOPE   C3620974   3.465   0.814   7.620  0.5222 -0.3825 -0.0021
  183SOPE   H6X20975   3.364   0.858   7.613  0.7227  0.2266  0.7612
  183SOPE   H6Y20976   3.534   0.901   7.624  0.9148 -0.6980  0.2361
  183SOPE   C3720977   3.492   0.719   7.735  0.0406 -0.0019 -0.7648
  183SOPE   H7X20978   3.601   0.695   7.732  0.0923  0.1315 -0.0591
  183SOPE   H7Y20979   3.432   0.627   7.717  0.3660 -0.7537  1.5712
  183SOPE   C3820980   3.454   0.769   7.872  0.3839 -0.4659  0.4679
  183SOPE   H8X20981   3.348   0.801   7.863 -0.1850 -2.1782  0.6475
  183SOPE   H8Y20982   3.519   0.855   7.896  1.6793 -0.2980 -3.0696
  183SOPE   C3920983   3.464   0.667   7.981 -0.1069 -0.3774 -0.4584
  183SOPE   H9X20984   3.572   0.644   7.996  0.0392  0.0940 -0.7782
  183SOPE   H9Y20985   3.403   0.578   7.953  1.0349 -1.2829 -0.1511
  183SOPE  C31020986   3.415   0.714   8.123 -0.1982  0.3111  0.1753
  183SOPE  H10X20987   3.312   0.757   8.119 -0.2655  0.1145 -0.2352
  183SOPE  H10Y20988   3.490   0.786   8.163 -0.0950 -0.3131  1.1437
  183SOPE  C31120989   3.415   0.604   8.225 -0.5620  0.2188 -0.6192
  183SOPE  H11X20990   3.507   0.542   8.217 -0.6349 -0.3467  2.0384
  183SOPE  H11Y20991   3.331   0.533   8.213 -0.0455 -0.3725 -0.8059
  183SOPE  C31220992   3.416   0.660   8.370  0.3442 -0.0849 -0.7027
  183SOPE  H12X20993   3.314   0.704   8.382  0.9980  1.0405  1.0627
  183SOPE  H12Y20994   3.485   0.747   8.378  0.1928  0.2694 -2.7736
  183SOPE  C31320995   3.446   0.555   8.481  0.5057 -0.1194  0.9231
  183SOPE  H13X20996   3.479   0.611   8.571  0.5975  0.9803  0.2184
  183SOPE  H13Y20997   3.534   0.492   8.452  1.2241  1.5088 -0.5904
  183SOPE  C31420998   3.321   0.474   8.508 -1.0613 -0.2321  0.8806
  183SOPE  H14X20999   3.345   0.370   8.539 -2.8152 -1.1119 -0.5297
  183SOPE  H14Y21000   3.264   0.460   8.413  0.9837  1.9966 -0.7790
  183SOPE  C31521001   3.233   0.536   8.614 -0.6347  0.3979  0.8875
  183SOPE  H15X21002   3.190   0.631   8.574 -2.1680 -1.2742 -1.6589
  183SOPE  H15Y21003   3.288   0.571   8.704 -0.5842  1.5350  0.4291
  183SOPE  C31621004   3.117   0.441   8.655 -0.7571  0.4176  0.1327
  183SOPE  H16X21005   3.048   0.496   8.723  0.4062  3.2857 -0.8561
  183SOPE  H16Y21006   3.147   0.356   8.720 -0.5514 -0.3470 -0.9513
  183SOPE  C31721007   3.037   0.383   8.534  0.4612  0.1781  0.2058
  183SOPE  H17X21008   2.981   0.296   8.574  1.0250  0.2018  1.0818
  183SOPE  H17Y21009   3.102   0.344   8.452  0.6505 -0.2099  0.5355
  183SOPE  C31821010   2.941   0.486   8.479  0.1134  0.1582  0.7449
  183SOPE  H18X21011   2.891   0.446   8.388  1.9117  0.6611 -0.5195
  183SOPE  H18Y21012   2.992   0.583   8.459 -2.5486  1.8890  1.6649
  183SOPE  H18Z21013   2.863   0.524   8.549  0.5996 -1.8797  2.5016
  184SOPE     N21014   4.765   0.962   6.249 -0.3519  0.0250  0.0431
  184SOPE   HN121015   4.857   0.915   6.248  0.1741  0.9843  0.9992
  184SOPE   HN221016   4.710   0.919   6.326 -0.8309  1.7067  0.6874
  184SOPE   HN321017   4.718   0.941   6.158  0.5088  2.7494 -1.1603
  184SOPE   C1221018   4.763   1.113   6.277  0.4240  0.2788  0.5443
  184SOPE  H12A21019   4.865   1.141   6.245  0.2098  0.7471  0.2642
  184SOPE  H12B21020   4.773   1.116   6.388  1.1497 -0.0806  0.4905
  184SOPE   C1121021   4.638   1.185   6.223 -0.0540  0.2602 -0.7350
  184SOPE  H11A21022   4.633   1.196   6.112 -2.3535 -1.4310 -0.8649
  184SOPE  H11B21023   4.619   1.285   6.267 -2.4757  0.1481 -1.4020
  184SOPE     P21024   4.400   1.129   6.323  0.6845 -0.4599  0.3523
  184SOPE   O1321025   4.317   1.012   6.327 -0.0990 -0.4591  0.1290
  184SOPE   O1421026   4.339   1.243   6.246 -0.3179 -0.2257 -0.0131
  184SOPE   O1221027   4.529   1.091   6.254  0.1684 -0.9852 -0.3036
  184SOPE   O1121028   4.432   1.166   6.469  0.3128 -0.1441 -0.3279
  184SOPE    C121029   4.454   1.057   6.563  0.1304  0.4564  0.2456
  184SOPE    HA21030   4.547   1.075   6.620  0.1048 -2.0709  1.2161
  184SOPE    HB21031   4.471   0.958   6.516  0.2698  0.8376 -0.5284
  184SOPE    C221032   4.345   1.051   6.673 -0.3798 -0.0105 -0.6785
  184SOPE    HS21033   4.258   1.027   6.607 -1.1969 -0.0300  0.3790
  184SOPE   O2121034   4.330   1.177   6.740  0.1162  0.1970 -0.4611
  184SOPE   C2121035   4.205   1.206   6.769  0.1841  0.8719  0.1068
  184SOPE   O2221036   4.105   1.146   6.746  1.1852 -0.1762 -0.2602
  184SOPE   C2221037   4.202   1.331   6.845  0.4305  0.4735  0.3251
  184SOPE   H2R21038   4.276   1.392   6.789 -0.8212  1.3158 -0.4370
  184SOPE   H2S21039   4.242   1.309   6.946 -0.1896 -0.3102  0.4068
  184SOPE    C321040   4.368   0.932   6.776 -0.7769 -0.1234  0.3198
  184SOPE    HX21041   4.466   0.961   6.820 -0.4655  0.4036 -0.6804
  184SOPE    HY21042   4.382   0.843   6.710  2.8277  1.9485 -2.0650
  184SOPE   O3121043   4.272   0.935   6.884 -0.0350  0.4623  0.1005
  184SOPE   C3121044   4.155   0.876   6.859  0.3673  0.3501  1.0024
  184SOPE   O3221045   4.120   0.834   6.749  0.6962  0.2262 -0.3327
  184SOPE   C3221046   4.063   0.867   6.981  0.2478  0.0120 -0.1816
  184SOPE   H2X21047   4.097   0.789   7.052  1.2313  0.0090 -0.6330
  184SOPE   H2Y21048   3.965   0.837   6.939  1.0890 -2.9653 -0.2134
  184SOPE   C2321049   4.061   1.395   6.864  0.0593 -0.3351 -0.0642
  184SOPE   H3R21050   3.998   1.341   6.938  1.1356  0.3233  1.3788
  184SOPE   H3S21051   4.005   1.405   6.769 -1.9943  2.9143  1.3230
  184SOPE   C2421052   4.078   1.542   6.911  0.6025  0.5202  0.0120
  184SOPE   H4R21053   4.132   1.605   6.837 -0.9752  0.0983 -1.5744
  184SOPE   H4S21054   3.976   1.586   6.921  1.0343  1.9944 -1.4391
  184SOPE   C2521055   4.156   1.565   7.039  0.1535 -0.5906  0.4887
  184SOPE   H5R21056   4.263   1.549   7.015 -0.0069 -0.1282 -0.6055
  184SOPE   H5S21057   4.133   1.669   7.072  1.5249 -0.8243  2.3281
  184SOPE   C2621058   4.106   1.482   7.150 -0.5859 -0.4669 -0.4473
  184SOPE   H6R21059   3.995   1.495   7.156 -0.4770  0.1374  0.5549
  184SOPE   H6S21060   4.113   1.371   7.144  0.7833 -0.3559 -1.1489
  184SOPE   C2721061   4.177   1.509   7.283  1.4894 -0.5571 -0.0319
  184SOPE   H7R21062   4.255   1.430   7.293 -0.8079 -3.2710 -1.8920
  184SOPE   H7S21063   4.220   1.611   7.278  2.1340 -0.7310  1.5889
  184SOPE   C2821064   4.081   1.523   7.408  0.0782  0.6157 -0.0691
  184SOPE   H8R21065   4.144   1.562   7.491 -0.2221 -1.7979  1.3650
  184SOPE   H8S21066   4.018   1.615   7.406  0.2956  0.9838  3.4414
  184SOPE   C2921067   4.018   1.388   7.443 -0.0895 -0.2344 -0.3039
  184SOPE   H9121068   3.978   1.344   7.350 -2.2775  1.4507 -0.2457
  184SOPE  C21021069   4.023   1.313   7.557 -0.4246  0.0754  0.0178
  184SOPE  H10121070   3.987   1.209   7.562  1.0813 -0.6961 -2.8045
  184SOPE  C21121071   4.092   1.348   7.688  0.0096 -0.1630 -0.4159
  184SOPE  H11R21072   4.096   1.457   7.707  1.3623 -0.3026  0.2110
  184SOPE  H11S21073   4.200   1.328   7.673  0.4192 -0.0932  2.0349
  184SOPE  C21221074   4.036   1.276   7.808  0.4016  0.4013  0.3995
  184SOPE  H12R21075   4.025   1.167   7.790 -1.4800  0.7233 -0.7530
  184SOPE  H12S21076   3.927   1.299   7.807  0.3168  0.0077  0.3034
  184SOPE  C21321077   4.100   1.296   7.947 -0.3506 -0.5070 -0.2722
  184SOPE  H13R21078   4.104   1.404   7.971  0.5632 -0.5680 -0.1157
  184SOPE  H13S21079   4.202   1.252   7.937 -1.4530 -3.1760 -0.5275
  184SOPE  C21421080   4.021   1.219   8.055 -0.3237  0.5901 -0.0460
  184SOPE  H14R21081   4.025   1.115   8.017  0.1104  1.0263 -1.2329
  184SOPE  H14S21082   3.914   1.249   8.050 -0.2383  0.7897 -0.7259
  184SOPE  C21521083   4.074   1.237   8.200  0.4110 -0.4074 -0.8887
  184SOPE  H15R21084   4.119   1.338   8.211  0.7699 -0.5865 -0.6837
  184SOPE  H15S21085   4.154   1.162   8.217  0.5043 -0.2792 -0.7528
  184SOPE  C21621086   3.961   1.227   8.309 -0.0376  0.1639  0.3966
  184SOPE  H16R21087   3.924   1.123   8.293 -0.6637  0.2774  1.0479
  184SOPE  H16S21088   3.896   1.312   8.282 -0.0152  0.1260  0.2213
  184SOPE  C21721089   4.021   1.232   8.441 -0.1183 -0.1582 -0.5097
  184SOPE  H17R21090   4.079   1.327   8.448 -2.9795  1.6498  0.3587
  184SOPE  H17S21091   4.098   1.151   8.442  0.4983  0.4114  0.3928
  184SOPE  C21821092   3.922   1.220   8.565 -0.1292 -0.2425  0.2961
  184SOPE  H18R21093   3.851   1.135   8.556 -1.4943  0.9289 -0.3845
  184SOPE  H18S21094   3.858   1.309   8.578  1.1939  0.3824  3.1265
  184SOPE  H18T21095   3.983   1.222   8.658 -0.9648  1.3568  0.8366
  184SOPE   C3321096   4.058   1.004   7.057  0.4365 -0.0201 -0.1392
  184SOPE   H3X21097   4.015   1.073   6.980 -0.9090  0.0393  0.6335
  184SOPE   H3Y21098   4.157   1.037   7.095 -0.3786 -0.0624  2.1980
  184SOPE   C3421099   3.956   0.991   7.181 -0.5860  0.0731  0.0844
  184SOPE   H4X21100   3.868   0.938   7.139  0.3902  0.6742 -2.9788
  184SOPE   H4Y21101   3.931   1.097   7.205  0.9337  0.3537  0.5484
  184SOPE   C3521102   4.017   0.914   7.294  0.1139  0.1652  0.1366
  184SOPE   H5X21103   4.119   0.957   7.298  0.3625 -0.0888 -2.1688
  184SOPE   H5Y21104   4.020   0.809   7.257 -1.2230  0.0564  0.2636
  184SOPE   C3621105   3.932   0.915   7.425  0.0556  0.2286  0.7489
  184SOPE   H6X21106   3.832   0.868   7.415  0.9745 -1.6341 -0.2031
  184SOPE   H6Y21107   3.917   1.023   7.446  0.1269  0.4642 -0.3216
  184SOPE   C3721108   4.005   0.853   7.544 -0.1369  0.3562 -1.0339
  184SOPE   H7X21109   4.104   0.899   7.565 -0.1749 -0.3278  0.8049
  184SOPE   H7Y21110   4.029   0.746   7.524  0.7622  0.8574 -2.8835
  184SOPE   C3821111   3.917   0.850   7.674 -0.2660 -0.5001  0.7065
  184SOPE   H8X21112   3.840   0.773   7.650 -0.6009  0.2290 -0.6758
  184SOPE   H8Y21113   3.865   0.948   7.688 -0.9854 -0.7590 -0.0481
  184SOPE   C3921114   3.984   0.818   7.809 -0.6773  0.7077 -0.0001
  184SOPE   H9X21115   4.063   0.892   7.834 -0.9552  1.1062 -0.3065
  184SOPE   H9Y21116   4.015   0.711   7.815 -0.5395  0.7538  0.1260
  184SOPE  C31021117   3.882   0.834   7.931 -0.2911  0.0204  0.4835
  184SOPE  H10X21118   3.790   0.776   7.906 -0.6170  1.2325 -1.3376
  184SOPE  H10Y21119   3.846   0.939   7.940 -1.9378 -0.3847 -0.7506
  184SOPE  C31121120   3.958   0.794   8.052 -0.0861 -0.6459 -1.2010
  184SOPE  H11X21121   4.021   0.883   8.073 -3.2438  1.4528  0.0798
  184SOPE  H11Y21122   4.017   0.701   8.034  1.1900 -0.2851  0.7265
  184SOPE  C31221123   3.850   0.767   8.151 -0.1905  0.7437 -0.6816
  184SOPE  H12X21124   3.785   0.684   8.118 -0.2276  0.8717 -0.9374
  184SOPE  H12Y21125   3.783   0.854   8.169  0.1092  0.6825  0.8657
  184SOPE  C31321126   3.904   0.751   8.294  0.0998 -0.8922 -0.4552
  184SOPE  H13X21127   3.950   0.849   8.320 -1.0957  0.4116 -2.8649
  184SOPE  H13Y21128   3.990   0.681   8.283  2.4014  1.4234  1.6771
  184SOPE  C31421129   3.796   0.711   8.387 -0.4366  0.6689  0.8741
  184SOPE  H14X21130   3.758   0.614   8.349  0.1866 -0.0899  2.1178
  184SOPE  H14Y21131   3.709   0.778   8.373 -1.6366 -1.2972 -1.8420
  184SOPE  C31521132   3.826   0.695   8.533 -0.2943  1.0335 -0.7157
  184SOPE  H15X21133   3.902   0.620   8.564 -1.7567  0.1813  0.9319
  184SOPE  H15Y21134   3.730   0.669   8.581  0.2789  0.3034  0.0545
  184SOPE  C31621135   3.871   0.832   8.603 -0.1532  0.4698 -0.1363
  184SOPE  H16X21136   3.789   0.902   8.579 -2.5091 -1.5831  1.3392
  184SOPE  H16Y21137   3.973   0.861   8.572  1.2172 -1.6237  2.0356
  184SOPE  C31721138   3.893   0.812   8.755  0.7814 -0.4821 -0.3290
  184SOPE  H17X21139   3.949   0.718   8.775  3.1835  0.6555 -1.2839
  184SOPE  H17Y21140   3.794   0.806   8.806  0.5216  4.1751  0.2309
  184SOPE  C31821141   3.953   0.943   8.824 -0.0735  0.5261 -0.8101
  184SOPE  H18X21142   3.940   0.924   8.932 -0.4430 -1.0003 -1.1071
  184SOPE  H18Y21143   3.893   1.032   8.795  0.2621  1.2677  0.6477
  184SOPE  H18Z21144   4.060   0.962   8.800 -0.0424 -1.1729 -2.2464
  185SAPI   C1221145   1.054   4.780  11.090  0.0896 -0.4542  0.7243
  185SAPI    H221146   0.980   4.823  11.019 -0.5808  0.5656  1.9910
  185SAPI    O221147   1.006   4.818  11.217 -0.2544  0.4511 -0.1100
  185SAPI   HO221148   0.982   4.911  11.222  0.3059  0.6369 -0.6736
  185SAPI   C1321149   1.051   4.630  11.081 -0.3513  0.2455  0.3338
  185SAPI    H321150   1.077   4.598  10.978 -2.5081  1.8583 -0.7767
  185SAPI    O321151   0.926   4.569  11.112  0.4814 -0.1390  0.0279
  185SAPI   HO321152   0.868   4.598  11.041 -0.3307 -1.6517  0.0466
  185SAPI   C1421153   1.160   4.581  11.175  0.0451 -0.1188 -0.4145
  185SAPI    H421154   1.131   4.615  11.277 -2.1361  1.0741 -1.3772
  185SAPI    O421155   1.164   4.441  11.182  0.0110  0.8406  0.1342
  185SAPI   HO421156   1.075   4.406  11.178  0.1585  0.5288 -0.5863
  185SAPI   C1521157   1.296   4.644  11.150 -0.5408 -0.1710 -0.4241
  185SAPI    H521158   1.323   4.616  11.046 -1.4813  1.1430 -1.0521
  185SAPI    O521159   1.400   4.583  11.225  0.1599 -0.1995 -0.3732
  185SAPI   HO521160   1.469   4.550  11.167 -0.4408  1.0557 -1.8598
  185SAPI   C1621161   1.292   4.796  11.159  0.1774 -0.0764  0.2005
  185SAPI    H621162   1.258   4.827  11.260  0.0589  1.0546 -0.1816
  185SAPI    O621163   1.410   4.864  11.136 -0.5262 -0.0072 -0.2369
  185SAPI   HO621164   1.418   4.940  11.194 -0.5624 -1.1633  1.3166
  185SAPI   C1121165   1.183   4.846  11.056  0.1136  0.2747  0.0334
  185SAPI    H121166   1.212   4.818  10.953  0.6218 -0.1228  0.2819
  185SAPI     P21167   1.152   5.093  10.938 -0.2087 -0.6302  0.0303
  185SAPI   O1321168   1.257   5.056  10.847  0.1936 -0.0337 -0.2624
  185SAPI   O1421169   1.158   5.234  10.991  0.2494  0.4185  0.0873
  185SAPI   O1221170   1.158   4.993  11.068  0.0929 -0.1619 -0.1413
  185SAPI   O1121171   1.014   5.061  10.871  0.6679  0.2445 -0.1218
  185SAPI    C121172   0.999   5.048  10.738 -0.2181  0.0909  0.3124
  185SAPI    HA21173   1.078   4.989  10.687 -0.8934  1.0291 -1.9215
  185SAPI    HB21174   0.911   4.980  10.727  1.5970 -2.0830 -1.8804
  185SAPI    C221175   0.955   5.170  10.657 -0.2536  0.0698 -0.6619
  185SAPI    HS21176   0.913   5.145  10.557 -0.0001  0.6409 -0.9182
  185SAPI   O2121177   1.069   5.250  10.628  0.1514 -0.3420 -0.2930
  185SAPI   C2121178   1.149   5.207  10.533 -0.7090  0.1727  0.0217
  185SAPI   O2221179   1.134   5.107  10.471  0.0466  0.9126 -0.1954
  185SAPI   C2221180   1.257   5.307  10.524 -0.9824  0.1526  0.0983
  185SAPI   H2R21181   1.309   5.322  10.620 -1.5909 -0.9820  0.6378
  185SAPI   H2S21182   1.317   5.270  10.438 -1.7587 -0.0136 -0.3829
  185SAPI    C321183   0.851   5.248  10.737 -0.0480  0.4629 -0.4620
  185SAPI    HX21184   0.895   5.277  10.835 -0.3541  1.4515 -0.6037
  185SAPI    HY21185   0.765   5.185  10.769  0.3876 -0.7581 -1.6045
  185SAPI   O3121186   0.806   5.362  10.659  0.5234  0.4222 -0.5155
  185SAPI   C3121187   0.755   5.461  10.724 -0.1055  0.6359  0.5760
  185SAPI   O3221188   0.732   5.469  10.842 -0.3616  0.8426 -0.6046
  185SAPI   C3221189   0.722   5.568  10.621 -0.4323  0.0329  0.2467
  185SAPI   H2X21190   0.702   5.657  10.686  0.2381 -0.9481  1.8694
  185SAPI   H2Y21191   0.630   5.530  10.574 -0.4003 -1.6947  1.4792
  185SAPI   C2321192   1.212   5.455  10.493 -0.4484  0.1042  0.0322
  185SAPI   H3R21193   1.277   5.535  10.534 -0.1753  0.0083 -0.2086
  185SAPI   H3S21194   1.109   5.476  10.530 -0.6277 -2.3788  1.2036
  185SAPI   C2421195   1.228   5.489  10.340  0.2524  0.1091 -0.4933
  185SAPI   H4R21196   1.334   5.473  10.313  0.4555  2.7866 -1.5958
  185SAPI   H4S21197   1.228   5.599  10.320 -0.8495 -0.2072 -2.4379
  185SAPI   C2521198   1.123   5.424  10.259  0.2381  0.2981  0.9311
  185SAPI   H5R21199   1.025   5.411  10.308  0.3308  3.2454  2.1135
  185SAPI   C2621200   1.133   5.385  10.137  0.0311  0.1685 -0.3934
  185SAPI   H6R21201   1.054   5.318  10.100  0.9320 -0.7153 -0.7688
  185SAPI   C2721202   1.254   5.387  10.042  0.7109  0.2142 -0.5336
  185SAPI   H7R21203   1.344   5.423  10.096 -0.1989 -0.7972  1.7963
  185SAPI   H7S21204   1.224   5.461   9.964 -1.4330 -2.1417 -2.0972
  185SAPI   C2821205   1.293   5.261   9.967  0.0842 -0.1820 -0.2633
  185SAPI   H8R21206   1.252   5.163   9.997 -0.9968  0.7090  1.3364
  185SAPI   C2921207   1.378   5.259   9.863  0.6874  0.5597  0.2876
  185SAPI   H9R21208   1.377   5.166   9.804 -1.2219  0.5283  0.3034
  185SAPI  C21021209   1.450   5.371   9.793  0.5201  0.7082  0.3554
  185SAPI  H10R21210   1.379   5.457   9.797 -4.2517 -2.8669  1.6082
  185SAPI  H10S21211   1.439   5.339   9.687 -2.2064  0.3393  0.6594
  185SAPI  C21121212   1.598   5.390   9.818  0.3434  0.0424 -0.3761
  185SAPI  H11R21213   1.632   5.331   9.905  0.3066 -0.5683 -0.7767
  185SAPI  C21221214   1.685   5.478   9.768 -0.1043  0.6767  0.2006
  185SAPI  H12R21215   1.790   5.484   9.800 -0.0556  1.0703 -0.0260
  185SAPI  C21321216   1.658   5.584   9.656 -0.2244  0.5299 -0.5661
  185SAPI  H13R21217   1.737   5.661   9.667 -0.4460  0.8523 -1.1738
  185SAPI  H13S21218   1.561   5.634   9.680 -0.4374  0.7988 -1.8903
  185SAPI  C21421219   1.648   5.527   9.512  0.7698  0.2503 -0.1139
  185SAPI  H14R21220   1.712   5.444   9.479 -0.9983 -1.0438 -0.4156
  185SAPI  C21521221   1.569   5.574   9.415  0.4337 -0.2472  0.2519
  185SAPI  H15R21222   1.579   5.525   9.317 -0.0509  0.9102 -0.4059
  185SAPI  C21621223   1.472   5.688   9.421  0.0859  0.6304  0.4625
  185SAPI  H16R21224   1.499   5.746   9.512  1.9795 -0.8590  0.9260
  185SAPI  H16S21225   1.366   5.657   9.414 -0.3197  2.3768 -2.8616
  185SAPI  C21721226   1.491   5.782   9.303 -0.0043  0.3402  0.7637
  185SAPI  H17R21227   1.423   5.869   9.291  0.6306  0.5529 -1.9574
  185SAPI  H17S21228   1.487   5.740   9.200  0.1095  2.0347  0.0343
  185SAPI  C21821229   1.626   5.864   9.319 -0.6860 -0.1922 -0.0349
  185SAPI  H18R21230   1.702   5.788   9.347 -1.5976 -1.3877 -0.7063
  185SAPI  H18S21231   1.609   5.929   9.407 -1.5642 -2.0063  1.2079
  185SAPI  C21921232   1.673   5.931   9.188  0.1229  0.2338  0.0475
  185SAPI  H19R21233   1.704   5.856   9.112 -0.3183  0.9805 -0.8873
  185SAPI  H19S21234   1.758   5.993   9.224 -0.7805  0.9818  0.9536
  185SAPI  C22021235   1.576   6.027   9.118  0.4216  0.5268 -0.2379
  185SAPI  H20R21236   1.532   6.103   9.186  0.0800 -0.7847  1.0568
  185SAPI  H20S21237   1.486   5.971   9.083  1.3027 -0.6173 -0.7491
  185SAPI  H20T21238   1.618   6.070   9.025  1.1908  1.2527  0.4313
  185SAPI   C3321239   0.847   5.597  10.531  0.1893 -0.5308 -0.0180
  185SAPI   H3X21240   0.869   5.504  10.475  2.0697 -0.5595  0.7037
  185SAPI   H3Y21241   0.929   5.634  10.596 -0.2994 -0.8564  0.8063
  185SAPI   C3421242   0.819   5.709  10.425  0.1357 -0.6033  0.7140
  185SAPI   H4X21243   0.922   5.735  10.394 -0.0813 -1.2196 -0.5834
  185SAPI   H4Y21244   0.772   5.805  10.453  0.0272 -0.6070  0.5479
  185SAPI   C3521245   0.738   5.663  10.304 -0.5265  0.0889  0.2473
  185SAPI   H5X21246   0.639   5.632  10.344 -1.1006 -0.0043 -1.1653
  185SAPI   H5Y21247   0.778   5.569  10.262  0.1036  0.4436  0.0299
  185SAPI   C3621248   0.710   5.774  10.205  0.0495 -0.0793 -0.1392
  185SAPI   H6X21249   0.795   5.776  10.134 -0.5107  1.8872 -0.8377
  185SAPI   H6Y21250   0.689   5.872  10.253  1.4204 -0.5558  1.5568
  185SAPI   C3721251   0.577   5.747  10.122 -0.1077 -0.7145 -0.2418
  185SAPI   H7X21252   0.488   5.765  10.185  1.1894 -1.4378  1.9228
  185SAPI   H7Y21253   0.583   5.637  10.106 -0.8666 -0.7530 -0.2631
  185SAPI   C3821254   0.569   5.826   9.994  0.2564 -0.5813 -0.2059
  185SAPI   H8X21255   0.600   5.930  10.015 -0.9489 -0.0856 -0.8126
  185SAPI   H8Y21256   0.464   5.826   9.957  0.2359  0.1821 -0.1596
  185SAPI   C3921257   0.668   5.764   9.883  0.6847 -0.1013 -0.4720
  185SAPI   H9X21258   0.635   5.658   9.885 -0.6732  0.3164 -0.0688
  185SAPI   H9Y21259   0.773   5.763   9.920  0.7536  2.2181 -0.4731
  185SAPI  C31021260   0.659   5.826   9.745  0.2755  0.5140  0.3071
  185SAPI  H10X21261   0.689   5.933   9.741  1.4642  0.3457  2.7498
  185SAPI  H10Y21262   0.552   5.826   9.717  0.2873  2.0239  0.1717
  185SAPI  C31121263   0.738   5.761   9.628  0.0763 -0.0637  0.2841
  185SAPI  H11X21264   0.701   5.659   9.605  2.0079 -1.4708  2.9397
  185SAPI  H11Y21265   0.842   5.758   9.667  0.4557  1.5581 -0.4964
  185SAPI  C31221266   0.727   5.848   9.505  0.0126 -0.9216  1.1184
  185SAPI  H12X21267   0.770   5.949   9.519  1.3269 -1.2824  0.0026
  185SAPI  H12Y21268   0.620   5.868   9.486 -0.0321 -2.3049 -0.3585
  185SAPI  C31321269   0.792   5.786   9.374  0.4273  0.1673 -0.3413
  185SAPI  H13X21270   0.869   5.708   9.393  2.6818  1.6884 -2.6453
  185SAPI  H13Y21271   0.847   5.857   9.309  2.5099 -0.1989  0.9196
  185SAPI  C31421272   0.683   5.703   9.289  0.3702 -0.6087 -0.2494
  185SAPI  H14X21273   0.626   5.787   9.244  0.3690 -0.5799 -0.1956
  185SAPI  H14Y21274   0.618   5.641   9.354 -0.1480 -1.0286 -1.1417
  185SAPI  C31521275   0.748   5.616   9.192  0.3002  0.0021  0.0065
  185SAPI  H15X21276   0.670   5.569   9.129  2.2736 -1.9558 -1.1420
  185SAPI  H15Y21277   0.800   5.529   9.238 -2.1833 -1.3576  0.4180
  185SAPI  C31621278   0.845   5.680   9.090  0.2067 -0.1313  0.3071
  185SAPI  H16X21279   0.825   5.789   9.081 -1.8837 -0.2907  2.3311
  185SAPI  H16Y21280   0.809   5.652   8.989  0.7980  0.1369  0.0138
  185SAPI  C31721281   0.998   5.649   9.107  0.4377 -0.0056  0.6761
  185SAPI  H17X21282   1.006   5.634   9.216  0.2385 -0.1490  0.6706
  185SAPI  H17Y21283   1.071   5.732   9.095 -1.9653  2.3152  1.0814
  185SAPI  C31821284   1.032   5.515   9.038  0.3859 -0.7437 -0.7386
  185SAPI  H18X21285   0.945   5.446   9.050 -0.4676  0.6133  1.4551
  185SAPI  H18Y21286   1.121   5.459   9.074  1.0602 -0.0656 -1.3047
  185SAPI  H18Z21287   1.041   5.528   8.928 -0.5239 -0.6319 -0.8110
  186SAPI   C1221288   0.881   4.107  11.200 -0.1216  0.5854 -0.0996
  186SAPI    H221289   0.774   4.091  11.222  0.1724  0.1458  1.0891
  186SAPI    O221290   0.912   4.243  11.229 -0.5815  0.3580  0.2098
  186SAPI   HO221291   0.858   4.299  11.173  0.4581  1.0075 -0.1747
  186SAPI   C1321292   0.956   4.010  11.287 -0.3263 -0.4173 -0.0820
  186SAPI    H321293   0.928   3.906  11.256 -1.6587  0.1684 -0.9348
  186SAPI    O321294   0.917   4.018  11.422 -0.1271  0.0290  0.2202
  186SAPI   HO321295   0.909   4.110  11.448 -1.8552  0.5167 -1.7424
  186SAPI   C1421296   1.109   4.036  11.265  0.0616  0.2764  0.0257
  186SAPI    H421297   1.126   4.144  11.282 -2.3297  0.7648 -0.2977
  186SAPI    O421298   1.190   3.952  11.348  0.2498  0.6807  0.2375
  186SAPI   HO421299   1.181   4.001  11.430  0.8852  1.5007 -0.1716
  186SAPI   C1521300   1.135   4.011  11.112  0.2875  0.2470 -0.6146
  186SAPI    H521301   1.112   3.903  11.096  2.1730 -0.2818 -0.1269
  186SAPI    O521302   1.279   4.022  11.086  0.4827  0.2732 -0.1050
  186SAPI   HO521303   1.325   3.964  11.148 -1.0643  0.3034  1.1235
  186SAPI   C1621304   1.051   4.097  11.022 -0.7296  0.6920 -0.2134
  186SAPI    H621305   1.066   4.207  11.027  0.5978  0.4909  0.5911
  186SAPI    O621306   1.076   4.072  10.881  0.2824 -0.7774 -0.5555
  186SAPI   HO621307   1.039   4.150  10.838 -0.0110 -0.8481 -0.4363
  186SAPI   C1121308   0.908   4.079  11.056  0.3831 -0.0006 -0.4982
  186SAPI    H121309   0.883   3.971  11.042 -3.5796  0.6523  0.2312
  186SAPI     P21310   0.664   4.120  10.920 -0.2436  0.3694  0.2209
  186SAPI   O1321311   0.597   4.229  10.849  0.0782  0.6664  0.8231
  186SAPI   O1421312   0.600   4.060  11.034  0.5277  0.0483  0.1857
  186SAPI   O1221313   0.826   4.160  10.969  0.2966 -0.3054  0.6510
  186SAPI   O1121314   0.690   4.004  10.810 -0.4528 -0.1437  0.5698
  186SAPI    C121315   0.574   3.958  10.742 -0.1582 -0.0037 -0.1537
  186SAPI    HA21316   0.533   3.867  10.793 -2.6325  0.3760 -1.2850
  186SAPI    HB21317   0.481   4.019  10.741  0.3239  0.7529  0.4469
  186SAPI    C221318   0.606   3.899  10.604  0.0106 -0.2124 -0.2704
  186SAPI    HS21319   0.511   3.849  10.573 -0.3534  1.0750 -1.3524
  186SAPI   O2121320   0.720   3.808  10.613 -0.1758  0.4583 -1.0726
  186SAPI   C2121321   0.714   3.708  10.522  0.7147 -0.2525  0.6046
  186SAPI   O2221322   0.622   3.688  10.443  0.1355 -0.1594  0.2105
  186SAPI   C2221323   0.835   3.612  10.543  0.3759  0.2516 -0.6299
  186SAPI   H2R21324   0.928   3.650  10.590  0.7705 -1.8404  0.4286
  186SAPI   H2S21325   0.790   3.531  10.604  0.5148 -1.5438 -2.7661
  186SAPI    C321326   0.631   4.010  10.497 -0.2272  0.3870  0.4091
  186SAPI    HX21327   0.734   4.050  10.511 -0.3783  0.7565  0.4586
  186SAPI    HY21328   0.564   4.097  10.512 -1.7630 -0.3301 -1.8309
  186SAPI   O3121329   0.614   3.951  10.368  0.7206 -0.5108 -0.5921
  186SAPI   C3121330   0.489   3.954  10.322 -0.0680 -0.6990  0.1999
  186SAPI   O3221331   0.393   4.001  10.382 -0.0751  0.3907 -0.6467
  186SAPI   C3221332   0.487   3.893  10.190 -0.3746 -0.7119  0.1008
  186SAPI   H2X21333   0.533   3.792  10.191 -1.2456 -1.2015 -2.2937
  186SAPI   H2Y21334   0.546   3.951  10.116  2.4418 -3.9097 -0.4093
  186SAPI   C2321335   0.869   3.542  10.408  0.1258  0.3184  0.4567
  186SAPI   H3R21336   0.780   3.508  10.351 -0.9782  1.9253  1.1437
  186SAPI   H3S21337   0.924   3.452  10.445 -0.5001  0.0438  0.7368
  186SAPI   C2421338   0.969   3.630  10.322  0.2584  0.6058 -1.3827
  186SAPI   H4R21339   1.024   3.575  10.243  1.4504  1.4262 -1.1403
  186SAPI   H4S21340   1.047   3.669  10.391 -1.7006 -0.6682  1.7576
  186SAPI   C2521341   0.894   3.749  10.263  0.8915 -0.2716  0.0294
  186SAPI   H5R21342   0.883   3.830  10.337  1.0757  0.0116 -0.2538
  186SAPI   C2621343   0.827   3.756  10.152  0.3399  0.0900 -0.1274
  186SAPI   H6R21344   0.799   3.858  10.120 -0.1776 -0.3257 -1.0292
  186SAPI   C2721345   0.801   3.649  10.044 -0.1689  0.2100 -0.3602
  186SAPI   H7R21346   0.694   3.651  10.015 -0.1181  0.4946 -0.5315
  186SAPI   H7S21347   0.811   3.550  10.095  1.1280  0.0245 -0.9190
  186SAPI   C2821348   0.886   3.644   9.919  0.5081  0.2412 -0.1059
  186SAPI   H8R21349   0.984   3.595   9.932  0.4762  0.0127 -0.6921
  186SAPI   C2921350   0.860   3.701   9.799 -0.5751  0.3152 -0.5727
  186SAPI   H9R21351   0.929   3.671   9.719  1.0252  1.8080  0.1791
  186SAPI  C21021352   0.736   3.778   9.764 -0.2438 -0.2861  0.5525
  186SAPI  H10R21353   0.655   3.759   9.839 -1.0677 -1.1839 -0.5347
  186SAPI  H10S21354   0.696   3.738   9.669  0.6112  0.6738 -0.2300
  186SAPI  C21121355   0.751   3.928   9.740 -0.6951 -0.8216 -0.2299
  186SAPI  H11R21356   0.754   3.997   9.825  0.4023 -1.3379  0.1705
  186SAPI  C21221357   0.751   3.987   9.617 -0.7958 -0.5261 -0.0763
  186SAPI  H12R21358   0.768   4.095   9.612 -1.2898 -0.4824 -2.0986
  186SAPI  C21321359   0.738   3.918   9.483 -0.4122 -0.1493 -0.5517
  186SAPI  H13R21360   0.759   3.809   9.483  1.5169  0.1857  0.0547
  186SAPI  H13S21361   0.811   3.962   9.412  1.8461 -1.0215  1.0893
  186SAPI  C21421362   0.590   3.934   9.440  0.0477  0.1096  0.0948
  186SAPI  H14R21363   0.519   3.926   9.523 -1.0467 -2.9469 -0.9972
  186SAPI  C21521364   0.536   3.958   9.320 -0.2674 -0.0222  0.3455
  186SAPI  H15R21365   0.427   3.967   9.313 -0.3396 -0.8219  0.3762
  186SAPI  C21621366   0.612   3.968   9.191 -0.8284 -0.3957 -0.1775
  186SAPI  H16R21367   0.654   4.067   9.165  1.0159 -1.1829 -0.2828
  186SAPI  H16S21368   0.534   3.957   9.112 -1.5301  0.3391  0.3912
  186SAPI  C21721369   0.728   3.874   9.141  0.3091  0.1188 -0.4932
  186SAPI  H17R21370   0.720   3.781   9.201 -0.2451  0.3403 -0.2155
  186SAPI  H17S21371   0.830   3.910   9.167 -0.2398  1.9324 -0.7428
  186SAPI  C21821372   0.726   3.859   8.988 -0.9347  0.0964 -0.1274
  186SAPI  H18R21373   0.757   3.949   8.932  1.3892  0.3888  1.5268
  186SAPI  H18S21374   0.625   3.820   8.960 -0.4971 -1.2022  0.0219
  186SAPI  C21921375   0.830   3.756   8.944 -0.3587 -0.0093  0.7470
  186SAPI  H19R21376   0.817   3.714   8.842 -3.2690  1.3262  0.4695
  186SAPI  H19S21377   0.829   3.670   9.015  1.0287 -0.2061  0.5600
  186SAPI  C22021378   0.982   3.788   8.941  0.0671  0.1273 -0.3668
  186SAPI  H20R21379   1.010   3.824   9.042 -1.0197 -1.7514  0.6528
  186SAPI  H20S21380   1.015   3.864   8.866  0.0881  1.3184  0.8121
  186SAPI  H20T21381   1.042   3.696   8.925 -0.0621 -0.0915  0.3660
  186SAPI   C3321382   0.349   3.872  10.130  0.3717  0.2343 -0.2093
  186SAPI   H3X21383   0.296   3.970  10.126  0.4593  0.3621  1.2142
  186SAPI   H3Y21384   0.276   3.816  10.193 -0.7523  0.9663 -0.8322
  186SAPI   C3421385   0.340   3.814   9.989 -0.1363  0.2368 -0.7871
  186SAPI   H4X21386   0.238   3.780   9.960 -0.5875  0.0280  0.9161
  186SAPI   H4Y21387   0.405   3.724   9.980 -0.5244  0.0136 -1.4242
  186SAPI   C3521388   0.390   3.913   9.886 -0.3018 -0.7179 -0.5869
  186SAPI   H5X21389   0.496   3.941   9.896 -0.1181 -0.9823 -1.6848
  186SAPI   H5Y21390   0.327   4.003   9.903 -0.6634 -0.8658 -1.1232
  186SAPI   C3621391   0.364   3.878   9.748  0.5607  0.4482  0.5436
  186SAPI   H6X21392   0.439   3.812   9.698 -0.8918 -1.3282  0.6204
  186SAPI   H6Y21393   0.378   3.974   9.694 -0.6967 -0.1695 -0.9773
  186SAPI   C3721394   0.228   3.812   9.709  0.5831  0.7987  0.2220
  186SAPI   H7X21395   0.153   3.875   9.761  0.8159  0.2464  1.2470
  186SAPI   H7Y21396   0.231   3.708   9.748  0.9849  1.1109  1.0274
  186SAPI   C3821397   0.196   3.818   9.558  0.3487  0.5308  0.4181
  186SAPI   H8X21398   0.146   3.723   9.529  0.2941  0.4601  0.7443
  186SAPI   H8Y21399   0.288   3.824   9.495 -1.3377 -0.1234 -2.2827
  186SAPI   C3921400   0.109   3.940   9.526  0.3871 -0.1464  0.6336
  186SAPI   H9X21401   0.149   4.033   9.572  0.5684  0.1529 -0.1148
  186SAPI   H9Y21402   0.012   3.917   9.575  1.7980 -1.2402  3.0536
  186SAPI  C31021403   0.085   3.957   9.375  0.2289  0.5775  0.1948
  186SAPI  H10X21404   0.160   4.022   9.327  0.8960 -0.6870 -0.5317
  186SAPI  H10Y21405  -0.007   4.017   9.356  1.9478  2.8453 -1.3824
  186SAPI  C31121406   0.080   3.828   9.289 -0.0708 -0.3637  0.5556
  186SAPI  H11X21407  -0.010   3.768   9.316 -3.1014  2.0707 -3.0890
  186SAPI  H11Y21408   0.167   3.759   9.296  0.6656  0.0068 -3.0535
  186SAPI  C31221409   0.060   3.858   9.142  0.3174  1.2303 -0.0303
  186SAPI  H12X21410  -0.018   3.935   9.125 -1.7024 -0.8769 -0.9644
  186SAPI  H12Y21411   0.026   3.761   9.101  2.1287 -0.9037  3.0623
  186SAPI  C31321412   0.196   3.884   9.076  0.1434 -0.1517 -0.3461
  186SAPI  H13X21413   0.275   3.811   9.105 -0.4516 -0.2589  1.0903
  186SAPI  H13Y21414   0.231   3.987   9.094 -1.1299  0.9190 -3.3356
  186SAPI  C31421415   0.181   3.862   8.929  0.6722  0.2715  0.5932
  186SAPI  H14X21416   0.103   3.932   8.894 -1.9285 -2.1653  1.1597
  186SAPI  H14Y21417   0.138   3.762   8.908 -0.9306  1.1034 -0.2224
  186SAPI  C31521418   0.319   3.879   8.850  1.0170 -0.8918 -0.1977
  186SAPI  H15X21419   0.372   3.782   8.857 -1.5731 -2.6122 -2.1874
  186SAPI  H15Y21420   0.370   3.967   8.895  0.8910 -0.9693  0.0966
  186SAPI  C31621421   0.303   3.903   8.694  0.0200 -0.2867  0.1404
  186SAPI  H16X21422   0.257   4.003   8.677 -0.2543 -0.5263 -0.5420
  186SAPI  H16Y21423   0.252   3.811   8.661  1.6223 -1.2351  0.2373
  186SAPI  C31721424   0.433   3.895   8.616 -0.4303  0.2588  0.4698
  186SAPI  H17X21425   0.408   3.897   8.508 -0.3911 -0.5451  0.4386
  186SAPI  H17Y21426   0.478   3.794   8.629 -1.3954 -0.4328 -1.2787
  186SAPI  C31821427   0.529   4.010   8.641  0.1739 -0.4833 -0.0712
  186SAPI  H18X21428   0.468   4.102   8.652 -0.0803 -0.4907 -1.2739
  186SAPI  H18Y21429   0.606   4.018   8.562  1.5615 -0.9940  1.1799
  186SAPI  H18Z21430   0.592   4.008   8.733  0.5561 -0.8907 -0.3357
  187SAPI   C1221431   2.934   4.871   6.587  0.3546 -0.5714 -0.2862
  187SAPI    H221432   2.935   4.903   6.694  2.7270 -2.3781  0.3308
  187SAPI    O221433   3.023   4.760   6.582 -0.7419 -0.0811  0.5357
  187SAPI   HO221434   3.089   4.770   6.652 -0.8960 -3.8668  1.4325
  187SAPI   C1321435   2.796   4.822   6.546  0.9336  0.2877 -0.2290
  187SAPI    H321436   2.729   4.910   6.558  1.0421  0.4443 -0.7438
  187SAPI    O321437   2.751   4.720   6.634  0.5420 -0.0518  0.1462
  187SAPI   HO321438   2.825   4.659   6.637  0.0177 -0.6748  2.2792
  187SAPI   C1421439   2.801   4.782   6.400  0.6870  0.7337  0.0887
  187SAPI    H421440   2.861   4.690   6.381 -2.1300 -0.9108 -1.5382
  187SAPI    O421441   2.671   4.743   6.356  0.7319  0.3203  0.0007
  187SAPI   HO421442   2.689   4.658   6.314 -0.6240 -0.0147  0.0515
  187SAPI   C1521443   2.856   4.892   6.311 -0.4652 -0.9657 -0.4314
  187SAPI    H521444   2.776   4.969   6.317  0.3842 -0.0896  0.0905
  187SAPI    O521445   2.867   4.854   6.174  0.4581 -0.3488 -0.6112
  187SAPI   HO521446   2.778   4.858   6.138 -0.0566  0.2313  0.6635
  187SAPI   C1621447   2.989   4.946   6.362  0.0094 -0.6941  0.0515
  187SAPI    H621448   3.068   4.871   6.341  0.1821  0.0059 -2.0274
  187SAPI    O621449   3.026   5.056   6.285 -0.1053 -0.1780  0.3324
  187SAPI   HO621450   2.955   5.121   6.282 -1.3121 -1.2898  2.5444
  187SAPI   C1121451   2.985   4.992   6.505  0.5734 -0.2196 -0.5636
  187SAPI    H121452   2.905   5.067   6.518 -0.1831 -0.0177 -4.8374
  187SAPI     P21453   3.138   5.187   6.595  0.5356 -0.5089  0.2699
  187SAPI   O1321454   3.050   5.275   6.515  0.4147 -0.5149  0.2699
  187SAPI   O1421455   3.278   5.237   6.593 -0.4115 -0.1789 -0.7739
  187SAPI   O1221456   3.116   5.032   6.552  0.3627 -0.1671  0.0265
  187SAPI   O1121457   3.085   5.193   6.748 -0.5548 -0.5105  0.1332
  187SAPI    C121458   3.138   5.106   6.847 -0.8203 -0.7446  0.5803
  187SAPI    HA21459   3.056   5.039   6.881 -0.4223 -0.6773  1.7085
  187SAPI    HB21460   3.218   5.043   6.802  0.9225 -0.9083  3.6527
  187SAPI    C221461   3.190   5.174   6.974  0.2191 -0.5512 -0.3635
  187SAPI    HS21462   3.274   5.238   6.941  1.1559 -0.6343  1.7267
  187SAPI   O2121463   3.244   5.082   7.071  0.0614 -0.0767 -0.2472
  187SAPI   C2121464   3.345   5.004   7.037 -0.3644 -0.2797  0.1350
  187SAPI   O2221465   3.393   4.996   6.922 -0.9641  0.0078  0.2103
  187SAPI   C2221466   3.391   4.917   7.161  0.2138 -0.8186 -0.3713
  187SAPI   H2R21467   3.430   4.980   7.245 -1.9017 -1.3882  1.1354
  187SAPI   H2S21468   3.307   4.859   7.203  0.8976 -1.2516  0.4369
  187SAPI    C321469   3.072   5.258   7.038  0.2369  0.4932  0.1488
  187SAPI    HX21470   2.973   5.215   7.066  0.8236 -0.6595  0.5315
  187SAPI    HY21471   3.048   5.332   6.959 -3.8142 -2.0412 -1.2991
  187SAPI   O3121472   3.121   5.329   7.154 -0.9399 -0.1203  0.0202
  187SAPI   C3121473   3.060   5.443   7.183  0.4243  0.0876  0.4289
  187SAPI   O3221474   2.964   5.487   7.121 -0.4576  0.2055  0.3174
  187SAPI   C3221475   3.107   5.496   7.312 -0.4985 -0.5517 -0.6592
  187SAPI   H2X21476   3.151   5.596   7.290 -0.8682 -0.8502 -3.0902
  187SAPI   H2Y21477   3.183   5.426   7.352 -0.3042 -0.8496 -1.5210
  187SAPI   C2321478   3.492   4.819   7.107 -0.3078 -0.0066 -0.0334
  187SAPI   H3R21479   3.566   4.883   7.053  0.0397  0.2398  0.7179
  187SAPI   H3S21480   3.437   4.765   7.027  0.4636 -0.9295  0.0415
  187SAPI   C2421481   3.566   4.717   7.205 -0.2763  1.1149  0.4633
  187SAPI   H4R21482   3.571   4.616   7.159  2.1809  0.9091  1.0219
  187SAPI   H4S21483   3.514   4.707   7.303 -0.4164  0.6990  0.3481
  187SAPI   C2521484   3.708   4.769   7.249 -0.6450  0.7022  0.2073
  187SAPI   H5R21485   3.761   4.818   7.165 -0.8376  0.4993 -0.0333
  187SAPI   C2621486   3.754   4.783   7.377 -0.0557  0.0579  0.0870
  187SAPI   H6R21487   3.857   4.821   7.384  0.5493 -1.3520 -0.7072
  187SAPI   C2721488   3.695   4.753   7.514 -0.0501 -0.1577  0.3720
  187SAPI   H7R21489   3.786   4.717   7.567  1.3123  0.7239 -1.2576
  187SAPI   H7S21490   3.636   4.660   7.503 -1.6226  0.6389  1.6769
  187SAPI   C2821491   3.619   4.861   7.579 -0.0145 -0.3284 -0.2125
  187SAPI   H8R21492   3.586   4.945   7.517  0.0844 -0.2444 -0.1501
  187SAPI   C2921493   3.588   4.875   7.709 -0.2828  0.2745 -0.1259
  187SAPI   H9R21494   3.525   4.959   7.740 -0.0256  0.1834  0.6857
  187SAPI  C21021495   3.628   4.774   7.814  0.1065  0.3832 -1.0619
  187SAPI  H10R21496   3.736   4.756   7.834 -0.6044 -2.5311  0.7311
  187SAPI  H10S21497   3.586   4.674   7.793  1.5837 -0.1875 -1.3887
  187SAPI  C21121498   3.579   4.831   7.947 -0.0025  0.6752 -0.1727
  187SAPI  H11R21499   3.622   4.931   7.958  2.3879 -0.1094 -1.6174
  187SAPI  C21221500   3.512   4.769   8.041 -0.2989  0.4617  0.1862
  187SAPI  H12R21501   3.479   4.832   8.125 -1.7526  2.9058 -2.0591
  187SAPI  C21321502   3.467   4.631   8.050  0.2060  0.0725 -0.3374
  187SAPI  H13R21503   3.517   4.602   8.145 -1.1087 -0.0760  0.3363
  187SAPI  H13S21504   3.506   4.566   7.969 -3.0556 -0.9986 -1.2074
  187SAPI  C21421505   3.321   4.615   8.069  0.3210  0.1458 -0.6139
  187SAPI  H14R21506   3.250   4.645   7.990  0.7737 -0.5671 -1.3110
  187SAPI  C21521507   3.264   4.541   8.163 -0.0451 -0.1731  0.8548
  187SAPI  H15R21508   3.156   4.520   8.153  0.1056  0.0643 -2.1543
  187SAPI  C21621509   3.329   4.463   8.275 -0.2671 -0.3581  0.0868
  187SAPI  H16R21510   3.436   4.451   8.246 -0.2984  0.8798 -0.6488
  187SAPI  H16S21511   3.297   4.357   8.285 -0.5703 -0.2360  0.4183
  187SAPI  C21721512   3.334   4.542   8.407 -0.1855 -0.3786  0.5489
  187SAPI  H17R21513   3.358   4.648   8.386 -0.1691  0.4523  4.1594
  187SAPI  H17S21514   3.424   4.507   8.462  0.6711 -1.0432 -1.1866
  187SAPI  C21821515   3.209   4.521   8.487  0.1141 -0.5628 -0.2342
  187SAPI  H18R21516   3.129   4.537   8.412  0.0762  0.9421  0.1031
  187SAPI  H18S21517   3.186   4.599   8.562 -0.9061  0.2679 -1.3699
  187SAPI  C21921518   3.203   4.376   8.538  0.2120 -0.0444  0.1984
  187SAPI  H19R21519   3.229   4.362   8.645  0.3531 -0.3220  0.1278
  187SAPI  H19S21520   3.279   4.322   8.477 -0.3084 -0.3230 -0.2110
  187SAPI  C22021521   3.060   4.317   8.511 -0.9778  0.3986  0.0285
  187SAPI  H20R21522   3.037   4.232   8.578  1.2513  0.3080  0.7359
  187SAPI  H20S21523   3.046   4.305   8.402 -0.1599 -2.2728  0.1513
  187SAPI  H20T21524   2.982   4.385   8.552 -1.4401 -1.0513  1.6999
  187SAPI   C3321525   2.987   5.514   7.403  0.0548  0.8538 -0.0021
  187SAPI   H3X21526   2.929   5.420   7.408  1.3663  0.0431  0.8713
  187SAPI   H3Y21527   2.924   5.586   7.346  0.9330 -0.2435 -2.5087
  187SAPI   C3421528   3.029   5.552   7.552 -0.0481 -0.4619  0.1464
  187SAPI   H4X21529   3.078   5.650   7.571  1.0362 -1.4072  2.7255
  187SAPI   H4Y21530   3.096   5.484   7.609 -0.0563 -0.8892 -0.3442
  187SAPI   C3521531   2.911   5.564   7.647 -0.8297 -0.7299 -0.0609
  187SAPI   H5X21532   2.862   5.465   7.645 -0.9639 -0.6594 -0.4252
  187SAPI   H5Y21533   2.837   5.636   7.605 -0.0819 -1.3806 -2.6799
  187SAPI   C3621534   2.962   5.604   7.786 -0.0819  0.2939  0.2713
  187SAPI   H6X21535   2.872   5.634   7.844  0.1753  1.7409 -0.0513
  187SAPI   H6Y21536   3.019   5.698   7.772 -3.0435  2.2170  0.1278
  187SAPI   C3721537   3.050   5.507   7.864 -0.0267 -0.7641 -0.4305
  187SAPI   H7X21538   3.154   5.500   7.823  0.4597  1.0849  0.3652
  187SAPI   H7Y21539   3.002   5.407   7.868 -3.4148  0.7767  0.5264
  187SAPI   C3821540   3.063   5.555   8.014  0.0345  0.4123  0.1212
  187SAPI   H8X21541   2.971   5.529   8.072  0.1380 -2.2901 -0.7783
  187SAPI   H8Y21542   3.091   5.662   8.022 -0.3356  0.4831  0.5539
  187SAPI   C3921543   3.163   5.474   8.092 -0.3547 -0.6333 -0.0025
  187SAPI   H9X21544   3.174   5.519   8.193 -3.1291  0.7968 -0.2380
  187SAPI   H9Y21545   3.257   5.493   8.035 -0.9997 -2.3107 -1.7107
  187SAPI  C31021546   3.124   5.327   8.091  0.3483 -0.1382  0.7153
  187SAPI  H10X21547   3.145   5.287   7.990 -0.3445  0.9386  0.1323
  187SAPI  H10Y21548   3.014   5.318   8.108  0.4568  0.3203  1.7687
  187SAPI  C31121549   3.208   5.246   8.188  0.5237  0.3323 -0.5136
  187SAPI  H11X21550   3.211   5.288   8.290 -0.1969  3.9856 -1.8353
  187SAPI  H11Y21551   3.316   5.246   8.160  1.2219  0.4775  2.0023
  187SAPI  C31221552   3.165   5.096   8.202  0.1880  0.0664 -0.4125
  187SAPI  H12X21553   3.188   5.054   8.102  0.9849  2.4560 -1.3022
  187SAPI  H12Y21554   3.054   5.101   8.209  0.2969  3.2757  0.7835
  187SAPI  C31321555   3.234   5.028   8.319  0.2680  0.3722  0.4369
  187SAPI  H13X21556   3.217   5.094   8.407 -1.1055  1.0877 -0.3450
  187SAPI  H13Y21557   3.342   5.022   8.295 -0.3677 -0.0667 -2.7050
  187SAPI  C31421558   3.184   4.882   8.340  0.3228  0.3883  0.5254
  187SAPI  H14X21559   3.267   4.830   8.393 -1.3877 -2.6278  0.4330
  187SAPI  H14Y21560   3.149   4.826   8.251  0.9414  0.2380  0.3695
  187SAPI  C31521561   3.067   4.875   8.438  0.0901 -0.6456 -0.1640
  187SAPI  H15X21562   3.049   4.966   8.499 -2.5395 -0.8941 -0.4655
  187SAPI  H15Y21563   3.085   4.797   8.516  1.4536  0.7223  0.9427
  187SAPI  C31621564   2.934   4.864   8.368 -0.0045 -1.0785 -0.4327
  187SAPI  H16X21565   2.929   4.765   8.317  0.8000 -1.3040 -0.0845
  187SAPI  H16Y21566   2.943   4.952   8.301  0.6352 -0.4879  0.4062
  187SAPI  C31721567   2.814   4.877   8.461  0.6357  0.5559  0.6862
  187SAPI  H17X21568   2.827   4.966   8.526 -1.4911  0.7024  1.0046
  187SAPI  H17Y21569   2.798   4.798   8.537 -1.0197  1.0553  0.9049
  187SAPI  C31821570   2.681   4.904   8.384  0.7022 -0.5147  0.2503
  187SAPI  H18X21571   2.628   4.812   8.351 -3.6718  1.1518  1.8758
  187SAPI  H18Y21572   2.698   4.973   8.298  0.4867 -0.7689 -0.0012
  187SAPI  H18Z21573   2.620   4.961   8.457  0.1190 -2.5260  1.4268
  188SAPI   C1221574   4.999   0.661   6.272  0.5681 -1.0041  0.3981
  188SAPI    H221575   5.029   0.705   6.369  1.5262  0.2248 -0.4177
  188SAPI    O221576   4.855   0.676   6.266 -0.3582  0.3061 -0.2109
  188SAPI   HO221577   4.819   0.622   6.338  3.0577  2.5859  3.6804
  188SAPI   C1321578   5.053   0.738   6.160 -0.0443  0.0581  0.3511
  188SAPI    H321579   5.162   0.734   6.181 -0.2337 -1.4182  1.1689
  188SAPI    O321580   5.014   0.878   6.168  0.4830  0.3080  0.5221
  188SAPI   HO321581   5.061   0.931   6.103 -1.9482  1.0251 -0.7706
  188SAPI   C1421582   5.020   0.673   6.027 -0.7356 -0.9298 -0.6169
  188SAPI    H421583   4.910   0.672   6.020 -0.6910 -0.6950 -1.6496
  188SAPI    O421584   5.062   0.758   5.918 -0.0913  0.5186 -0.2371
  188SAPI   HO421585   4.980   0.770   5.869 -0.4143 -2.1809 -0.5238
  188SAPI   C1521586   5.069   0.530   6.015 -0.0766 -0.6263  0.5460
  188SAPI    H521587   5.178   0.513   6.027  0.1798 -0.5615 -1.4549
  188SAPI    O521588   5.038   0.476   5.888 -0.1805 -0.3243 -0.1376
  188SAPI   HO521589   5.081   0.524   5.816 -0.0564  1.5392  1.0936
  188SAPI   C1621590   5.006   0.449   6.130 -0.5550  0.1690  0.7325
  188SAPI    H621591   4.898   0.447   6.105 -0.5581  1.1829  0.6300
  188SAPI    O621592   5.056   0.311   6.134 -0.0708  0.0174 -0.2023
  188SAPI   HO621593   5.130   0.306   6.196  0.4498  1.0939 -0.7111
  188SAPI   C1121594   5.045   0.514   6.268  0.1909 -0.3329  0.1307
  188SAPI    H121595   5.155   0.517   6.278  0.2889  4.6551  0.0533
  188SAPI     P21596   5.062   0.342   6.470  0.0026 -0.0400 -0.0630
  188SAPI   O1321597   5.164   0.268   6.390  0.2275  0.5838  0.3937
  188SAPI   O1421598   4.962   0.260   6.534  1.0572  0.3046  0.1966
  188SAPI   O1221599   4.981   0.448   6.374 -0.5821 -0.1410 -0.2613
  188SAPI   O1121600   5.127   0.427   6.579  0.2778 -0.1878 -0.0679
  188SAPI    C121601   5.059   0.506   6.671 -0.0122 -0.0321 -0.5005
  188SAPI    HA21602   5.012   0.593   6.621  0.4125 -0.7387 -2.2155
  188SAPI    HB21603   4.978   0.455   6.727  1.3761 -0.7271  0.9816
  188SAPI    C221604   5.163   0.536   6.783 -0.1500  0.5519 -0.2119
  188SAPI    HS21605   5.100   0.596   6.852 -1.5318 -2.1319  0.9980
  188SAPI   O2121606   5.266   0.619   6.736 -0.7802 -0.1537 -0.2213
  188SAPI   C2121607   5.334   0.691   6.820 -0.2583 -0.9603 -0.3084
  188SAPI   O2221608   5.298   0.728   6.927  0.5293  0.2932  0.1434
  188SAPI   C2221609   5.467   0.720   6.756  0.2926 -0.5713  0.0351
  188SAPI   H2R21610   5.460   0.720   6.645 -2.5876  1.8474  0.1005
  188SAPI   H2S21611   5.483   0.828   6.777  1.7283 -0.4402 -1.4902
  188SAPI    C321612   5.225   0.408   6.839  0.3873  0.6790 -0.3036
  188SAPI    HX21613   5.288   0.357   6.762  2.5747  2.4643  0.1649
  188SAPI    HY21614   5.147   0.334   6.864  0.7209  0.6126  0.5685
  188SAPI   O3121615   5.316   0.434   6.944 -0.2002 -0.1364 -0.2847
  188SAPI   C3121616   5.259   0.440   7.065 -0.4100  0.9514 -0.8200
  188SAPI   O3221617   5.141   0.417   7.086  0.4193 -0.4311  0.1789
  188SAPI   C3221618   5.362   0.494   7.169 -0.0653 -0.0071  0.6681
  188SAPI   H2X21619   5.333   0.599   7.195  0.7670  0.6045 -0.7302
  188SAPI   H2Y21620   5.466   0.489   7.131 -0.8590  0.6039 -1.8558
  188SAPI   C2321621   5.580   0.619   6.796  0.8422  0.3061  0.3005
  188SAPI   H3R21622   5.661   0.606   6.722 -0.0925 -1.9728 -0.4086
  188SAPI   H3S21623   5.525   0.523   6.803 -0.3600  0.9434 -0.0981
  188SAPI   C2421624   5.622   0.658   6.943 -0.4120  1.1271  0.1641
  188SAPI   H4R21625   5.670   0.572   6.995 -1.6227  0.4246  0.1555
  188SAPI   H4S21626   5.525   0.671   6.996 -1.5837 -1.9689 -0.9729
  188SAPI   C2521627   5.709   0.778   6.952 -0.6186  0.6302  0.4644
  188SAPI   H5R21628   5.741   0.815   6.854 -1.0860  2.0693  0.8275
  188SAPI   C2621629   5.751   0.839   7.060 -0.5951 -0.3868 -0.0307
  188SAPI   H6R21630   5.816   0.927   7.048  3.0255 -2.9060 -0.5178
  188SAPI   C2721631   5.695   0.804   7.197 -0.7128  0.3002  0.2448
  188SAPI   H7R21632   5.769   0.846   7.270 -0.7763 -2.1778  1.8484
  188SAPI   H7S21633   5.706   0.694   7.206  1.3819  0.4920  0.6405
  188SAPI   C2821634   5.555   0.843   7.239 -0.1354  0.4306 -0.3582
  188SAPI   H8R21635   5.499   0.869   7.148 -0.2767 -0.5980 -0.5771
  188SAPI   C2921636   5.499   0.855   7.362 -0.2065  0.0660  0.0526
  188SAPI   H9R21637   5.404   0.911   7.362 -0.3387 -0.1480 -0.7572
  188SAPI  C21021638   5.562   0.813   7.492 -0.1970  0.0651  0.4534
  188SAPI  H10R21639   5.666   0.850   7.488 -0.8583  1.9537 -1.2484
  188SAPI  H10S21640   5.575   0.703   7.488 -1.3583 -0.1698  1.8988
  188SAPI  C21121641   5.471   0.858   7.607 -0.0048  0.3495 -0.4467
  188SAPI  H11R21642   5.381   0.912   7.572 -0.2767 -1.2283 -2.3675
  188SAPI  C21221643   5.465   0.812   7.733  0.3429 -0.0594 -0.4661
  188SAPI  H12R21644   5.396   0.845   7.813  1.8300  1.9782  0.0480
  188SAPI  C21321645   5.580   0.723   7.790 -0.1800  0.0280 -0.1384
  188SAPI  H13R21646   5.655   0.709   7.709  1.5702  2.0856  1.0002
  188SAPI  H13S21647   5.539   0.625   7.819  0.6065 -0.6190 -1.1361
  188SAPI  C21421648   5.646   0.781   7.915  0.0768  0.3702  0.6397
  188SAPI  H14R21649   5.707   0.872   7.902  3.2648 -1.9403 -2.6443
  188SAPI  C21521650   5.645   0.725   8.040  0.0009  0.6933  0.8278
  188SAPI  H15R21651   5.699   0.782   8.117  0.0809  1.9384 -0.1116
  188SAPI  C21621652   5.586   0.596   8.092 -0.6768 -0.7607  0.7052
  188SAPI  H16R21653   5.645   0.504   8.072  1.8870  0.7711  0.7299
  188SAPI  H16S21654   5.492   0.582   8.035  0.0410  0.4694 -0.8456
  188SAPI  C21721655   5.564   0.601   8.247 -0.1650 -0.6563  0.0229
  188SAPI  H17R21656   5.495   0.523   8.286 -0.0532 -0.1424  1.3032
  188SAPI  H17S21657   5.512   0.693   8.282 -0.5138 -0.7363 -0.2741
  188SAPI  C21821658   5.698   0.592   8.329  0.2042  0.4450 -0.3823
  188SAPI  H18R21659   5.761   0.680   8.305  2.0294 -0.1952  1.7114
  188SAPI  H18S21660   5.754   0.498   8.311  0.0486  0.3547 -0.3960
  188SAPI  C21921661   5.677   0.599   8.480 -0.2336  0.5246  0.2019
  188SAPI  H19R21662   5.755   0.540   8.533  0.1799  2.4995  1.8987
  188SAPI  H19S21663   5.579   0.554   8.508 -0.0896  0.2004  0.1947
  188SAPI  C22021664   5.674   0.732   8.553 -0.3422 -0.4233 -0.1057
  188SAPI  H20R21665   5.773   0.778   8.577 -0.1614 -0.3933 -0.9004
  188SAPI  H20S21666   5.637   0.718   8.657  1.4663 -0.3576  0.5943
  188SAPI  H20T21667   5.615   0.811   8.502  1.5175  0.5591 -0.8633
  188SAPI   C3321668   5.355   0.409   7.299  0.1236  0.8517 -0.2821
  188SAPI   H3X21669   5.401   0.308   7.303 -1.4471  0.0217 -1.6383
  188SAPI   H3Y21670   5.249   0.394   7.332  0.3342  0.3472  0.1770
  188SAPI   C3421671   5.414   0.481   7.413  0.4565 -0.8254 -0.8305
  188SAPI   H4X21672   5.389   0.588   7.397 -1.6643 -0.8758  1.5287
  188SAPI   H4Y21673   5.522   0.453   7.410  0.6431 -0.1116 -1.1140
  188SAPI   C3521674   5.346   0.450   7.544  0.3521  0.2514 -0.1633
  188SAPI   H5X21675   5.239   0.429   7.521  0.7924  0.2857 -2.4786
  188SAPI   H5Y21676   5.352   0.545   7.601  1.4649 -0.4507  0.9545
  188SAPI   C3621677   5.404   0.337   7.637  0.1332  0.0530 -0.5756
  188SAPI   H6X21678   5.513   0.358   7.643  0.5822 -1.6855 -1.7617
  188SAPI   H6Y21679   5.385   0.233   7.603  0.8914 -0.2014 -0.2267
  188SAPI   C3721680   5.343   0.351   7.779  0.5800  1.0868 -0.1219
  188SAPI   H7X21681   5.238   0.319   7.761  1.6298 -1.2662 -2.7755
  188SAPI   H7Y21682   5.339   0.459   7.803 -3.4379  1.1570 -0.3401
  188SAPI   C3821683   5.412   0.268   7.887 -0.1214  0.1345 -0.4793
  188SAPI   H8X21684   5.518   0.290   7.910 -0.3403  1.9441 -1.0409
  188SAPI   H8Y21685   5.393   0.166   7.849  2.3161 -0.4625 -0.2502
  188SAPI   C3921686   5.344   0.294   8.017 -0.0618 -0.2173  0.4434
  188SAPI   H9X21687   5.238   0.261   8.014 -0.0218 -0.2733 -1.2619
  188SAPI   H9Y21688   5.353   0.404   8.023 -0.9901  0.1372 -2.9603
  188SAPI  C31021689   5.411   0.236   8.139 -0.6022 -0.4539  0.7043
  188SAPI  H10X21690   5.506   0.293   8.153 -0.3433 -0.0481 -2.0784
  188SAPI  H10Y21691   5.431   0.129   8.121 -2.1709 -0.7004  0.2623
  188SAPI  C31121692   5.331   0.271   8.261  0.1596 -0.4079 -0.1879
  188SAPI  H11X21693   5.229   0.228   8.249 -0.4942  1.6983 -3.9400
  188SAPI  H11Y21694   5.316   0.380   8.255  0.2023 -0.3654  0.4809
  188SAPI  C31221695   5.389   0.227   8.395  0.2284  0.1308 -0.3054
  188SAPI  H12X21696   5.498   0.204   8.393 -0.2935 -2.6561 -0.2603
  188SAPI  H12Y21697   5.349   0.127   8.421  0.2488  0.2234  0.1030
  188SAPI  C31321698   5.366   0.327   8.510  0.3874  0.8941  0.7756
  188SAPI  H13X21699   5.256   0.343   8.512  0.2007  0.1866 -1.5398
  188SAPI  H13Y21700   5.408   0.427   8.488 -0.4657  0.9728 -0.5758
  188SAPI  C31421701   5.405   0.270   8.647 -0.4696 -0.8176  0.2331
  188SAPI  H14X21702   5.510   0.233   8.646  0.0736  0.5740  1.4082
  188SAPI  H14Y21703   5.333   0.197   8.688 -0.5635 -1.0203 -0.2934
  188SAPI  C31521704   5.418   0.386   8.749  1.0076 -0.3627 -0.3527
  188SAPI  H15X21705   5.335   0.455   8.724 -0.1068 -1.6321 -0.2574
  188SAPI  H15Y21706   5.514   0.441   8.737  1.9319 -1.8841 -0.2224
  188SAPI  C31621707   5.381   0.346   8.896 -0.2103  0.1562 -0.5297
  188SAPI  H16X21708   5.405   0.429   8.967  0.4993 -1.0328  0.6741
  188SAPI  H16Y21709   5.448   0.262   8.922  1.1717  0.8519 -1.6873
  188SAPI  C31721710   5.232   0.316   8.916  0.0783 -0.1788  0.2240
  188SAPI  H17X21711   5.220   0.241   8.997 -0.1583  0.4945  0.8266
  188SAPI  H17Y21712   5.182   0.284   8.822 -3.6487  1.1423  1.5862
  188SAPI  C31821713   5.157   0.438   8.968  0.1159 -0.2351  0.3365
  188SAPI  H18X21714   5.208   0.480   9.058  2.8215 -1.4268 -0.5509
  188SAPI  H18Y21715   5.052   0.407   8.987  0.1125 -0.3681  0.1037
  188SAPI  H18Z21716   5.165   0.518   8.891  0.5573 -1.7207 -1.2242
  189POPC     N21717   3.713   1.679  11.544 -0.0985 -0.3934  0.4051
  189POPC   C1221718   3.614   1.795  11.561 -0.4985  0.4966 -0.2137
  189POPC  H12A21719   3.582   1.796  11.664 -0.0995 -2.6131  0.0398
  189POPC  H12B21720   3.527   1.765  11.504  0.3395  1.2713 -1.9981
  189POPC   C1321721   3.839   1.700  11.619 -0.2043  0.1185  0.0588
  189POPC  H13A21722   3.838   1.685  11.726  2.0860  1.8434  0.4069
  189POPC  H13B21723   3.917   1.637  11.579  0.8003  2.2296 -1.5011
  189POPC  H13C21724   3.872   1.801  11.599 -0.1389 -0.1893 -1.5257
  189POPC   C1421725   3.641   1.552  11.594  0.0116 -0.3567  0.2476
  189POPC  H14A21726   3.632   1.546  11.701  0.3837 -0.3768  0.2799
  189POPC  H14B21727   3.543   1.553  11.550 -0.5784  0.5129  1.5388
  189POPC  H14C21728   3.689   1.461  11.560  0.5415  1.0614 -3.3074
  189POPC   C1521729   3.743   1.647  11.402 -0.1449 -0.0594  0.1835
  189POPC  H15A21730   3.784   1.736  11.357  1.3739 -1.5166 -1.4597
  189POPC  H15B21731   3.656   1.618  11.344 -0.1181 -0.1093  0.1681
  189POPC  H15C21732   3.810   1.564  11.384 -0.2691 -0.5013  1.6449
  189POPC   C1121733   3.648   1.921  11.502  0.6988 -0.2150 -0.2801
  189POPC  H11A21734   3.750   1.952  11.533  1.8030 -3.5951 -0.1599
  189POPC  H11B21735   3.562   1.986  11.527 -1.1516 -2.1356 -1.3494
  189POPC     P21736   3.691   2.025  11.259 -0.4029  0.3102 -0.0189
  189POPC   O1321737   3.696   1.988  11.115 -0.2189  0.0398 -0.2760
  189POPC   O1421738   3.817   2.081  11.311 -0.8508  0.2208  0.3015
  189POPC   O1221739   3.652   1.900  11.358 -0.6620  0.7290  0.3076
  189POPC   O1121740   3.576   2.123  11.289  0.1887  0.3679  0.6189
  189POPC    C121741   3.435   2.075  11.291  0.0958 -0.6269  1.1021
  189POPC    HA21742   3.418   2.037  11.394  0.1367 -0.5438  1.1391
  189POPC    HB21743   3.425   1.990  11.220  0.8385  0.1723  0.0133
  189POPC    C221744   3.340   2.197  11.255 -0.2867 -0.1523 -0.3650
  189POPC    HS21745   3.237   2.159  11.240 -0.8896  0.7961  1.1218
  189POPC   O2121746   3.392   2.261  11.142 -0.0768  0.4663 -0.0391
  189POPC   C2121747   3.374   2.202  11.026  0.1938  0.5273 -0.2241
  189POPC   O2221748   3.311   2.101  11.002  0.3285 -0.1557  0.1937
  189POPC   C2221749   3.454   2.272  10.916  0.0319  0.1286  0.0176
  189POPC   H2R21750   3.551   2.306  10.957  0.5394  0.9942 -1.7968
  189POPC   H2S21751   3.400   2.365  10.889 -0.1678  1.0888  3.2910
  189POPC    C321752   3.332   2.297  11.373  0.2066 -0.2372  0.1910
  189POPC    HX21753   3.432   2.323  11.415 -0.3467 -2.5178  3.2877
  189POPC    HY21754   3.281   2.250  11.459  2.2443 -2.2168  0.4291
  189POPC   O3121755   3.264   2.420  11.325 -0.5498  0.5164  0.1428
  189POPC   C3121756   3.343   2.527  11.326  0.3919 -0.2186  0.3483
  189POPC   O3221757   3.459   2.543  11.358  0.0957  0.0836  0.1681
  189POPC   C3221758   3.260   2.644  11.264  0.1873  0.0874 -0.1536
  189POPC   H2X21759   3.327   2.732  11.267  0.9127 -0.4447 -0.5191
  189POPC   H2Y21760   3.188   2.670  11.344  0.6016  0.8413 -0.0237
  189POPC   C2321761   3.462   2.190  10.786 -0.1442 -0.6329 -0.6189
  189POPC   H3R21762   3.381   2.116  10.768 -0.4814 -0.4365  0.0379
  189POPC   H3S21763   3.554   2.128  10.795 -0.1012 -0.4684  0.2169
  189POPC   C2421764   3.480   2.269  10.658 -0.0053 -0.1627  0.5628
  189POPC   H4R21765   3.587   2.300  10.664  0.0389 -0.4267  1.1035
  189POPC   H4S21766   3.418   2.361  10.656  1.6741  1.0455 -1.8128
  189POPC   C2521767   3.466   2.180  10.530  0.0218  0.3528 -0.0663
  189POPC   H5R21768   3.366   2.133  10.543  0.2955 -0.0241  0.7528
  189POPC   H5S21769   3.541   2.099  10.535 -0.8913 -0.8413 -3.3336
  189POPC   C2621770   3.477   2.257  10.403 -0.8856  0.5871  0.7060
  189POPC   H6R21771   3.581   2.296  10.407 -0.5577  0.1260 -1.8000
  189POPC   H6S21772   3.406   2.343  10.405  0.7370  1.9797  1.2308
  189POPC   C2721773   3.475   2.164  10.281 -0.9311  0.0013  0.0997
  189POPC   H7R21774   3.382   2.105  10.268  0.4198 -1.9819 -1.1632
  189POPC   H7S21775   3.563   2.098  10.295 -0.9347 -0.2356 -0.9188
  189POPC   C2821776   3.500   2.228  10.147 -0.1694  0.3260 -1.1013
  189POPC   H8R21777   3.605   2.264  10.153  0.6041 -1.8480 -0.3117
  189POPC   H8S21778   3.429   2.313  10.144  0.6043  1.0698  0.3927
  189POPC   C2921779   3.493   2.133  10.035 -0.1523 -0.0414  0.1504
  189POPC   H9121780   3.429   2.044  10.040  0.2534 -0.4583 -1.4356
  189POPC  C21021781   3.551   2.157   9.920 -0.3024  0.0639  0.2472
  189POPC  H10121782   3.542   2.089   9.834 -0.9884 -2.0700  1.9278
  189POPC  C21121783   3.635   2.282   9.893 -0.7230 -0.0848  0.6731
  189POPC  H11R21784   3.743   2.256   9.890 -0.5047  0.8097  0.4844
  189POPC  H11S21785   3.636   2.352   9.979 -2.1812 -0.2080  0.8105
  189POPC  C21221786   3.597   2.357   9.761 -0.4015  0.6350 -0.0344
  189POPC  H12R21787   3.655   2.451   9.757  0.3355  0.2215  0.5929
  189POPC  H12S21788   3.491   2.392   9.761 -0.7644 -0.3387 -1.7942
  189POPC  C21321789   3.623   2.282   9.631  0.1177  0.1130  0.1302
  189POPC  H13R21790   3.712   2.216   9.636  1.3508  1.5874 -1.1129
  189POPC  H13S21791   3.650   2.368   9.566 -0.3665  0.6755  0.6705
  189POPC  C21421792   3.501   2.218   9.561 -0.3337  0.2171 -0.2735
  189POPC  H14R21793   3.457   2.295   9.494  3.2334 -0.3054 -3.6219
  189POPC  H14S21794   3.419   2.187   9.629 -0.1553 -1.5390 -0.8029
  189POPC  C21521795   3.528   2.103   9.461  0.1263 -0.4940 -0.2842
  189POPC  H15R21796   3.426   2.074   9.429 -0.5493  1.2537  0.1590
  189POPC  H15S21797   3.572   2.015   9.511  0.4679  0.0494  0.3892
  189POPC  C21621798   3.622   2.164   9.352  0.4032 -0.5475  0.4442
  189POPC  H16R21799   3.715   2.204   9.396 -0.2789  0.9192  0.6082
  189POPC  H16S21800   3.553   2.240   9.309 -1.3104 -0.4003  3.1932
  189POPC  C21721801   3.656   2.069   9.239 -0.0960  0.1806  0.3296
  189POPC  H17R21802   3.705   1.976   9.274  0.0886 -0.4944 -1.5836
  189POPC  H17S21803   3.739   2.118   9.184  1.2293  0.2715  2.3314
  189POPC  C21821804   3.533   2.028   9.152  0.5334 -0.3519  0.3226
  189POPC  H18R21805   3.499   2.117   9.095  1.9930 -0.7337 -1.1890
  189POPC  H18S21806   3.446   1.992   9.211  1.6204 -0.8320  1.6792
  189POPC  H18T21807   3.564   1.956   9.074 -0.4501  1.2848 -1.6851
  189POPC   C3321808   3.203   2.630  11.116  0.6535 -0.6198 -0.7674
  189POPC   H3X21809   3.134   2.716  11.097  1.2829 -0.4037 -2.1340
  189POPC   H3Y21810   3.146   2.534  11.118  0.1276 -0.3486 -2.0461
  189POPC   C3421811   3.312   2.618  11.010  0.0407  0.7295 -0.8192
  189POPC   H4X21812   3.266   2.582  10.916 -0.3926  1.1289 -0.7644
  189POPC   H4Y21813   3.387   2.543  11.041 -1.1723  0.0888  0.7153
  189POPC   C3521814   3.378   2.756  10.983  0.5505 -0.0248 -0.5425
  189POPC   H5X21815   3.417   2.808  11.073  1.4247  0.5006 -1.2030
  189POPC   H5Y21816   3.301   2.820  10.935  0.5945  1.0128  0.7319
  189POPC   C3621817   3.503   2.755  10.899  0.3851 -0.5757  0.1259
  189POPC   H6X21818   3.585   2.708  10.957 -0.7121  0.0339  2.3156
  189POPC   H6Y21819   3.541   2.857  10.881 -0.0426 -0.3817  0.3017
  189POPC   C3721820   3.483   2.672  10.774 -0.4915 -0.7523 -0.3485
  189POPC   H7X21821   3.390   2.716  10.732 -1.2672 -3.2682 -1.4545
  189POPC   H7Y21822   3.470   2.563  10.792 -0.3176 -0.5614  1.0332
  189POPC   C3821823   3.601   2.683  10.674  0.3880  0.4403  1.0006
  189POPC   H8X21824   3.686   2.639  10.729  0.5474 -1.2747 -0.5128
  189POPC   H8Y21825   3.627   2.791  10.664 -0.1923  0.4502 -1.0074
  189POPC   C3921826   3.570   2.610  10.540 -0.0371 -0.5967  0.8134
  189POPC   H9X21827   3.472   2.657  10.520  0.0873 -0.3775  0.7248
  189POPC   H9Y21828   3.562   2.500  10.553 -0.4451 -0.6121  0.4489
  189POPC  C31021829   3.670   2.647  10.429  0.0063 -0.2360  0.2510
  189POPC  H10X21830   3.681   2.568  10.353  1.7173 -1.2004  1.4431
  189POPC  H10Y21831   3.773   2.643  10.470  0.2049  0.8626 -0.1082
  189POPC  C31121832   3.643   2.784  10.368  0.2707 -0.8306  0.7201
  189POPC  H11X21833   3.660   2.869  10.437  2.9508 -0.1376 -0.6425
  189POPC  H11Y21834   3.539   2.796  10.330  1.0344  2.4405 -0.6407
  189POPC  C31221835   3.744   2.815  10.256  0.0227  0.7465 -0.9857
  189POPC  H12X21836   3.852   2.812  10.282 -0.3497 -0.5756  0.5915
  189POPC  H12Y21837   3.724   2.922  10.231 -1.8769  0.5396 -0.5301
  189POPC  C31321838   3.730   2.722  10.129  0.3508 -0.5087  0.2414
  189POPC  H13X21839   3.624   2.688  10.122  0.2248  0.0941 -1.3900
  189POPC  H13Y21840   3.787   2.629  10.144 -0.0885 -0.8108  0.0604
  189POPC  C31421841   3.770   2.788   9.998 -0.4759  0.1051  0.3529
  189POPC  H14X21842   3.877   2.817   9.992  0.2032 -2.3479 -0.9096
  189POPC  H14Y21843   3.697   2.870   9.981 -0.2402  0.1142 -0.7030
  189POPC  C31521844   3.747   2.689   9.884  0.6859 -0.2279 -0.3934
  189POPC  H15X21845   3.723   2.742   9.790 -1.4394 -0.7948 -0.2159
  189POPC  H15Y21846   3.654   2.629   9.897 -0.7407  2.1751  1.2267
  189POPC  C31621847   3.861   2.596   9.867 -0.6643  0.6980 -0.6594
  189POPC  H16X21848   3.838   2.519   9.790 -3.5462 -0.0992  0.8531
  189POPC  H16Y21849   3.877   2.545   9.963  0.6356  0.5296 -0.9539
  189POPC  H16Z21850   3.957   2.647   9.842 -0.0836 -0.1002 -0.0747
  190POPC     N21851   0.971   6.476  11.358  0.2391  0.3782 -0.2261
  190POPC   C1221852   1.047   6.522  11.479 -0.1588 -0.1050 -0.3652
  190POPC  H12A21853   1.042   6.443  11.553 -3.4342 -0.4975 -0.8416
  190POPC  H12B21854   0.997   6.603  11.529  1.1993 -1.0067  2.7249
  190POPC   C1321855   1.053   6.377  11.280  0.6812  0.1395 -0.1426
  190POPC  H13A21856   1.069   6.289  11.340  1.3799  2.3267  3.1399
  190POPC  H13B21857   0.991   6.357  11.193  0.9622  2.7187 -1.0173
  190POPC  H13C21858   1.143   6.418  11.237  2.0727 -1.0432  1.5188
  190POPC   C1421859   0.843   6.410  11.405 -0.7640  0.1663  0.5792
  190POPC  H14A21860   0.782   6.387  11.319 -1.0213  0.0329  0.7956
  190POPC  H14B21861   0.877   6.323  11.459  0.4526  1.2465  1.6050
  190POPC  H14C21862   0.784   6.477  11.466 -0.3381  2.3950 -1.3050
  190POPC   C1521863   0.929   6.587  11.266 -0.4726 -0.0025 -0.4068
  190POPC  H15A21864   0.856   6.554  11.193 -0.2900  1.2332 -1.1813
  190POPC  H15B21865   1.009   6.639  11.216 -1.2154  3.0814  1.3143
  190POPC  H15C21866   0.887   6.663  11.330  0.1097  0.4023 -0.5013
  190POPC   C1121867   1.182   6.585  11.456  0.0154  0.0889  0.6654
  190POPC  H11A21868   1.257   6.524  11.401  0.9952  1.9224 -0.1154
  190POPC  H11B21869   1.228   6.591  11.557  0.6855 -1.3029  0.4719
  190POPC     P21870   1.272   6.771  11.312  0.3885 -0.0239  0.0158
  190POPC   O1321871   1.395   6.768  11.393  0.1996  0.3439 -0.2242
  190POPC   O1421872   1.227   6.904  11.265  0.1697  0.0803  0.5189
  190POPC   O1221873   1.160   6.715  11.403  0.1590 -0.1962  0.2243
  190POPC   O1121874   1.288   6.672  11.196 -0.1646  0.3519 -0.0166
  190POPC    C121875   1.206   6.655  11.076 -0.2461  0.8739 -0.1778
  190POPC    HA21876   1.139   6.743  11.063  0.6516  1.7262  0.7618
  190POPC    HB21877   1.146   6.562  11.076 -0.2047  0.7711 -2.5306
  190POPC    C221878   1.283   6.645  10.944 -0.0843 -0.0557 -1.2210
  190POPC    HS21879   1.321   6.541  10.932 -1.8683 -0.8156 -0.6834
  190POPC   O2121880   1.396   6.733  10.956 -0.1838  0.1206  0.0395
  190POPC   C2121881   1.509   6.700  10.894 -0.5332 -0.3395  0.1884
  190POPC   O2221882   1.521   6.596  10.826 -0.5658 -0.1082  0.3754
  190POPC   C2221883   1.612   6.812  10.913 -0.9492 -0.2334  0.7252
  190POPC   H2R21884   1.684   6.776  10.990 -0.1575  0.8305  0.5034
  190POPC   H2S21885   1.576   6.904  10.962 -0.4634  1.1907 -1.4612
  190POPC    C321886   1.195   6.675  10.824  0.1086  0.1360  1.0417
  190POPC    HX21887   1.169   6.783  10.836 -0.6024  0.1359 -0.3319
  190POPC    HY21888   1.100   6.618  10.826 -1.7617  3.0433  2.1220
  190POPC   O3121889   1.265   6.663  10.700  0.0974  0.5081  0.6143
  190POPC   C3121890   1.266   6.535  10.656 -0.4704  0.4810 -0.1076
  190POPC   O3221891   1.202   6.442  10.709 -0.5573 -0.2387 -0.3718
  190POPC   C3221892   1.365   6.517  10.542 -0.2781 -0.0686  0.3411
  190POPC   H2X21893   1.465   6.516  10.591 -0.4519  1.9746  0.8337
  190POPC   H2Y21894   1.360   6.609  10.479  2.0287 -0.6471 -0.7688
  190POPC   C2321895   1.691   6.847  10.783 -0.0330  0.3870 -0.2557
  190POPC   H3R21896   1.737   6.752  10.748 -0.2104  0.7184 -1.4330
  190POPC   H3S21897   1.779   6.911  10.803  0.0455 -0.2911  1.8318
  190POPC   C2421898   1.621   6.931  10.682  0.1281 -0.3636  0.3215
  190POPC   H4R21899   1.679   6.950  10.589 -0.4762  1.6040  0.2889
  190POPC   H4S21900   1.615   7.027  10.738  0.3833  0.0270 -0.3143
  190POPC   C2521901   1.475   6.885  10.651 -0.0754  0.1779 -0.8982
  190POPC   H5R21902   1.399   6.885  10.732  0.9939 -1.5095  0.1752
  190POPC   H5S21903   1.492   6.777  10.636  0.5479  0.1652 -0.1728
  190POPC   C2621904   1.402   6.946  10.538 -1.2101 -0.0508 -0.0464
  190POPC   H6R21905   1.419   7.051  10.568 -0.6218 -0.2320  0.2754
  190POPC   H6S21906   1.295   6.920  10.547 -1.2708  0.2190 -0.0047
  190POPC   C2721907   1.447   6.917  10.399 -0.0777 -0.3112  0.6947
  190POPC   H7R21908   1.467   6.813  10.364  1.1277  0.4216 -0.9498
  190POPC   H7S21909   1.547   6.963  10.388  0.2776 -1.0053  0.9359
  190POPC   C2821910   1.349   6.984  10.310  0.2913 -0.9384  0.7428
  190POPC   H8R21911   1.405   7.016  10.220 -0.1946 -0.4891  0.5990
  190POPC   H8S21912   1.313   7.079  10.355  1.0604 -0.7277  0.9186
  190POPC   C2921913   1.225   6.899  10.270 -0.4306 -0.1428  0.4371
  190POPC   H9121914   1.144   6.884  10.343  0.0853  1.8697  1.4904
  190POPC  C21021915   1.199   6.852  10.146  0.6164  0.0847 -0.4451
  190POPC  H10121916   1.114   6.783  10.134  1.6874 -1.7211  1.5981
  190POPC  C21121917   1.282   6.875  10.022  0.1411 -0.2468  0.5048
  190POPC  H11R21918   1.372   6.810  10.015 -1.4085 -2.4458 -0.1197
  190POPC  H11S21919   1.315   6.980  10.009 -3.4558  0.9476  0.0250
  190POPC  C21221920   1.203   6.856   9.890 -0.8832  0.3549 -0.0974
  190POPC  H12R21921   1.116   6.926   9.884 -0.6922  0.5143 -1.3349
  190POPC  H12S21922   1.171   6.750   9.894  1.2428 -0.3367 -0.0026
  190POPC  C21321923   1.285   6.880   9.763 -0.2447 -0.1052 -0.5748
  190POPC  H13R21924   1.378   6.819   9.762  0.7732  1.3617  0.5386
  190POPC  H13S21925   1.326   6.983   9.759  0.0540 -0.2411 -2.8724
  190POPC  C21421926   1.202   6.850   9.633  0.6319  0.0275  0.0458
  190POPC  H14R21927   1.107   6.903   9.656  0.1720 -0.4488 -0.7385
  190POPC  H14S21928   1.194   6.740   9.623  2.4826 -0.2468  0.9607
  190POPC  C21521929   1.274   6.912   9.510  0.8205 -0.4980 -0.1929
  190POPC  H15R21930   1.360   6.849   9.481 -0.3669 -2.1032 -0.3510
  190POPC  H15S21931   1.308   7.016   9.533  0.2234 -0.2945 -0.2142
  190POPC  C21621932   1.180   6.936   9.399  0.3616 -0.3175  0.5652
  190POPC  H16R21933   1.093   6.996   9.431  1.3005  2.4358 -1.5908
  190POPC  H16S21934   1.139   6.843   9.355  2.2101 -0.0391 -2.0462
  190POPC  C21721935   1.244   7.021   9.289  0.1625  0.2788  0.1681
  190POPC  H17R21936   1.340   6.969   9.268 -1.0564 -1.0599 -2.5299
  190POPC  H17S21937   1.264   7.121   9.334 -0.7591 -0.6630  2.9005
  190POPC  C21821938   1.162   7.050   9.164 -0.0533 -0.6859 -0.9084
  190POPC  H18R21939   1.212   7.131   9.106  0.8621 -0.6471 -0.1021
  190POPC  H18S21940   1.063   7.089   9.195 -0.1688 -1.2235 -0.6030
  190POPC  H18T21941   1.151   6.964   9.094 -3.2774 -0.9384 -0.2319
  190POPC   C3321942   1.343   6.390  10.458  0.0942  0.6447 -0.4526
  190POPC   H3X21943   1.296   6.302  10.507  1.4625 -0.7368 -1.5440
  190POPC   H3Y21944   1.444   6.352  10.432 -0.4693 -0.7929 -0.6367
  190POPC   C3421945   1.271   6.422  10.333  0.1906  0.5054  0.6355
  190POPC   H4X21946   1.305   6.516  10.285  0.0831 -1.1659 -3.0188
  190POPC   H4Y21947   1.165   6.420  10.366 -0.3447 -0.2060 -1.0260
  190POPC   C3521948   1.288   6.300  10.243  0.4573  0.1776  0.4721
  190POPC   H5X21949   1.251   6.211  10.297 -0.7691 -0.1325 -0.8154
  190POPC   H5Y21950   1.397   6.286  10.224  0.3753 -0.7879  0.6415
  190POPC   C3621951   1.218   6.311  10.111 -0.7955 -0.3388 -0.0717
  190POPC   H6X21952   1.110   6.338  10.120 -1.2026 -1.7352 -0.4539
  190POPC   H6Y21953   1.233   6.211  10.065 -2.3474 -1.1453  1.0936
  190POPC   C3721954   1.281   6.410  10.014 -0.7653  0.4907  0.1849
  190POPC   H7X21955   1.391   6.395  10.008 -0.6407  1.1569  0.7301
  190POPC   H7Y21956   1.248   6.512  10.044 -0.1368  0.7338  0.0724
  190POPC   C3821957   1.223   6.390   9.871 -0.6637  0.1151  0.3680
  190POPC   H8X21958   1.120   6.432   9.870 -0.7255  0.1533  2.9621
  190POPC   H8Y21959   1.223   6.280   9.859 -0.8645 -0.1876  2.7262
  190POPC   C3921960   1.306   6.457   9.748  0.1508  0.1264  0.1200
  190POPC   H9X21961   1.402   6.403   9.742 -0.6983 -1.3342 -1.1602
  190POPC   H9Y21962   1.322   6.564   9.774  0.0198 -0.0170  0.8215
  190POPC  C31021963   1.231   6.451   9.614  0.6450  0.4027  0.5813
  190POPC  H10X21964   1.131   6.495   9.637  0.2540 -0.3914  0.4328
  190POPC  H10Y21965   1.205   6.345   9.595  0.2405  0.9256 -2.2191
  190POPC  C31121966   1.306   6.512   9.504  0.0333 -0.5484  0.6700
  190POPC  H11X21967   1.408   6.468   9.506  1.0609  1.7282  1.5965
  190POPC  H11Y21968   1.325   6.619   9.525  0.0667 -0.6548  1.2095
  190POPC  C31221969   1.253   6.495   9.359  0.2328  0.4920 -0.2407
  190POPC  H12X21970   1.157   6.550   9.350  0.2015  0.3451 -0.8643
  190POPC  H12Y21971   1.226   6.390   9.337 -2.4980  0.9459  0.6181
  190POPC  C31321972   1.344   6.541   9.251  0.4604 -1.0538  0.8371
  190POPC  H13X21973   1.448   6.509   9.276 -0.0649 -2.7283  1.0613
  190POPC  H13Y21974   1.352   6.651   9.260  0.6535 -1.1934  2.9632
  190POPC  C31421975   1.296   6.512   9.110  0.0088 -0.6628 -0.4214
  190POPC  H14X21976   1.196   6.561   9.114 -0.5667 -1.7439 -1.1880
  190POPC  H14Y21977   1.266   6.407   9.089  0.6651 -0.9210 -0.1250
  190POPC  C31521978   1.381   6.575   8.997  0.2503  0.5846 -0.0987
  190POPC  H15X21979   1.475   6.516   8.989 -0.5634 -0.5755 -1.7964
  190POPC  H15Y21980   1.396   6.680   9.031 -3.3885  1.1265  0.1890
  190POPC  C31621981   1.307   6.580   8.866  0.6324  0.0215 -0.1581
  190POPC  H16X21982   1.370   6.628   8.788  0.6771  0.7096  0.2949
  190POPC  H16Y21983   1.204   6.620   8.872  0.3098 -0.7807 -0.2919
  190POPC  H16Z21984   1.301   6.477   8.825  1.8165 -0.6917  1.3909
  191POPC     N21985   1.374   6.408   6.320 -0.0319  0.3281  1.0042
  191POPC   C1221986   1.314   6.312   6.419 -0.0207 -0.1153 -0.7034
  191POPC  H12A21987   1.293   6.377   6.503  1.2981  0.0050 -0.4441
  191POPC  H12B21988   1.394   6.246   6.449  1.1659  1.5631 -0.0335
  191POPC   C1321989   1.487   6.481   6.386  0.0766  0.1945 -0.1813
  191POPC  H13A21990   1.443   6.523   6.475 -1.0193 -1.8242  0.2894
  191POPC  H13B21991   1.572   6.421   6.413 -0.1269 -0.0766 -0.1358
  191POPC  H13C21992   1.513   6.567   6.326 -1.8931  0.0320 -1.3721
  191POPC   C1421993   1.440   6.330   6.205 -0.0954  0.3027 -0.1219
  191POPC  H14A21994   1.479   6.381   6.118  0.2207 -1.0506 -0.8054
  191POPC  H14B21995   1.523   6.263   6.224 -1.2376 -1.5919 -1.4426
  191POPC  H14C21996   1.380   6.255   6.156 -0.9052  0.3335  0.7969
  191POPC   C1521997   1.279   6.493   6.260 -0.3718 -0.2959  0.5534
  191POPC  H15A21998   1.197   6.432   6.226  0.0234 -0.8730  0.6247
  191POPC  H15B21999   1.317   6.551   6.177 -3.4842 -1.2364 -1.6851
  191POPC  H15C22000   1.235   6.565   6.328 -1.2762 -1.8433  1.6736
  191POPC   C1122001   1.195   6.224   6.381  0.1477 -0.3998 -0.0072
  191POPC  H11A22002   1.162   6.145   6.451  2.3412  0.3526  2.0281
  191POPC  H11B22003   1.232   6.171   6.291  0.6368  2.4117 -1.5936
  191POPC     P22004   0.947   6.311   6.421 -0.3648 -0.0217 -0.0142
  191POPC   O1322005   0.860   6.209   6.356 -0.5193  0.5706 -0.1566
  191POPC   O1422006   0.896   6.451   6.431  0.1683  0.4030 -0.5409
  191POPC   O1222007   1.083   6.310   6.340  0.1335  0.6853 -0.4381
  191POPC   O1122008   0.986   6.257   6.563  0.3672  0.3948  0.0608
  191POPC    C122009   0.984   6.325   6.684 -0.3432 -0.5239 -0.1953
  191POPC    HA22010   0.881   6.341   6.721  0.0791  0.6313  0.5190
  191POPC    HB22011   1.026   6.426   6.661 -1.3767 -0.0501 -0.0357
  191POPC    C222012   1.053   6.251   6.797  0.6409 -0.1594  0.3440
  191POPC    HS22013   1.157   6.231   6.765  0.3973 -2.5849  0.9322
  191POPC   O2122014   0.979   6.132   6.825  0.2478 -0.2705  0.2746
  191POPC   C2122015   1.050   6.026   6.864  0.2419  0.4822 -0.1008
  191POPC   O2222016   1.171   6.021   6.872  0.1636 -0.0952 -0.1176
  191POPC   C2222017   0.963   5.897   6.897  0.0023 -0.0018 -0.6759
  191POPC   H2R22018   1.032   5.810   6.906  1.4765  1.2708  0.9556
  191POPC   H2S22019   0.908   5.888   6.801 -1.2352  0.8048 -0.0579
  191POPC    C322020   1.070   6.340   6.928 -0.2693  0.0519  0.0944
  191POPC    HX22021   0.968   6.374   6.956  0.2608  3.5367 -1.7083
  191POPC    HY22022   1.132   6.427   6.900  3.5116 -1.6928  2.2666
  191POPC   O3122023   1.130   6.259   7.031 -0.0492 -0.3832  0.1123
  191POPC   C3122024   1.263   6.287   7.051 -0.6108  0.9610  0.0905
  191POPC   O3222025   1.333   6.353   6.979  0.4220  0.0381  0.6707
  191POPC   C3222026   1.321   6.211   7.166 -0.1787  0.3711 -0.0654
  191POPC   H2X22027   1.399   6.142   7.126 -1.6964 -0.8876 -0.9969
  191POPC   H2Y22028   1.246   6.139   7.206 -0.3624 -0.8208 -2.3227
  191POPC   C2322029   0.868   5.910   7.019  0.0136  0.3742  0.6060
  191POPC   H3R22030   0.809   5.817   7.036  2.2323 -0.9170  1.7190
  191POPC   H3S22031   0.799   5.996   7.011  0.9499  1.0516 -0.4933
  191POPC   C2422032   0.950   5.934   7.143  0.1768  0.1737 -0.2504
  191POPC   H4R22033   1.026   6.011   7.117 -1.0584  0.8242 -2.1456
  191POPC   H4S22034   1.004   5.838   7.154 -0.5451 -0.3000 -0.7392
  191POPC   C2522035   0.880   5.956   7.281 -0.2583 -0.0564  0.7407
  191POPC   H5R22036   0.814   5.869   7.300  1.4381 -1.3664  0.8749
  191POPC   H5S22037   0.824   6.052   7.271  1.4621  1.2346  2.6402
  191POPC   C2622038   0.986   5.968   7.390  0.3482  0.0241 -0.4036
  191POPC   H6R22039   1.059   6.050   7.371  1.9758 -0.9880  1.1289
  191POPC   H6S22040   1.048   5.876   7.390  0.4143  0.0636 -1.0231
  191POPC   C2722041   0.918   5.996   7.526 -0.4523  0.6405 -0.0304
  191POPC   H7R22042   0.819   5.947   7.535  0.1548 -0.3541  1.6059
  191POPC   H7S22043   0.903   6.106   7.526 -1.0594  0.5719 -0.8779
  191POPC   C2822044   0.980   5.943   7.653  0.5056  0.0471  0.0705
  191POPC   H8R22045   0.986   5.832   7.656 -0.0141  0.0016 -0.3847
  191POPC   H8S22046   0.912   5.965   7.738  1.1627 -4.1853  1.9536
  191POPC   C2922047   1.111   6.015   7.685  0.1638  0.0730  0.8973
  191POPC   H9122048   1.181   6.029   7.601 -0.3096 -0.2255  0.4535
  191POPC  C21022049   1.143   6.084   7.799  0.1733  0.2015 -0.1746
  191POPC  H10122050   1.243   6.130   7.802 -0.8330  2.4775  2.9229
  191POPC  C21122051   1.061   6.094   7.922  0.5702 -0.0691  0.3512
  191POPC  H11R22052   0.953   6.082   7.900  0.4990  0.6828  0.2441
  191POPC  H11S22053   1.046   6.200   7.953 -0.0250 -0.0231 -0.0772
  191POPC  C21222054   1.113   6.018   8.040  0.2225 -0.4798 -0.4064
  191POPC  H12R22055   1.141   5.914   8.015 -0.7617 -1.0279  0.6699
  191POPC  H12S22056   1.036   5.996   8.117  0.3005  2.1968  0.5476
  191POPC  C21322057   1.230   6.090   8.106  0.0659 -0.5969  0.1661
  191POPC  H13R22058   1.196   6.189   8.142 -0.4965 -0.9301  0.5532
  191POPC  H13S22059   1.308   6.102   8.027  1.6359 -3.0664  1.2305
  191POPC  C21422060   1.272   6.012   8.227  0.4730 -0.1855  0.4820
  191POPC  H14R22061   1.290   5.905   8.201  0.8863  0.1425 -0.6877
  191POPC  H14S22062   1.182   6.010   8.292 -0.3163  3.9096 -0.1988
  191POPC  C21522063   1.398   6.066   8.290  0.1182  0.3145  0.1868
  191POPC  H15R22064   1.385   6.174   8.314 -0.3603  0.3997 -0.4395
  191POPC  H15S22065   1.478   6.053   8.214 -0.4289 -0.9829 -0.1850
  191POPC  C21622066   1.432   5.987   8.419 -0.7394  0.3195  0.4624
  191POPC  H16R22067   1.531   6.033   8.439 -0.5832  0.5036 -0.7026
  191POPC  H16S22068   1.434   5.882   8.384 -1.1645  0.7944 -1.0545
  191POPC  C21722069   1.342   6.016   8.534 -0.1121 -0.2851  0.2450
  191POPC  H17R22070   1.234   6.022   8.510 -0.1083  0.2200  0.3476
  191POPC  H17S22071   1.375   6.112   8.579  0.6054 -1.1899  1.7340
  191POPC  C21822072   1.371   5.914   8.644  0.5188 -0.1264 -0.8052
  191POPC  H18R22073   1.318   5.819   8.619 -2.5316  0.3468  2.8287
  191POPC  H18S22074   1.330   5.944   8.743  0.2765 -0.8353 -0.6811
  191POPC  H18T22075   1.476   5.901   8.676  0.2117  0.4071  0.4848
  191POPC   C3322076   1.358   6.309   7.280 -0.6331  0.1534 -0.1439
  191POPC   H3X22077   1.271   6.374   7.300 -1.9690 -1.6049  0.0266
  191POPC   H3Y22078   1.447   6.372   7.257  0.9684 -2.5061 -1.8436
  191POPC   C3422079   1.386   6.246   7.416  0.7096  0.1218  0.3131
  191POPC   H4X22080   1.486   6.198   7.419 -0.1474 -1.7960  3.2058
  191POPC   H4Y22081   1.303   6.180   7.450 -0.5336  1.4294 -0.0868
  191POPC   C3522082   1.393   6.357   7.520  0.1227 -0.0127  0.1632
  191POPC   H5X22083   1.288   6.386   7.540  0.0115  0.8158 -1.4346
  191POPC   H5Y22084   1.454   6.440   7.478 -0.7076 -0.0499 -1.1892
  191POPC   C3622085   1.460   6.314   7.647 -0.4858  0.2889  0.1373
  191POPC   H6X22086   1.568   6.288   7.643  0.0087  1.9417  1.4936
  191POPC   H6Y22087   1.406   6.224   7.684  0.9218 -1.7003 -2.3406
  191POPC   C3722088   1.456   6.415   7.759 -0.3279 -0.5848  0.7535
  191POPC   H7X22089   1.348   6.439   7.774 -0.3362  3.6798 -3.5727
  191POPC   H7Y22090   1.508   6.507   7.726 -2.0901  0.5685  1.0398
  191POPC   C3822091   1.505   6.350   7.892  0.0790  0.6104 -0.7678
  191POPC   H8X22092   1.612   6.323   7.876 -0.0255  0.6015 -1.4949
  191POPC   H8Y22093   1.461   6.255   7.928 -0.1496  0.5521 -1.1982
  191POPC   C3922094   1.509   6.448   8.005 -0.1828 -0.5161 -0.3480
  191POPC   H9X22095   1.404   6.473   8.031  0.2626  0.1859  0.8458
  191POPC   H9Y22096   1.559   6.543   7.976 -1.2626  0.6548  1.4139
  191POPC  C31022097   1.570   6.393   8.140  0.9228 -0.1116 -0.1157
  191POPC  H10X22098   1.678   6.368   8.132  0.3115 -2.9569 -0.4321
  191POPC  H10Y22099   1.515   6.299   8.164  1.3788 -0.3269  0.1009
  191POPC  C31122100   1.558   6.489   8.266  0.3718  0.5381 -0.2008
  191POPC  H11X22101   1.461   6.543   8.274 -0.4359 -0.7696 -0.8568
  191POPC  H11Y22102   1.626   6.577   8.262 -1.3911  1.8993 -3.0059
  191POPC  C31222103   1.575   6.427   8.405 -0.2592  0.9446 -0.1283
  191POPC  H12X22104   1.673   6.374   8.413 -1.8834 -2.6730 -1.7494
  191POPC  H12Y22105   1.502   6.343   8.407 -0.6557  1.1388 -2.6588
  191POPC  C31322106   1.562   6.521   8.531 -0.0601  0.1172  0.3761
  191POPC  H13X22107   1.476   6.588   8.513 -0.0654 -0.1398 -0.6128
  191POPC  H13Y22108   1.649   6.590   8.533 -0.8947  1.2261 -0.6896
  191POPC  C31422109   1.567   6.445   8.668  0.6254 -0.4712  0.0531
  191POPC  H14X22110   1.477   6.382   8.683  1.0660 -1.1041  0.1186
  191POPC  H14Y22111   1.559   6.526   8.743  0.0284 -0.6762  0.2171
  191POPC  C31522112   1.694   6.372   8.697 -0.4903  0.1159  0.0906
  191POPC  H15X22113   1.763   6.453   8.728 -0.8927 -0.0023  1.3308
  191POPC  H15Y22114   1.715   6.318   8.602 -0.9740  1.2579 -0.6866
  191POPC  C31622115   1.683   6.269   8.812  0.0406 -0.7365 -0.0637
  191POPC  H16X22116   1.577   6.234   8.816 -0.0143 -0.7712 -1.5473
  191POPC  H16Y22117   1.700   6.321   8.909  0.5994  1.1411 -1.1329
  191POPC  H16Z22118   1.745   6.177   8.805  0.2692 -0.6188  0.3655
  192POPC     N22119   5.937   2.634   6.475  0.4575  0.4357 -0.5412
  192POPC   C1222120   6.088   2.662   6.481 -0.3066  1.0392 -0.9692
  192POPC  H12A22121   6.092   2.760   6.527 -0.0365  0.2256  0.8443
  192POPC  H12B22122   6.129   2.672   6.382  1.4364 -3.3741 -0.9590
  192POPC   C1322123   5.864   2.750   6.423 -0.2096 -0.0893 -0.4784
  192POPC  H13A22124   5.893   2.781   6.324 -1.7081 -0.6348 -1.1229
  192POPC  H13B22125   5.761   2.716   6.417 -0.3348  0.3528 -0.8069
  192POPC  H13C22126   5.878   2.837   6.486  1.2588 -0.2023 -0.6214
  192POPC   C1422127   5.927   2.518   6.377  0.4150  0.5733  0.5090
  192POPC  H14A22128   6.004   2.447   6.403  0.6386 -0.2916 -2.1873
  192POPC  H14B22129   5.830   2.472   6.365  1.5122 -1.4920 -1.1183
  192POPC  H14C22130   5.952   2.556   6.279 -1.5590  0.4024 -0.0949
  192POPC   C1522131   5.877   2.608   6.615 -0.2873 -0.4860 -0.5057
  192POPC  H15A22132   5.771   2.596   6.627 -0.2738 -0.4862 -0.3799
  192POPC  H15B22133   5.907   2.686   6.683  1.4254 -1.2931 -0.2659
  192POPC  H15C22134   5.921   2.513   6.643  2.5265  1.1683  1.1487
  192POPC   C1122135   6.182   2.572   6.569  0.6003 -0.3579  0.1122
  192POPC  H11A22136   6.150   2.570   6.675 -0.3067  0.5245 -0.1185
  192POPC  H11B22137   6.281   2.622   6.566  0.1592  0.7576  2.2229
  192POPC     P22138   6.292   2.401   6.404  0.3423 -0.0328 -0.0314
  192POPC   O1322139   6.247   2.432   6.267 -0.3923  0.3812  0.3863
  192POPC   O1422140   6.323   2.261   6.437  0.2383  0.1288 -0.0496
  192POPC   O1222141   6.191   2.443   6.513 -0.1856  0.2226  0.1352
  192POPC   O1122142   6.420   2.493   6.438  0.2745 -0.3257  0.1120
  192POPC    C122143   6.532   2.435   6.508  0.6824 -0.3226  0.4592
  192POPC    HA22144   6.625   2.488   6.478  0.0384  1.0258  0.7784
  192POPC    HB22145   6.543   2.325   6.495  0.5443 -0.2628 -0.2219
  192POPC    C222146   6.507   2.442   6.666  1.1995  0.0117 -0.8643
  192POPC    HS22147   6.400   2.421   6.687  1.2951  0.4514  0.1514
  192POPC   O2122148   6.556   2.561   6.712 -0.3849  0.3517 -0.3027
  192POPC   C2122149   6.490   2.636   6.785  0.2129  0.1452  0.1695
  192POPC   O2222150   6.376   2.617   6.834  0.0625  0.6377  0.6349
  192POPC   C2222151   6.560   2.775   6.795 -0.2267  0.0495  0.2182
  192POPC   H2R22152   6.473   2.844   6.797  0.0530  0.4020  0.6596
  192POPC   H2S22153   6.610   2.797   6.698  1.4564 -0.5505  0.9182
  192POPC    C322154   6.590   2.329   6.735 -0.4790  1.4003 -0.1124
  192POPC    HX22155   6.694   2.350   6.704 -0.6227  0.5194 -1.2962
  192POPC    HY22156   6.563   2.233   6.684  1.3021 -0.3843  2.0958
  192POPC   O3122157   6.561   2.301   6.879 -0.0283 -0.4741  0.0923
  192POPC   C3122158   6.656   2.337   6.961  0.4416 -0.0980 -0.2830
  192POPC   O3222159   6.757   2.398   6.935  0.4456  0.2445 -0.1451
  192POPC   C3222160   6.626   2.281   7.102 -0.2944 -0.8477  0.0195
  192POPC   H2X22161   6.582   2.180   7.084 -1.8024 -0.1984 -0.0654
  192POPC   H2Y22162   6.547   2.349   7.139  0.4199 -0.1145  0.2094
  192POPC   C2322163   6.635   2.790   6.926  0.0527  0.1481  1.1083
  192POPC   H3R22164   6.725   2.850   6.900  0.6140 -0.8844  0.5923
  192POPC   H3S22165   6.677   2.690   6.952  1.2509  0.5895  0.9388
  192POPC   C2422166   6.542   2.824   7.043 -0.6696 -0.1955 -0.3494
  192POPC   H4R22167   6.475   2.736   7.055  0.4337 -0.7563  2.5629
  192POPC   H4S22168   6.490   2.922   7.037  1.4510  1.5070  4.2447
  192POPC   C2522169   6.627   2.835   7.176  0.0646  0.4100  0.6519
  192POPC   H5R22170   6.673   2.936   7.168 -0.2592  0.4475 -1.0444
  192POPC   H5S22171   6.718   2.772   7.179  0.6509  1.2372  0.5419
  192POPC   C2622172   6.536   2.821   7.296 -0.0125  0.1350 -0.6139
  192POPC   H6R22173   6.479   2.726   7.302  0.9348 -0.3848  0.7667
  192POPC   H6S22174   6.469   2.909   7.291  0.2004  0.2615 -4.9541
  192POPC   C2722175   6.619   2.817   7.434 -0.0686  0.3840  0.3795
  192POPC   H7R22176   6.675   2.913   7.428  1.3298 -0.1857  2.8753
  192POPC   H7S22177   6.688   2.730   7.431 -1.0820 -0.5525  2.4573
  192POPC   C2822178   6.532   2.793   7.564  0.7000  0.1582 -0.3907
  192POPC   H8R22179   6.475   2.699   7.548 -2.1627  1.8611 -0.9444
  192POPC   H8S22180   6.455   2.873   7.563  0.1149 -0.2712  2.0676
  192POPC   C2922181   6.617   2.782   7.692  0.0749 -0.0618 -0.1067
  192POPC   H9122182   6.671   2.687   7.693  0.5114  0.0532 -3.3261
  192POPC  C21022183   6.635   2.873   7.786 -0.8692  0.2711  0.0092
  192POPC  H10122184   6.700   2.846   7.871  0.6120  1.1158 -0.8086
  192POPC  C21122185   6.578   3.014   7.789 -0.0442 -0.3517  0.0129
  192POPC  H11R22186   6.494   3.025   7.717  0.2418  4.5395  0.0950
  192POPC  H11S22187   6.659   3.086   7.763 -2.2162  2.3263  0.2009
  192POPC  C21222188   6.528   3.046   7.930 -0.2067  0.9460 -0.1013
  192POPC  H12R22189   6.609   3.037   8.005 -0.1471 -0.2833 -0.3017
  192POPC  H12S22190   6.458   2.965   7.959 -0.0615  0.7356 -0.3340
  192POPC  C21322191   6.450   3.180   7.943  0.1789  0.4010 -0.0581
  192POPC  H13R22192   6.364   3.177   7.873  0.7449  0.3230 -0.7569
  192POPC  H13S22193   6.526   3.255   7.909  1.3304  0.8728  3.1793
  192POPC  C21422194   6.397   3.211   8.079  0.1893  0.1649 -0.0894
  192POPC  H14R22195   6.322   3.290   8.058 -2.8896 -2.6542 -0.6523
  192POPC  H14S22196   6.481   3.239   8.147  1.5822  1.0621 -2.1011
  192POPC  C21522197   6.317   3.099   8.149  0.6728  0.1129  0.1609
  192POPC  H15R22198   6.331   3.109   8.259  0.2999  1.9497  0.0720
  192POPC  H15S22199   6.365   3.000   8.133  0.5402  0.2166 -0.9758
  192POPC  C21622200   6.161   3.102   8.121 -0.6451 -0.0293  0.1332
  192POPC  H16R22201   6.137   3.080   8.015  0.4535 -0.6854 -0.0033
  192POPC  H16S22202   6.120   3.204   8.139 -0.4142  0.0089  0.4694
  192POPC  C21722203   6.094   3.005   8.219  0.7824 -0.6302  0.2352
  192POPC  H17R22204   6.110   3.031   8.326  1.1844  1.4555 -0.2844
  192POPC  H17S22205   6.142   2.905   8.213 -1.0666 -1.5245 -0.2790
  192POPC  C21822206   5.944   2.993   8.188 -0.4884  0.3524 -0.2703
  192POPC  H18R22207   5.882   3.082   8.207 -0.5159  0.1257  0.7520
  192POPC  H18S22208   5.898   2.914   8.251 -0.5848  0.3520 -0.3431
  192POPC  H18T22209   5.928   2.966   8.082 -2.6108  0.2189  0.0432
  192POPC   C3322210   6.745   2.287   7.203 -0.2529 -0.0734 -0.0417
  192POPC   H3X22211   6.793   2.387   7.194  0.1162 -0.2906 -0.5407
  192POPC   H3Y22212   6.820   2.210   7.174  0.6257 -0.0472  2.0408
  192POPC   C3422213   6.696   2.267   7.353 -1.1698 -0.0684 -0.5942
  192POPC   H4X22214   6.634   2.175   7.346 -1.3730  0.1897 -4.1680
  192POPC   H4Y22215   6.625   2.346   7.386 -0.1623  0.7701 -0.3801
  192POPC   C3522216   6.819   2.251   7.444  0.4341  0.3654  0.1509
  192POPC   H5X22217   6.881   2.342   7.429 -0.7280  1.0449 -0.7187
  192POPC   H5Y22218   6.871   2.161   7.407  0.7052  0.5854 -0.0106
  192POPC   C3622219   6.781   2.230   7.592 -0.0648 -0.1324 -0.4308
  192POPC   H6X22220   6.868   2.174   7.633  1.0097  1.7118 -0.1214
  192POPC   H6Y22221   6.691   2.164   7.598  1.7128 -2.6252  1.1948
  192POPC   C3722222   6.752   2.360   7.676 -0.1175 -0.3810  0.0593
  192POPC   H7X22223   6.680   2.413   7.611 -0.9784 -3.0213 -1.2739
  192POPC   H7Y22224   6.850   2.411   7.676  0.4509 -1.4104  1.6002
  192POPC   C3822225   6.694   2.342   7.815 -0.8283  0.1038  0.1638
  192POPC   H8X22226   6.760   2.285   7.885  0.3441  1.3238  0.0856
  192POPC   H8Y22227   6.593   2.296   7.807 -0.8269  0.1316  0.0073
  192POPC   C3922228   6.669   2.480   7.884  0.3014 -0.9359  0.2849
  192POPC   H9X22229   6.588   2.520   7.820  1.0027 -1.7363 -1.1573
  192POPC   H9Y22230   6.757   2.546   7.870 -0.5592 -0.1423 -1.8444
  192POPC  C31022231   6.620   2.483   8.029 -0.0170 -0.2320 -0.0315
  192POPC  H10X22232   6.695   2.426   8.089  1.0807  0.5107 -0.6693
  192POPC  H10Y22233   6.526   2.425   8.016 -1.9313  2.7634 -0.3344
  192POPC  C31122234   6.609   2.627   8.082 -0.2026  0.1052  0.1243
  192POPC  H11X22235   6.547   2.689   8.013 -2.2177 -2.2855 -0.3428
  192POPC  H11Y22236   6.705   2.678   8.060 -0.1462 -0.3009 -0.5973
  192POPC  C31222237   6.601   2.640   8.238  0.0734  0.5858 -0.0357
  192POPC  H12X22238   6.597   2.749   8.254 -2.4351  0.4254  0.7820
  192POPC  H12Y22239   6.672   2.570   8.287 -2.6649 -2.8010 -0.5025
  192POPC  C31322240   6.464   2.592   8.280 -1.2475 -0.3507  0.7069
  192POPC  H13X22241   6.449   2.482   8.268 -2.3853 -0.2840  1.3462
  192POPC  H13Y22242   6.382   2.629   8.215 -1.1935 -1.6747 -0.1441
  192POPC  C31422243   6.424   2.623   8.426 -0.0425 -0.2979  0.4535
  192POPC  H14X22244   6.508   2.605   8.497  0.1085 -0.2173  0.2951
  192POPC  H14Y22245   6.351   2.541   8.445  0.5754 -1.0881 -0.5261
  192POPC  C31522246   6.338   2.750   8.460  0.1007  0.3992 -0.3915
  192POPC  H15X22247   6.299   2.740   8.563  1.9668  1.2243  0.4495
  192POPC  H15Y22248   6.247   2.757   8.396  0.4359  0.8855 -0.8350
  192POPC  C31622249   6.416   2.884   8.444  0.5278 -0.4872 -0.5522
  192POPC  H16X22250   6.353   2.976   8.451  2.1754  0.6664 -0.2157
  192POPC  H16Y22251   6.457   2.892   8.341 -0.1320  0.2285 -0.7738
  192POPC  H16Z22252   6.503   2.887   8.514  1.1784 -0.2090 -1.3548
  193SOD    SOD22253   1.548   1.422   0.424  0.0668 -0.1176 -0.2034
  194SOD    SOD22254   3.992   0.804   6.549 -0.3935  0.2056  0.2754
  195SOD    SOD22255   5.311   6.181  17.395  0.6826 -0.0884 -0.2858
  196SOD    SOD22256   3.453   1.437  10.831  0.3048  0.1169  0.1976
  197SOD    SOD22257   3.651   4.212   1.420 -0.5532  0.0201 -0.1859
  198SOD    SOD22258   5.939   6.280   5.205 -0.0386 -0.0916  0.0729
  199SOD    SOD22259   5.299   3.411  11.904  0.2724  0.4291 -0.3195
  200SOD    SOD22260   6.716   0.372  12.235  0.0755 -0.5800  0.3586
  201SOD    SOD22261   5.109   2.542  12.355  0.1783  0.4147  0.4031
  202SOD    SOD22262   3.336   1.158   0.053 -0.5456  0.1630  0.2445
  203SOD    SOD22263   6.288   3.701  10.550 -0.0694  0.3996 -0.1898
  204SOD    SOD22264   0.943   3.809  13.707  0.2364 -0.1728 -0.1108
  205SOD    SOD22265   4.400   1.033   0.101 -0.1968  0.2325  0.1397
  206SOD    SOD22266   0.107   6.236  14.763 -0.1364  0.5309 -0.6537
  207SOD    SOD22267   6.621   5.078   6.423 -0.1891 -0.1574 -0.9238
  208SOD    SOD22268   2.009   6.100   6.730  0.3608  0.1376 -0.1328
  209SOD    SOD22269   6.102   6.248  12.661  0.0813 -0.1499 -0.3795
  210SOD    SOD22270   4.772   3.882   3.513 -0.3385  0.0512  0.1052
  211SOD    SOD22271   3.144   5.132  15.119  0.0230  0.4069  0.9313
  212SOD    SOD22272   4.889   1.798   0.220  0.7249 -0.6313 -0.0650
  213SOD    SOD22273   1.837   1.317   3.694 -0.1974  0.1548 -0.1334
  214SOD    SOD22274   5.093   6.376   5.050  0.8530 -0.0873 -0.2277
  215SOD    SOD22275   6.584   6.135   6.351  0.1762 -0.3484  0.5615
  216SOD    SOD22276   2.233   3.706   0.041 -0.2185 -0.2122  0.1097
  217SOD    SOD22277   4.612   4.970  11.834 -0.2962  0.2291  0.0901
  218SOD    SOD22278   5.804   4.385   6.480  0.4626  0.8208  0.9609
  219SOD    SOD22279   1.508   3.724   6.183  0.1209 -0.1332  0.1916
  220SOD    SOD22280   1.863   6.418  15.074  0.2140 -0.0327 -0.1826
  221SOD    SOD22281   1.841   5.533   5.630  0.2327  0.0258  0.0926
  222SOD    SOD22282   1.166   5.884  12.672  0.1422 -0.1185  0.1755
  223SOD    SOD22283   1.662   4.949  15.792  0.0397  0.0345 -0.0500
  224SOD    SOD22284   3.269   4.163   2.129  0.3327  0.0208 -0.2997
  225SOD    SOD22285   6.027   5.007  15.562 -0.1719 -0.0609 -0.0630
  226SOD    SOD22286   0.869   0.007   1.138  0.0655  0.1503  0.3709
  227SOD    SOD22287   5.896   4.560  17.215 -0.2577  0.1584 -0.2884
  228SOD    SOD22288   2.802   3.001  11.009  0.0648 -0.2167  0.1641
  229SOD    SOD22289   5.226   2.438   4.384  0.3280 -0.5683 -0.1983
  230SOD    SOD22290   2.183   0.498   5.621 -0.3563 -0.0578 -0.0061
  231SOD    SOD22291   6.499   1.444  15.927 -0.4961 -0.4982 -0.2117
  232SOD    SOD22292   0.401   1.595   5.190  0.0215  0.4743  0.1928
  233SOD    SOD22293   0.529   3.468   0.662  0.2027  0.9351 -0.0462
  234SOD    SOD22294   1.752   4.939   0.897 -0.1478 -0.1766 -0.3622
  235SOD    SOD22295   5.070   5.772  11.602  0.2743  0.1699  0.0239
  236SOD    SOD22296   4.883   2.247   3.423  0.0153 -0.5015 -0.5277
  237SOD    SOD22297   1.497   2.155   1.677  0.3240 -0.2623 -0.0215
  238SOD    SOD22298   1.448   4.078  15.392 -0.1269 -0.4353 -0.4705
  239SOD    SOD22299   4.034   3.794  12.523 -0.0077 -0.0475 -0.0616
  240SOD    SOD22300   0.696   5.510   3.130 -0.0973 -0.3972 -0.2505
  241SOD    SOD22301   6.631   6.699   1.680  0.1168  0.3172  0.1403
  242SOD    SOD22302   1.131   0.426   0.632 -0.1387  0.1878 -0.2339
  243SOD    SOD22303   3.932   6.275   6.099  0.8557  0.5978  0.6079
  244SOD    SOD22304   6.097   2.341   6.097  0.4675 -0.0881 -0.0830
  245SOD    SOD22305   2.238   3.412   6.443 -0.4718  0.2087 -0.1583
  246SOD    SOD22306   3.112   5.522   4.010 -0.5424  0.1580 -0.4407
  247SOD    SOD22307   1.687   5.972   3.678 -0.3142 -0.2047 -0.8089
  248SOD    SOD22308   1.647   2.423   5.693  0.1419  0.0201 -0.2626
  249SOD    SOD22309   5.930   5.196   2.072  0.4808 -0.0790  0.0514
  250SOD    SOD22310   4.183   4.173  16.674  0.1522 -0.4683  0.8575
  251SOD    SOD22311   4.837   0.994   1.634 -0.2736  0.4936  0.1092
  252SOD    SOD22312   3.084   5.668  17.407 -0.1075  0.0215 -0.3513
  253SOD    SOD22313   4.549   6.210   1.324  0.1856  0.3373 -0.3074
  254SOD    SOD22314   2.659   0.865  17.176  0.2014 -0.4537 -0.3883
  255SOD    SOD22315   6.350   4.372  15.816 -0.5640  0.2825  0.2600
  256SOD    SOD22316   6.370   2.336  12.881 -0.0210  0.4657  0.4367
  257SOD    SOD22317   5.998   5.747  15.822  0.0370 -0.6700 -0.7266
  258SOD    SOD22318   0.259   5.567  11.334 -1.0004  0.4917 -0.5549
  259SOD    SOD22319   1.829   0.602   3.759 -0.1446 -0.2557  0.1398
  260SOD    SOD22320   3.668   5.720   6.675  0.3772  0.3451  0.1813
  261SOD    SOD22321   0.146   0.566  13.629 -0.3466 -0.5293 -0.4137
  262SOD    SOD22322   2.406   0.765   1.021 -0.2170  0.4512  0.3306
  263SOD    SOD22323   5.541   4.894  15.452 -0.1527  0.1251 -0.2363
  264SOD    SOD22324   6.206   2.664  11.148  0.1992 -0.3900 -0.5466
  265SOD    SOD22325   4.558   5.541  14.142  0.4627 -0.2005  0.1575
  266SOD    SOD22326   5.233   1.799  13.773  0.1543 -0.0574 -0.3496
  267SOD    SOD22327   0.337   4.170   2.132  0.7754  0.0966  0.4171
  268SOD    SOD22328   2.645   3.519  11.392  0.0878 -0.3802 -0.4617
  269SOD    SOD22329   0.198   1.992  12.648  0.1387 -0.0111  0.3121
  270CLA    CLA22330   1.838   6.699   3.134 -0.8376  0.0926  0.2698
  271CLA    CLA22331   1.826   3.647   0.746 -0.1166 -0.1642 -0.1751
  272CLA    CLA22332   3.466   0.772  15.138 -0.3966  0.0316  0.0296
  273CLA    CLA22333   2.526   5.130   3.809  0.0017  0.3350 -0.0431
  274CLA    CLA22334   2.938   3.613  14.608  0.0054  0.4972  0.1837
  275CLA    CLA22335   0.471   0.609  14.349 -0.2517 -0.0734 -0.2247
  276CLA    CLA22336   3.112   5.858   1.082  0.0348 -0.0524 -0.2140
  277CLA    CLA22337   1.136   2.912   1.716  0.0494 -0.1121 -0.4039
  278CLA    CLA22338   0.238   4.834   2.296  0.4366  0.0911 -0.3961
  279CLA    CLA22339   6.068   5.762   4.861  0.5472 -0.0401 -0.1280
  280CLA    CLA22340   6.041   1.000   2.295 -0.0722  0.0106  0.1149
  281CLA    CLA22341   6.295   5.362  15.724 -0.1210  0.2614  0.0943
  282CLA    CLA22342   5.071   5.970   4.207 -0.2591  0.0168  0.3188
  283CLA    CLA22343   6.425   1.209  15.167 -0.1990  0.0080  0.3657
  284CLA    CLA22344   3.504   2.417  12.638  0.1164  0.1680 -0.5131
  285CLA    CLA22345   5.419   5.491   1.292 -0.7569 -0.1984  0.2710
  286CLA    CLA22346   5.380   5.611   0.202 -0.3842 -0.1146  0.2141
  287CLA    CLA22347   0.226   4.665  12.840 -0.0951 -0.1233 -0.2677
  288CLA    CLA22348   2.692   1.542   3.709  0.1266  0.3898  0.1022
  289CLA    CLA22349   4.562   2.928   1.498 -0.3900 -0.0778 -0.1772
  290CLA    CLA22350   4.482   5.793  12.789  0.1678  0.2279 -0.1171
  291CLA    CLA22351   1.666   6.445  13.321  0.2802  0.3046 -0.1439
  292CLA    CLA22352   4.139   2.251   2.277  0.2927  0.3410 -0.4618
  293CLA    CLA22353   1.021   2.290   0.005 -0.1850  0.0976  0.2806
  294CLA    CLA22354   2.462   0.394  14.915 -0.2278  0.0296  0.4193
  295CLA    CLA22355   2.633   4.154  12.757  0.0839  0.2523  0.5156
  296CLA    CLA22356   2.156   2.643  16.490  0.1159 -0.1092 -0.2100
  297CLA    CLA22357   1.576   1.024   5.044 -0.2063  0.1856  0.0014
  298CLA    CLA22358   1.410   0.462   5.609 -0.1351  0.1534 -0.3542
  299CLA    CLA22359   1.851   1.259  15.762 -0.5092 -0.0287  0.1848
  300CLA    CLA22360   6.684   3.349   4.964 -0.0233  0.1289  0.0973
  301CLA    CLA22361   6.732   2.961  17.169  0.1856 -0.0074  0.4325
  302CLA    CLA22362   2.709   0.697   0.085 -0.3383  0.3426  0.4316
  303CLA    CLA22363   2.230   3.034   4.111 -0.3479  0.5592 -0.1935
  304CLA    CLA22364   0.599   0.672  16.496 -0.4053 -0.4864  0.3808
  305CLA    CLA22365   6.276   3.656  10.860 -0.1342 -0.0147 -0.0461
  306CLA    CLA22366   2.675   2.231  15.888  0.3894  0.0176  0.2903
  307CLA    CLA22367   2.259   0.319   2.509  0.1704 -0.0230  0.1483
  308CLA    CLA22368   5.041   0.585   1.243 -0.0545 -0.0665  0.9750
  309CLA    CLA22369   2.026   0.105   0.584  0.5483 -0.0343 -0.0956
  310CLA    CLA22370   4.951   6.550  17.239 -0.2400  0.3792 -0.0672
  311CLA    CLA22371   0.386   6.705   1.149  0.1250  0.2094  0.3742
  312CLA    CLA22372   5.579   1.843  16.638 -0.1925  0.2812  0.2805
  313CLA    CLA22373   5.305   4.082  15.645  0.5263 -0.0953 -0.4771
  314CLA    CLA22374   6.241   2.440   3.824 -0.1791 -0.0494  0.0881
  315CLA    CLA22375   2.396   5.805  16.855  0.3361  0.0904 -0.3033
  316CLA    CLA22376   0.850   0.659   1.244 -0.0657  0.1383  0.3612
  317CLA    CLA22377   0.403   5.740  15.229  0.6493 -0.0816  0.2478
  318CLA    CLA22378   2.320   1.865   1.868  0.2583 -0.3565  0.1703
  319CLA    CLA22379   5.168   2.238   0.779  0.1477 -0.0636  0.4515
  320CLA    CLA22380   5.853   3.423  16.755  0.3985 -0.3341  0.1212
  321CLA    CLA22381   5.460   2.990  12.644 -0.0413 -0.3299  0.1466
  322CLA    CLA22382   6.535   1.573  13.199  0.0039 -0.3416  0.4411
  323TIP3   OH222383   0.489   0.521   3.500 -0.4394  0.2849  0.4541
  323TIP3    H122384   0.508   0.583   3.429 -3.5947  1.3327  0.3943
  323TIP3    H222385   0.546   0.550   3.571  0.2908  1.3856 -0.5308
  324TIP3   OH222386   4.862   0.545  15.932  0.5843 -0.7331  0.0030
  324TIP3    H122387   4.786   0.589  15.894  0.3692  0.0777  1.3093
  324TIP3    H222388   4.937   0.598  15.904  0.6022 -1.1179 -0.6867
  325TIP3   OH222389   2.550   6.714  16.374 -0.0267  0.0019 -0.4724
  325TIP3    H122390   2.533   6.659  16.450  1.0947 -0.0306 -0.2171
  325TIP3    H222391   2.604   6.659  16.316 -1.7953 -0.3834 -1.8413
  326TIP3   OH222392   4.865   1.415  12.972  0.4422 -0.3226  0.0299
  326TIP3    H122393   4.833   1.325  12.978  1.2337 -0.5860  0.2969
  326TIP3    H222394   4.886   1.427  12.879  0.7950 -0.5709  0.0776
  327TIP3   OH222395   5.879   4.427  15.085 -0.3065  0.2721 -0.1301
  327TIP3    H122396   5.894   4.354  15.025 -0.2756 -0.2738  0.5280
  327TIP3    H222397   5.945   4.492  15.061  2.6239 -1.6676  2.0595
  328TIP3   OH222398   1.597   2.221  15.846 -0.3921 -0.6379  0.3094
  328TIP3    H122399   1.681   2.232  15.891 -0.6055 -1.0382  0.8109
  328TIP3    H222400   1.566   2.134  15.873 -1.7055  0.1299  1.3672
  329TIP3   OH222401   6.559   6.115   2.335 -0.3001  0.0450 -0.4956
  329TIP3    H122402   6.593   6.188   2.283 -2.1175  1.1508 -0.2405
  329TIP3    H222403   6.499   6.070   2.275  1.4550 -1.8385 -0.9365
  330TIP3   OH222404   1.931   3.696   5.703 -0.1306 -0.1062  0.4975
  330TIP3    H122405   1.897   3.668   5.618  1.2154 -1.8244  0.4668
  330TIP3    H222406   1.946   3.790   5.693 -2.1351  0.1718 -0.3744
  331TIP3   OH222407   3.489   5.326   6.418 -0.1871  0.0568 -0.1547
  331TIP3    H122408   3.439   5.296   6.494  0.9121  1.8974  1.3699
  331TIP3    H222409   3.428   5.320   6.345 -1.8035 -0.2138  1.1651
  332TIP3   OH222410   2.870   2.519   5.273 -0.0300 -0.4871 -0.1849
  332TIP3    H122411   2.824   2.437   5.294 -0.0275 -1.0383 -2.1122
  332TIP3    H222412   2.824   2.586   5.324 -1.1026 -1.4515  0.1598
  333TIP3   OH222413   3.724   4.747   3.280  0.1897  0.1869  0.5510
  333TIP3    H122414   3.751   4.819   3.337  1.0792  2.3474 -2.3303
  333TIP3    H222415   3.803   4.726   3.229 -0.9962 -0.3160 -1.1716
  334TIP3   OH222416   4.031   2.665   3.743  0.2390 -0.2095  0.0881
  334TIP3    H122417   4.114   2.642   3.702  0.4494  0.6599  0.0213
  334TIP3    H222418   4.041   2.642   3.835  0.6400  0.1117  0.1253
  335TIP3   OH222419   3.644   6.555  15.018 -0.2104  0.1800 -0.1565
  335TIP3    H122420   3.558   6.563  14.977 -1.1671 -2.2134  1.2189
  335TIP3    H222421   3.674   6.468  14.994  1.9013  0.9707 -0.6296
  336TIP3   OH222422   3.940   4.633   2.021 -0.0698 -0.1337  0.2979
  336TIP3    H122423   3.888   4.621   2.101 -0.1899  0.9501  0.3914
  336TIP3    H222424   4.025   4.595   2.042 -0.6527 -1.4895  0.3089
  337TIP3   OH222425   1.568   6.643   1.753 -0.1128  0.0049 -0.2088
  337TIP3    H122426   1.564   6.738   1.743  0.7952  0.0378 -0.3992
  337TIP3    H222427   1.659   6.625   1.779 -0.7931 -0.6403  1.8925
  338TIP3   OH222428   2.685   2.618   3.317 -0.0734  0.2046  0.2956
  338TIP3    H122429   2.749   2.614   3.246 -0.9154  1.6264 -0.5935
  338TIP3    H222430   2.620   2.551   3.294 -0.2357  0.5191 -0.1747
  339TIP3   OH222431   1.036   2.911  12.524  0.3195  0.4526  0.5541
  339TIP3    H122432   1.080   2.900  12.608 -1.1772 -0.3961  1.2772
  339TIP3    H222433   1.060   2.999  12.495  0.0304  1.1663  2.3900
  340TIP3   OH222434   3.902   2.009  16.922  0.1034  0.1468 -0.4447
  340TIP3    H122435   3.894   2.076  16.854  2.7227 -0.2391 -1.2413
  340TIP3    H222436   3.968   2.044  16.983  1.9518 -1.8546 -1.1715
  341TIP3   OH222437   1.711   1.851   2.593 -0.3002  0.0327  0.5298
  341TIP3    H122438   1.724   1.925   2.652  0.5056 -0.3309  0.8185
  341TIP3    H222439   1.725   1.773   2.648  3.5379 -0.3497 -0.6846
  342TIP3   OH222440   4.355   6.247   6.162  0.0940 -0.3977 -0.5390
  342TIP3    H122441   4.408   6.296   6.099  0.5441  0.2153  0.2887
  342TIP3    H222442   4.388   6.157   6.157  2.5849  0.2935  1.2720
  343TIP3   OH222443   3.816   3.350   5.846  0.0293 -0.5569  0.4859
  343TIP3    H122444   3.750   3.281   5.840 -0.1862 -0.3956  0.9266
  343TIP3    H222445   3.883   3.315   5.904 -0.2191 -0.2967  0.9429
  344TIP3   OH222446   1.326   3.006  14.655 -0.1584 -0.5020 -0.1112
  344TIP3    H122447   1.256   3.057  14.696 -0.9010  0.6321 -2.6175
  344TIP3    H222448   1.394   3.071  14.634 -0.2301 -0.8338 -1.4826
  345TIP3   OH222449   5.981   2.129  10.737  0.4173  0.2535  0.6189
  345TIP3    H122450   5.970   2.036  10.714  0.6589 -0.1208  1.9216
  345TIP3    H222451   6.075   2.139  10.752  0.4033  0.7420  0.3872
  346TIP3   OH222452   1.456   6.564   1.034 -0.4176 -0.3990 -0.1356
  346TIP3    H122453   1.505   6.483   1.017 -0.1070  0.1518 -2.0729
  346TIP3    H222454   1.505   6.632   0.987  0.5504  1.3894  3.1076
  347TIP3   OH222455   6.293   2.005   3.740  0.3623  0.0916 -0.3462
  347TIP3    H122456   6.281   2.089   3.697 -0.0590  0.1549 -0.1147
  347TIP3    H222457   6.208   1.961   3.731  0.0638  0.3656  0.9647
  348TIP3   OH222458   0.996   5.407  11.743 -0.0008  0.0800 -0.2913
  348TIP3    H122459   0.983   5.354  11.663 -0.0206 -1.4534  0.6829
  348TIP3    H222460   0.937   5.481  11.732  0.2191  0.0629 -1.8382
  349TIP3   OH222461   3.250   2.528  14.083 -0.2160 -0.3063 -0.2568
  349TIP3    H122462   3.293   2.613  14.092  0.6436 -0.5076 -2.0128
  349TIP3    H222463   3.159   2.549  14.065 -0.3247  0.1923  0.8029
  350TIP3   OH222464   0.631   4.424   4.112 -0.3415 -0.1201  0.0996
  350TIP3    H122465   0.570   4.389   4.176 -0.7537  0.1935 -0.1155
  350TIP3    H222466   0.718   4.406   4.148 -0.5120  3.0718  2.4522
  351TIP3   OH222467   6.354   0.602   3.945  0.4599 -0.0315  0.0189
  351TIP3    H122468   6.383   0.681   3.991  2.0633 -0.3181 -0.4264
  351TIP3    H222469   6.294   0.558   4.006 -2.4209  2.6533 -0.6252
  352TIP3   OH222470   2.758   4.375  12.508  0.2164 -0.4582 -0.0866
  352TIP3    H122471   2.749   4.289  12.550 -0.3989 -0.0404  0.6497
  352TIP3    H222472   2.713   4.365  12.424 -0.8270 -0.5473  0.4626
  353TIP3   OH222473   4.151   4.078   6.535  0.0527  0.0808 -0.3413
  353TIP3    H122474   4.085   4.119   6.592  1.1782 -2.4648  3.2111
  353TIP3    H222475   4.235   4.100   6.576  0.9209 -2.0454 -0.8048
  354TIP3   OH222476   2.896   2.302  16.117 -0.1966 -0.0255 -0.6219
  354TIP3    H122477   2.839   2.247  16.063  0.7201 -1.2352 -0.4041
  354TIP3    H222478   2.893   2.261  16.204  0.9593 -0.0947 -0.5943
  355TIP3   OH222479   5.380   5.668  12.925 -0.0545 -0.1188 -0.3616
  355TIP3    H122480   5.427   5.750  12.938  0.1158 -0.2227 -0.3196
  355TIP3    H222481   5.427   5.604  12.979 -1.9550  0.3856  2.0836
  356TIP3   OH222482   3.735   0.818  13.298  0.7049  0.3737  0.4790
  356TIP3    H122483   3.757   0.725  13.297 -2.4785 -0.5125  0.7890
  356TIP3    H222484   3.726   0.839  13.391  0.9926  0.8752  0.3947
  357TIP3   OH222485   2.116   3.933   1.423 -0.1322  0.2720  0.0654
  357TIP3    H122486   2.084   3.844   1.441 -0.6336  0.7186  1.5824
  357TIP3    H222487   2.164   3.925   1.341 -0.9738 -1.2069 -0.3297
  358TIP3   OH222488   5.776   5.615   3.539  0.0065 -0.0981 -0.1068
  358TIP3    H122489   5.871   5.599   3.535  0.4979  1.4664  2.5989
  358TIP3    H222490   5.746   5.559   3.611 -0.9713  0.0891 -0.3560
  359TIP3   OH222491   3.690   5.286   3.953 -0.2201  0.0805 -0.1347
  359TIP3    H122492   3.772   5.279   3.903 -1.0035 -0.2762 -1.4157
  359TIP3    H222493   3.701   5.365   4.005  1.3520 -0.5172  0.5075
  360TIP3   OH222494   6.280   3.828   0.519 -0.2924  0.3626  0.6189
  360TIP3    H122495   6.213   3.884   0.480  0.0307  0.7752  0.6546
  360TIP3    H222496   6.283   3.751   0.461  0.4833  1.1569 -0.4294
  361TIP3   OH222497   6.131   4.419  13.774 -0.6300 -0.1583  0.4604
  361TIP3    H122498   6.160   4.502  13.813  0.5103 -1.2701  2.0995
  361TIP3    H222499   6.188   4.407  13.698 -0.1659  0.1317  0.7554
  362TIP3   OH222500   2.775   0.652   5.233 -0.0783 -0.3683  0.5126
  362TIP3    H122501   2.698   0.634   5.178 -0.2302  2.3139 -0.3106
  362TIP3    H222502   2.741   0.653   5.322 -0.4411 -1.7904  0.4123
  363TIP3   OH222503   6.651   4.479   4.864  0.6374  0.0848  0.3328
  363TIP3    H122504   6.612   4.395   4.887 -0.8532  0.6204 -0.1885
  363TIP3    H222505   6.668   4.473   4.770 -0.7958  0.8707  0.0055
  364TIP3   OH222506   4.366   2.963  15.587  0.3983 -0.6623  0.3658
  364TIP3    H122507   4.420   2.937  15.512 -2.8837 -0.7566 -2.2055
  364TIP3    H222508   4.331   2.881  15.621 -0.5165 -0.4374 -0.0043
  365TIP3   OH222509   2.609   6.043  16.924  0.1134 -0.0290 -0.4340
  365TIP3    H122510   2.532   5.988  16.909 -1.2480  1.3217  1.2004
  365TIP3    H222511   2.575   6.133  16.920  1.9375  0.6701 -1.3031
  366TIP3   OH222512   5.776   4.982   3.615 -0.5648  0.1341 -0.0461
  366TIP3    H122513   5.731   4.931   3.548 -1.4047 -0.0842  0.6723
  366TIP3    H222514   5.815   5.055   3.566 -1.4539  0.1748 -0.7218
  367TIP3   OH222515   5.794   1.210  12.890  0.3347  1.0878  0.2749
  367TIP3    H122516   5.852   1.232  12.962 -1.1444 -0.7419  2.1574
  367TIP3    H222517   5.812   1.118  12.871  0.4046  1.4182 -1.4695
  368TIP3   OH222518   4.161   4.553  13.897  0.3311 -0.0568 -0.1558
  368TIP3    H122519   4.120   4.481  13.848  0.6292 -0.8708  0.7733
  368TIP3    H222520   4.224   4.511  13.955  1.1122  1.0289 -0.1730
  369TIP3   OH222521   0.346   2.396  15.262  0.8372 -0.0508 -0.1708
  369TIP3    H122522   0.295   2.346  15.199 -0.3211  0.8297  0.0262
  369TIP3    H222523   0.349   2.484  15.226  3.7854 -0.4253 -1.0659
  370TIP3   OH222524   1.628   3.338  14.850  0.4632 -0.7103 -0.1552
  370TIP3    H122525   1.581   3.362  14.930 -0.0088 -2.1991  0.0434
  370TIP3    H222526   1.708   3.390  14.853 -0.8226  1.3862 -0.1696
  371TIP3   OH222527   5.371   5.217  12.477  0.0592  0.3775  0.0411
  371TIP3    H122528   5.373   5.312  12.463  2.4248  0.2367 -1.0798
  371TIP3    H222529   5.388   5.180  12.390  2.7904 -0.9243  1.0172
  372TIP3   OH222530   1.085   4.941   2.873  0.8288 -0.4704  0.7177
  372TIP3    H122531   1.102   5.033   2.854 -2.4071  0.3116  0.9720
  372TIP3    H222532   1.152   4.893   2.823  2.3061  1.9652  0.2106
  373TIP3   OH222533   4.772   6.052   0.496 -0.2528  0.2929  0.3403
  373TIP3    H122534   4.790   6.126   0.553 -0.9551  0.8721 -0.1817
  373TIP3    H222535   4.700   6.006   0.539  0.5632 -0.4464  0.9717
  374TIP3   OH222536   4.086   2.803  16.575 -0.0419  0.3033 -0.1770
  374TIP3    H122537   4.103   2.710  16.592  0.7568 -0.3484 -3.8097
  374TIP3    H222538   4.172   2.839  16.553 -0.9217  0.6977 -3.3902
  375TIP3   OH222539   2.567   0.268   5.242 -0.3880  0.1303  0.5398
  375TIP3    H122540   2.548   0.295   5.332  0.4202 -1.0590  1.0944
  375TIP3    H222541   2.498   0.204   5.222  0.9791 -1.6891  1.3547
  376TIP3   OH222542   2.233   1.652   5.089  0.0360 -0.4451  0.3325
  376TIP3    H122543   2.289   1.641   5.167  2.1564 -0.8503 -1.1472
  376TIP3    H222544   2.211   1.745   5.088 -1.5088 -0.7180  2.3149
  377TIP3   OH222545   3.524   2.147  12.183  0.1472  0.1042 -0.3688
  377TIP3    H122546   3.598   2.113  12.233 -0.3102 -0.0410  0.2161
  377TIP3    H222547   3.541   2.118  12.093  0.7695  0.0237 -0.2313
  378TIP3   OH222548   0.282   0.907  17.225 -0.1698  0.4245  0.1624
  378TIP3    H122549   0.331   0.838  17.181 -1.2670  0.1499 -0.7062
  378TIP3    H222550   0.285   0.884  17.318  0.0642 -0.4147 -0.0457
  379TIP3   OH222551   0.736   5.156  16.475  0.6299 -0.3334  0.4591
  379TIP3    H122552   0.699   5.115  16.397  1.5383 -0.0254 -0.1546
  379TIP3    H222553   0.808   5.098  16.500  1.8067  0.7232 -0.3075
  380TIP3   OH222554   3.461   4.143   0.700  0.8419  0.4790  0.5505
  380TIP3    H122555   3.494   4.112   0.616  0.8557  1.0744  0.3284
  380TIP3    H222556   3.513   4.097   0.766 -0.7025 -1.7566  0.3161
  381TIP3   OH222557   5.722   5.360  14.304 -0.0406  0.2243 -0.0875
  381TIP3    H122558   5.738   5.275  14.345  1.1106  0.9487  1.0270
  381TIP3    H222559   5.676   5.411  14.371  2.0204  1.4843  0.4815
  382TIP3   OH222560   5.846   3.456   2.083 -0.1392 -0.0620  0.3146
  382TIP3    H122561   5.925   3.498   2.049 -0.2097 -0.6625 -0.6606
  382TIP3    H222562   5.858   3.454   2.178  0.1153  1.5982  0.3430
  383TIP3   OH222563   3.356   5.497   3.953  0.6563  0.9096 -0.0678
  383TIP3    H122564   3.424   5.545   4.000  1.9676  1.5919 -2.4643
  383TIP3    H222565   3.393   5.483   3.866 -1.5093 -0.4916 -0.8465
  384TIP3   OH222566   0.046   3.831  12.825 -0.1724 -0.1774  0.0146
  384TIP3    H122567  -0.010   3.901  12.858  1.3706  1.1509 -0.0312
  384TIP3    H222568   0.135   3.859  12.847  0.6963 -0.7986 -2.3610
  385TIP3   OH222569   6.155   1.911  15.692 -0.3121  0.2855 -0.3254
  385TIP3    H122570   6.067   1.884  15.665 -0.8332  1.8049 -0.2184
  385TIP3    H222571   6.208   1.832  15.680 -1.6450 -0.6272 -0.5302
  386TIP3   OH222572   2.691   0.353  11.606  0.7316  0.0754  0.2375
  386TIP3    H122573   2.642   0.284  11.561 -0.3148  0.7306  0.3477
  386TIP3    H222574   2.773   0.360  11.557  0.1276 -0.0646 -0.8187
  387TIP3   OH222575   5.831   3.281  12.347  0.1591  0.5273  0.1059
  387TIP3    H122576   5.844   3.187  12.338 -0.8382  0.3225  0.6239
  387TIP3    H222577   5.751   3.289  12.400  0.9225  1.6641  1.1363
  388TIP3   OH222578   2.327   5.299   5.518 -0.2277  0.0053 -0.1319
  388TIP3    H122579   2.389   5.259   5.457 -1.8525 -2.0852 -0.5399
  388TIP3    H222580   2.373   5.300   5.602  0.8155 -0.2727 -0.6802
  389TIP3   OH222581   2.218   5.869   5.796 -0.2734  0.1035 -0.2057
  389TIP3    H122582   2.206   5.888   5.703 -0.6073 -2.7053 -0.8171
  389TIP3    H222583   2.190   5.778   5.806  2.0112 -0.4683  2.1681
  390TIP3   OH222584   4.467   2.044   5.864 -0.1809 -0.2968  0.5540
  390TIP3    H122585   4.435   1.957   5.889 -0.1668 -0.0243  1.5489
  390TIP3    H222586   4.430   2.059   5.777 -0.7928 -0.9923  0.6856
  391TIP3   OH222587   2.612   0.042  11.680 -0.2288 -0.7096  0.6056
  391TIP3    H122588   2.573   0.083  11.603 -0.1476  0.5593  1.2246
  391TIP3    H222589   2.686   0.098  11.703 -0.0994 -1.2094  1.4589
  392TIP3   OH222590   1.322   1.511  16.296  1.1966 -0.6766  0.1427
  392TIP3    H122591   1.228   1.501  16.278  0.6011  0.4452  2.3423
  392TIP3    H222592   1.363   1.440  16.247 -0.8721 -1.7058 -0.2146
  393TIP3   OH222593   4.753   5.945   6.234  0.3969  0.1567 -0.1652
  393TIP3    H122594   4.722   6.028   6.271  1.1693 -0.5108  2.1510
  393TIP3    H222595   4.804   5.905   6.304 -2.4831 -3.7355  0.0232
  394TIP3   OH222596   0.055   2.510   3.029 -0.3751 -0.0763 -0.9167
  394TIP3    H122597  -0.012   2.499   2.961 -1.7801  0.3328  0.3524
  394TIP3    H222598   0.077   2.604   3.026 -1.2632  0.1810 -0.1112
  395TIP3   OH222599   5.992   0.148  12.102  0.3246 -0.3254  0.0727
  395TIP3    H122600   6.052   0.198  12.159 -0.3799 -0.3643  0.8685
  395TIP3    H222601   6.041   0.137  12.021  0.4699  1.8013 -0.1996
  396TIP3   OH222602   1.879   2.028   1.686  0.1668 -0.0762 -0.8967
  396TIP3    H122603   1.894   2.034   1.591  1.2754  1.2735 -0.6630
  396TIP3    H222604   1.964   2.046   1.725 -0.1586 -1.1211  0.3703
  397TIP3   OH222605   4.736   4.760   1.854  0.2733 -0.2868  0.3098
  397TIP3    H122606   4.817   4.800   1.885  1.6262 -2.6909  0.1204
  397TIP3    H222607   4.747   4.755   1.759 -0.6472  0.4234  0.1519
  398TIP3   OH222608   6.507   4.909   0.699 -0.0576 -0.0827  0.3599
  398TIP3    H122609   6.564   4.984   0.717 -1.1399  0.6708  0.7663
  398TIP3    H222610   6.559   4.853   0.642 -0.2232  2.3502 -2.4575
  399TIP3   OH222611   4.391   2.829  16.317  0.3820  0.0851 -0.0159
  399TIP3    H122612   4.430   2.741  16.314  0.6565  0.2241 -1.0473
  399TIP3    H222613   4.465   2.888  16.303  0.0068  0.4086 -0.6890
  400TIP3   OH222614   5.906   5.823  14.182  0.2642 -0.5943  0.4260
  400TIP3    H122615   5.904   5.894  14.118  0.9637 -1.4462 -0.5812
  400TIP3    H222616   5.934   5.864  14.263 -1.2266  0.6234  0.3495
  401TIP3   OH222617   2.937   5.432   4.538 -0.1479  0.0376  0.1352
  401TIP3    H122618   3.018   5.407   4.583  0.9325  2.4552 -0.3116
  401TIP3    H222619   2.948   5.399   4.449  0.5333  0.7265 -0.0350
  402TIP3   OH222620   3.166   3.523  11.512 -0.2903  0.5371  0.6323
  402TIP3    H122621   3.103   3.454  11.534  1.3196 -1.1006  0.4116
  402TIP3    H222622   3.248   3.494  11.553  0.4463  2.3246  0.4914
  403TIP3   OH222623   4.464   5.544   2.499 -0.0582  0.0954  0.1546
  403TIP3    H122624   4.411   5.472   2.464  1.7198 -0.7730 -0.8500
  403TIP3    H222625   4.552   5.529   2.464  0.7662  1.7701  1.3743
  404TIP3   OH222626   2.015   5.022  13.247  0.0073 -0.3859  0.4119
  404TIP3    H122627   1.960   5.003  13.172  1.9762  2.8220 -2.1091
  404TIP3    H222628   2.105   5.013  13.214  0.9593  0.6872  2.5054
  405TIP3   OH222629   0.475   4.893  15.803 -0.1858  0.0016  0.5828
  405TIP3    H122630   0.433   4.808  15.790  2.2206 -1.4023  1.2548
  405TIP3    H222631   0.433   4.929  15.881 -1.6331 -0.2670 -0.0496
  406TIP3   OH222632   4.676   1.911   4.316  0.1145 -0.3422  0.0434
  406TIP3    H122633   4.642   1.911   4.226  0.5728 -2.0385 -0.1735
  406TIP3    H222634   4.742   1.842   4.317  0.1613 -0.3250  1.6756
  407TIP3   OH222635   4.477   5.107  15.972 -0.5283 -0.0307 -0.9951
  407TIP3    H122636   4.568   5.133  15.955 -0.0822 -0.3046  0.7501
  407TIP3    H222637   4.459   5.039  15.908  1.0737 -1.1104 -0.3697
  408TIP3   OH222638   3.765   3.107   1.645  0.4465 -0.6710  0.3455
  408TIP3    H122639   3.762   3.183   1.586  0.4644 -1.3938 -0.6214
  408TIP3    H222640   3.790   3.143   1.730  1.2203  0.2973 -0.2715
  409TIP3   OH222641   6.434   1.822  13.374  0.0749 -0.6339 -0.4512
  409TIP3    H122642   6.501   1.885  13.399 -0.5702  0.6535 -1.8198
  409TIP3    H222643   6.481   1.755  13.324  0.7719 -1.3454  1.0670
  410TIP3   OH222644   1.889   4.692   1.732 -0.5771 -0.1521 -0.1862
  410TIP3    H122645   1.934   4.635   1.794 -1.2850 -0.2121  0.2858
  410TIP3    H222646   1.838   4.752   1.787  1.2039  1.8599 -0.6259
  411TIP3   OH222647   5.116   1.460   0.001 -0.0638 -0.7550 -0.2103
  411TIP3    H122648   5.128   1.543  -0.046 -1.1871 -1.4585 -1.8357
  411TIP3    H222649   5.159   1.395  -0.055 -1.5039 -1.6310 -0.3476
  412TIP3   OH222650   4.164   1.244   0.835  0.6039 -0.6008 -0.3914
  412TIP3    H122651   4.105   1.313   0.867  1.3942  0.4404 -1.1057
  412TIP3    H222652   4.107   1.184   0.788 -0.1516 -0.5995  0.5024
  413TIP3   OH222653   5.115   5.284  11.684  0.4915 -0.5564 -0.2567
  413TIP3    H122654   5.138   5.192  11.673 -1.1147 -0.9960 -0.2053
  413TIP3    H222655   5.060   5.286  11.761 -0.7612  0.1975 -1.1318
  414TIP3   OH222656   5.360   1.265   1.317 -0.3107 -0.2289  0.5392
  414TIP3    H122657   5.322   1.240   1.401  1.0381 -2.2962  0.6024
  414TIP3    H222658   5.302   1.227   1.252 -1.1897  1.1192  0.4958
  415TIP3   OH222659   6.360   5.455   5.242  0.5028  0.1024 -0.3026
  415TIP3    H122660   6.318   5.534   5.206 -0.8207  0.2113  1.3866
  415TIP3    H222661   6.336   5.386   5.179 -0.6251  0.5410 -0.3960
  416TIP3   OH222662   1.428   2.599  13.552  0.5063  0.1391 -0.2020
  416TIP3    H122663   1.380   2.676  13.584  0.4028  0.2513 -0.6162
  416TIP3    H222664   1.363   2.549  13.503  0.2876 -0.7909  0.9770
  417TIP3   OH222665   5.978   5.045  13.909 -0.2251  0.3184  0.7512
  417TIP3    H122666   6.053   4.998  13.945 -0.6404  0.4679  1.8465
  417TIP3    H222667   5.938   5.088  13.984  0.5047  3.0030 -0.2796
  418TIP3   OH222668   6.552   0.742  11.604  0.9348 -0.6716  0.2041
  418TIP3    H122669   6.561   0.667  11.545  4.4508  0.4488 -0.8759
  418TIP3    H222670   6.550   0.818  11.546 -0.5413  0.2664  1.3896
  419TIP3   OH222671   1.122   5.847  12.925 -0.0954  0.4027 -0.3467
  419TIP3    H122672   1.109   5.767  12.977  0.2752  0.2121 -0.5453
  419TIP3    H222673   1.162   5.909  12.987  0.1794  0.2339 -0.3531
  420TIP3   OH222674   6.542   2.875  16.743 -0.3477  0.1850 -0.6314
  420TIP3    H122675   6.564   2.802  16.801 -1.5877 -0.0608 -0.4522
  420TIP3    H222676   6.607   2.869  16.672 -1.3112 -2.0283 -1.4170
  421TIP3   OH222677   2.740   4.793   3.474 -0.5269  0.2864  0.3959
  421TIP3    H122678   2.708   4.883   3.465 -2.0431 -0.3694 -1.1407
  421TIP3    H222679   2.670   4.739   3.438  1.1497 -1.4108 -0.4399
  422TIP3   OH222680   0.050   4.089  16.114  0.2195  0.0346  0.2755
  422TIP3    H122681   0.085   4.080  16.202  1.2799  1.8795  0.1084
  422TIP3    H222682  -0.039   4.122  16.126 -0.0085 -0.7208  0.6627
  423TIP3   OH222683   4.879   2.540   5.098 -1.1255  0.7864 -0.0929
  423TIP3    H122684   4.784   2.553   5.106 -1.4917 -2.1840  1.9623
  423TIP3    H222685   4.888   2.451   5.064  0.9374  1.1219 -0.5252
  424TIP3   OH222686   3.186   2.453  14.955  0.1974 -0.4615  0.5579
  424TIP3    H122687   3.272   2.492  14.939 -0.2871  0.7711  0.8790
  424TIP3    H222688   3.202   2.358  14.952  1.1151 -0.3044 -1.7859
  425TIP3   OH222689   6.673   1.193  14.140  0.9490  0.1969 -0.4596
  425TIP3    H122690   6.743   1.251  14.171  0.3959  0.2862  0.6508
  425TIP3    H222691   6.593   1.245  14.147  0.5091 -0.5342  0.1208
  426TIP3   OH222692   4.914   4.168   6.602  0.6268  0.2523 -0.5359
  426TIP3    H122693   4.926   4.087   6.653  0.7297  1.3524  1.2545
  426TIP3    H222694   4.819   4.174   6.588  0.7901 -1.5057 -3.0236
  427TIP3   OH222695   2.607   6.190  11.559  0.7284  0.4537  0.1882
  427TIP3    H122696   2.522   6.215  11.596  0.3541  1.0192 -0.9972
  427TIP3    H222697   2.644   6.272  11.526  0.6223 -0.1512 -1.5077
  428TIP3   OH222698   1.956   1.533   2.493 -0.5351 -0.0500  0.4109
  428TIP3    H122699   1.911   1.503   2.415  2.4880 -0.8426 -1.1784
  428TIP3    H222700   1.928   1.473   2.562 -2.2000 -0.2050 -0.3754
  429TIP3   OH222701   3.755   2.269  11.554 -0.4454  0.1433  0.7611
  429TIP3    H122702   3.665   2.251  11.580 -0.3309 -0.6534  0.6364
  429TIP3    H222703   3.755   2.257  11.459 -0.1420 -0.1774  0.7984
  430TIP3   OH222704   2.544   2.415  16.764 -0.0210  0.0416 -0.0783
  430TIP3    H122705   2.476   2.482  16.752 -0.4622  0.0741  2.1654
  430TIP3    H222706   2.600   2.424  16.687 -1.1261  1.7303 -0.7499
  431TIP3   OH222707   2.551   3.423   4.891  0.7017 -0.0320  0.3236
  431TIP3    H122708   2.533   3.340   4.846 -0.9642  1.6059 -2.3259
  431TIP3    H222709   2.465   3.466   4.896  1.6669  1.9493  0.7386
  432TIP3   OH222710   0.363   2.970  11.765 -0.0274 -0.1536 -0.2960
  432TIP3    H122711   0.391   3.023  11.690 -0.1374 -0.6482 -0.6853
  432TIP3    H222712   0.437   2.973  11.825 -1.5312  4.1630  1.7761
  433TIP3   OH222713   6.727   0.782   0.517 -0.2837  0.7388 -0.4654
  433TIP3    H122714   6.737   0.870   0.554  0.8836  0.9096 -1.1361
  433TIP3    H222715   6.734   0.795   0.423 -1.3537  0.0706 -0.6523
  434TIP3   OH222716   6.152   4.877   4.739  0.0293  0.3971  0.0119
  434TIP3    H122717   6.192   4.906   4.657  0.7844 -0.6234  0.0071
  434TIP3    H222718   6.127   4.958   4.783  1.5045  1.0528 -0.2937
  435TIP3   OH222719   1.505   5.051  12.301 -0.1382  0.5114  0.8806
  435TIP3    H122720   1.501   5.031  12.394 -1.1251 -1.0898  0.5420
  435TIP3    H222721   1.545   4.973  12.262 -0.3773  0.8678 -0.1037
  436TIP3   OH222722   0.787   5.538   3.355  0.3929  0.1041  0.2684
  436TIP3    H122723   0.769   5.495   3.439  0.3427  2.7499  1.7399
  436TIP3    H222724   0.868   5.586   3.370 -0.1874  1.4854 -0.8223
  437TIP3   OH222725   4.632   1.642   3.294 -0.0934  0.1419  0.4551
  437TIP3    H122726   4.645   1.647   3.200  0.8928  2.3229  0.6464
  437TIP3    H222727   4.586   1.559   3.308  1.9007 -1.4380 -1.6798
  438TIP3   OH222728   6.019   2.893  15.701  0.0479 -0.3025 -0.5182
  438TIP3    H122729   6.081   2.822  15.718 -1.6664 -1.7692 -0.0151
  438TIP3    H222730   5.941   2.848  15.668 -1.5294  1.2206  0.9438
  439TIP3   OH222731   6.117   2.596  12.580  0.0123  0.2593 -0.0800
  439TIP3    H122732   6.029   2.585  12.546  0.0316  0.5754 -0.2304
  439TIP3    H222733   6.147   2.679  12.544  0.4831  0.0104 -0.2718
  440TIP3   OH222734   0.866   5.005  13.063 -0.3710  0.1644  0.3215
  440TIP3    H122735   0.883   4.913  13.082 -0.2299 -0.0289 -0.6710
  440TIP3    H222736   0.953   5.046  13.064  0.1465 -0.5364 -3.2755
  441TIP3   OH222737   0.425   0.647   4.230  0.2024  0.0606 -0.1305
  441TIP3    H122738   0.474   0.633   4.312  0.0063 -0.0354 -0.0286
  441TIP3    H222739   0.389   0.561   4.209 -0.3471  0.2403  0.0667
  442TIP3   OH222740   0.998   4.052  15.386  0.1704  0.3030  0.2324
  442TIP3    H122741   0.997   3.986  15.317  0.7268  0.2213  0.3040
  442TIP3    H222742   0.917   4.102  15.372  0.4110  0.4608 -0.6406
  443TIP3   OH222743   0.887   1.191   0.461  0.1895 -0.2240  0.1086
  443TIP3    H122744   0.944   1.155   0.393  0.4007  2.3702 -1.2000
  443TIP3    H222745   0.805   1.209   0.415 -0.0768  0.4416  0.8424
  444TIP3   OH222746   0.478   4.742  16.947  0.0886 -0.2213  0.5642
  444TIP3    H122747   0.561   4.789  16.936  1.8157 -2.9544  0.8203
  444TIP3    H222748   0.432   4.790  17.016  1.9386  0.7770  1.1843
  445TIP3   OH222749   1.091   0.705  15.868 -0.9522  0.0649 -0.4403
  445TIP3    H122750   1.032   0.642  15.910  0.3968 -0.6680  0.4476
  445TIP3    H222751   1.068   0.789  15.907 -0.1706 -0.5001  1.3990
  446TIP3   OH222752   5.157   3.029  16.257  0.4493  0.0003 -0.5642
  446TIP3    H122753   5.136   3.013  16.349  1.0239  0.6755 -0.3038
  446TIP3    H222754   5.184   3.121  16.255  0.9031 -0.1458 -1.3242
  447TIP3   OH222755   0.360   1.244  16.874  0.4572 -0.6041 -0.3520
  447TIP3    H122756   0.307   1.213  16.948  1.5658 -0.9178  0.3235
  447TIP3    H222757   0.394   1.329  16.903 -0.6797  0.2012 -1.2851
  448TIP3   OH222758   2.911   6.218  16.958 -0.5485 -0.2648  0.3405
  448TIP3    H122759   2.940   6.131  16.930 -1.2880 -0.7179  0.9528
  448TIP3    H222760   2.899   6.210  17.052 -2.4814 -0.0696  0.1537
  449TIP3   OH222761   5.390   3.236  12.852  0.4004 -0.2849 -0.4354
  449TIP3    H122762   5.399   3.181  12.774  0.3252 -0.8927 -0.0219
  449TIP3    H222763   5.296   3.249  12.861  0.3834 -0.5411 -0.2266
  450TIP3   OH222764   1.316   3.916  14.658  0.1834 -0.3676  0.2548
  450TIP3    H122765   1.363   3.999  14.654  0.0365 -0.1224  2.2004
  450TIP3    H222766   1.372   3.859  14.712 -0.1740 -1.2060 -0.2403
  451TIP3   OH222767   5.816   3.587  15.804 -0.0376 -0.9241  0.5655
  451TIP3    H122768   5.783   3.576  15.893  0.2165 -0.0558  0.7713
  451TIP3    H222769   5.907   3.616  15.816 -0.9721  2.5988  0.1105
  452TIP3   OH222770   4.505   1.529   4.842 -0.0925  0.7163  0.3672
  452TIP3    H122771   4.489   1.617   4.806 -1.4471  0.4310  0.2134
  452TIP3    H222772   4.428   1.512   4.897  0.7466  0.1135  1.3909
  453TIP3   OH222773   5.009   3.244   5.712 -0.0702  0.2975  0.0616
  453TIP3    H122774   5.017   3.301   5.789  0.1714 -1.4396  1.3760
  453TIP3    H222775   5.054   3.292   5.642  1.5111  1.0251  1.5082
  454TIP3   OH222776   2.004   0.457  13.020  0.3131 -0.0027  0.0030
  454TIP3    H122777   2.014   0.375  13.069  0.5364  0.9527  1.6405
  454TIP3    H222778   1.914   0.485  13.039  0.2554  0.1718 -0.5069
  455TIP3   OH222779   2.462   5.500  16.979  0.4771  0.0416  0.4366
  455TIP3    H122780   2.465   5.589  16.946  3.3019 -0.3688 -0.6891
  455TIP3    H222781   2.393   5.501  17.046  1.0001  3.2642  1.0614
  456TIP3   OH222782   3.568   0.838  11.807  0.0495 -0.3286  0.2616
  456TIP3    H122783   3.645   0.890  11.785  1.7670 -1.7455  2.5758
  456TIP3    H222784   3.549   0.860  11.898 -1.7035 -0.7500  0.0339
  457TIP3   OH222785   1.850   4.397  14.281  0.1114 -0.5703 -0.5257
  457TIP3    H122786   1.924   4.415  14.339 -0.7761  0.8089  0.2028
  457TIP3    H222787   1.776   4.383  14.339 -0.5553 -0.3275 -1.3036
  458TIP3   OH222788   5.466   4.474  16.300  0.1200  0.1099  0.1570
  458TIP3    H122789   5.456   4.564  16.270 -1.0747 -0.4575 -1.3524
  458TIP3    H222790   5.418   4.470  16.383 -1.4318  0.4822 -0.6748
  459TIP3   OH222791   0.642   3.296   2.752 -0.1495 -0.1657 -0.1263
  459TIP3    H122792   0.735   3.280   2.733 -0.2558  0.2757 -1.1190
  459TIP3    H222793   0.596   3.248   2.684 -0.5257  2.5312 -1.9386
  460TIP3   OH222794   6.456   1.370   3.235 -0.3677  0.1554 -0.2288
  460TIP3    H122795   6.468   1.333   3.147 -0.7565  2.4477 -1.3391
  460TIP3    H222796   6.509   1.450   3.233 -0.7363  0.4650  1.4877
  461TIP3   OH222797   1.047   2.554   0.161 -0.4750 -0.1352 -0.8912
  461TIP3    H122798   1.110   2.581   0.094 -1.3678  1.1175 -1.2498
  461TIP3    H222799   1.032   2.461   0.143 -0.4660  0.1018 -2.2577
  462TIP3   OH222800   2.427   4.411  16.208 -0.4452 -0.4537 -0.4999
  462TIP3    H122801   2.520   4.386  16.213  0.2194  1.8009 -0.5877
  462TIP3    H222802   2.428   4.506  16.199 -2.8496 -0.2011  1.0970
  463TIP3   OH222803   6.010   5.954   3.739  0.5038 -0.7390 -0.0662
  463TIP3    H122804   6.074   6.002   3.792  0.7139 -1.9820  0.8615
  463TIP3    H222805   6.026   5.983   3.649  2.0527 -0.6465  0.2151
  464TIP3   OH222806   4.370   4.441   0.140  0.4907 -0.1529  0.4135
  464TIP3    H122807   4.359   4.358   0.093  2.0500  0.0263 -0.3536
  464TIP3    H222808   4.408   4.501   0.074  0.9514  0.6685  1.3911
  465TIP3   OH222809   1.521   5.935  13.424 -0.4286  0.1906 -0.4328
  465TIP3    H122810   1.545   5.925  13.516 -2.4437 -0.0347  0.1252
  465TIP3    H222811   1.527   6.029  13.408 -0.6880  0.3039  0.1178
  466TIP3   OH222812   2.414   2.693   5.062  0.4335 -0.5075 -0.6837
  466TIP3    H122813   2.503   2.724   5.046  0.4889  1.0402  1.9702
  466TIP3    H222814   2.424   2.622   5.126 -0.1740 -1.4784 -1.6301
  467TIP3   OH222815   2.480   4.593   2.169  0.5019 -0.1444  0.1238
  467TIP3    H122816   2.503   4.684   2.150 -0.8357  0.0685 -0.5366
  467TIP3    H222817   2.548   4.564   2.231  1.4379  1.0210 -0.3240
  468TIP3   OH222818   1.296   4.407  13.641  0.4523 -0.0752  0.5648
  468TIP3    H122819   1.307   4.317  13.610  0.3831  0.2432 -0.4193
  468TIP3    H222820   1.384   4.445  13.637  0.1559  0.5286 -1.1005
  469TIP3   OH222821   0.698   1.068   0.937  0.0564  0.2156 -0.7781
  469TIP3    H122822   0.762   0.998   0.949 -0.4563 -0.1156  0.0919
  469TIP3    H222823   0.739   1.145   0.977 -0.2036 -0.0698  0.0561
  470TIP3   OH222824   4.076   2.512  16.607  0.1021  0.0573  0.5419
  470TIP3    H122825   4.021   2.437  16.585 -0.3792  0.7292 -0.6591
  470TIP3    H222826   4.158   2.497  16.560 -0.4069  0.7994 -0.6424
  471TIP3   OH222827   3.940   4.155  12.953  0.0043  0.6053  0.0119
  471TIP3    H122828   3.987   4.152  12.870  3.4779 -0.5558  1.8386
  471TIP3    H222829   3.859   4.106  12.937  0.7074  0.1701 -2.5632
  472TIP3   OH222830   0.328   4.516  13.589  0.3724 -0.3272  0.4154
  472TIP3    H122831   0.259   4.582  13.586  0.0416 -0.6322  1.0563
  472TIP3    H222832   0.336   4.486  13.499 -0.9958 -0.9404  0.4608
  473TIP3   OH222833   1.500   1.618   2.552  0.0828  0.4440  0.0493
  473TIP3    H122834   1.494   1.564   2.631  0.2790  0.1032 -0.1694
  473TIP3    H222835   1.591   1.648   2.550  0.2806 -0.1830 -0.4666
  474TIP3   OH222836   1.934   1.613  12.095 -0.0948 -0.2962  0.2048
  474TIP3    H122837   1.918   1.608  12.189 -0.4391 -1.1344  0.1041
  474TIP3    H222838   2.024   1.584  12.084  0.4521  1.2109  0.4146
  475TIP3   OH222839   0.326   4.787   1.449 -0.4300  0.2639  0.5651
  475TIP3    H122840   0.366   4.841   1.518 -1.0391 -0.8060  1.7916
  475TIP3    H222841   0.270   4.848   1.401  0.0907  1.0517  0.9269
  476TIP3   OH222842   4.034   5.757   2.630  0.1212 -1.0694  0.8334
  476TIP3    H122843   4.067   5.746   2.720  3.0439 -0.0443  0.0169
  476TIP3    H222844   4.083   5.832   2.596 -1.0037 -1.3471 -1.5849
  477TIP3   OH222845   6.293   2.757   4.724 -0.3383 -0.1285  0.3191
  477TIP3    H122846   6.238   2.680   4.714 -1.6045  0.6174  1.1628
  477TIP3    H222847   6.289   2.777   4.818  3.0241 -1.1753  0.7973
  478TIP3   OH222848   1.200   2.320  13.027 -0.3363  0.1597  0.1734
  478TIP3    H122849   1.140   2.283  13.093 -0.4222 -0.4144 -0.2180
  478TIP3    H222850   1.281   2.336  13.075 -0.2369 -0.7262  0.3185
  479TIP3   OH222851   3.751   2.166   3.893  0.0012  0.5802 -0.0511
  479TIP3    H122852   3.755   2.249   3.939  0.1227  0.6983 -0.2689
  479TIP3    H222853   3.668   2.168   3.845  0.5150  1.0621 -0.9471
  480TIP3   OH222854   6.333   4.802  12.857  0.4106 -0.0191 -0.3460
  480TIP3    H122855   6.380   4.747  12.919 -1.3564 -0.1566  0.9581
  480TIP3    H222856   6.385   4.798  12.777  2.5317 -0.2163  0.9513
  481TIP3   OH222857   4.551   5.164   2.037  0.4118  0.3352 -0.4452
  481TIP3    H122858   4.595   5.152   1.953  1.3824 -0.2092  0.1218
  481TIP3    H222859   4.559   5.079   2.081 -2.3326 -0.1869 -0.8063
  482TIP3   OH222860   2.691   0.683   2.614 -0.2909  0.1180  0.3382
  482TIP3    H122861   2.733   0.669   2.529 -1.8596 -1.5551 -0.2372
  482TIP3    H222862   2.603   0.648   2.602 -1.5211  2.4994  1.7993
  483TIP3   OH222863   1.121   2.591  15.381  0.1736  0.1502  0.2779
  483TIP3    H122864   1.166   2.673  15.400 -1.2806  0.9256  0.5567
  483TIP3    H222865   1.172   2.524  15.427  0.7978  1.0354  0.9144
  484TIP3   OH222866   4.145   3.861   3.019 -0.2803  0.1844  0.4317
  484TIP3    H122867   4.052   3.839   3.023 -0.3557  0.7134  2.2651
  484TIP3    H222868   4.183   3.822   3.098  0.9379  0.5393  0.0493
  485TIP3   OH222869   1.435   6.634   2.890  0.3327  0.1228 -0.2361
  485TIP3    H122870   1.399   6.660   2.805 -2.0384 -0.6339  0.4647
  485TIP3    H222871   1.381   6.559   2.917  2.1977 -0.7880  1.1398
  486TIP3   OH222872   2.024   1.354  13.752 -0.0177 -0.1404 -0.4904
  486TIP3    H122873   1.983   1.436  13.726  0.6267 -0.3957 -2.4674
  486TIP3    H222874   1.952   1.291  13.755 -0.3120  0.2051 -0.3298
  487TIP3   OH222875   0.220   0.582   1.253  0.2856  0.4190  0.3271
  487TIP3    H122876   0.268   0.605   1.333  1.2651  2.8952 -0.8796
  487TIP3    H222877   0.254   0.641   1.186  0.6869 -2.6185 -2.4259
  488TIP3   OH222878   2.864   5.606   0.043 -0.2180  0.1192 -0.1410
  488TIP3    H122879   2.785   5.658   0.058 -1.6446 -1.4179 -1.9002
  488TIP3    H222880   2.873   5.552   0.122 -1.8020 -0.7150 -0.4878
  489TIP3   OH222881   2.586   6.722  13.574 -0.5136  0.2410 -0.3294
  489TIP3    H122882   2.606   6.639  13.530 -0.0158  0.1516  0.0469
  489TIP3    H222883   2.659   6.779  13.550 -0.4218  0.3010  0.0904
  490TIP3   OH222884   4.770   3.127   4.288  0.1029  0.4945  0.0613
  490TIP3    H122885   4.741   3.046   4.247  1.9610  0.5247 -1.4644
  490TIP3    H222886   4.701   3.190   4.266  0.9847  0.5155 -3.1995
  491TIP3   OH222887   2.908   4.680   0.355  0.0743 -0.2636 -0.5597
  491TIP3    H122888   2.929   4.719   0.270  3.3893  2.0641  1.1379
  491TIP3    H222889   2.848   4.742   0.396 -0.8709 -0.9817 -0.8040
  492TIP3   OH222890   3.806   2.650   2.237  0.1756  0.2040 -0.3662
  492TIP3    H122891   3.895   2.618   2.254 -0.2034 -1.1614 -0.7826
  492TIP3    H222892   3.774   2.678   2.322  0.3377 -1.1287  0.1680
  493TIP3   OH222893   6.287   5.458  16.614  0.1833  0.1513  0.4480
  493TIP3    H122894   6.374   5.435  16.580 -0.1319  2.0451 -1.8549
  493TIP3    H222895   6.297   5.549  16.644 -0.6986 -0.0638  1.4641
  494TIP3   OH222896   2.492   6.178   4.791  0.0148  0.5540  0.4274
  494TIP3    H122897   2.473   6.198   4.699  0.4879  0.1334  0.2309
  494TIP3    H222898   2.430   6.231   4.841 -1.4652 -0.5348 -0.1740
  495TIP3   OH222899   0.931   3.516   0.968  0.1790 -0.0203  0.1101
  495TIP3    H122900   0.989   3.493   1.041  1.0921 -1.5296 -1.0323
  495TIP3    H222901   0.959   3.459   0.897 -0.2334  1.8625 -1.6531
  496TIP3   OH222902   0.731   2.326  11.694  0.4039  0.3582 -0.5968
  496TIP3    H122903   0.734   2.404  11.638 -0.8241  0.7812 -0.0881
  496TIP3    H222904   0.679   2.263  11.644 -1.9630  1.2331  0.6113
  497TIP3   OH222905   1.549   1.003  13.841 -0.5365  0.3928 -0.2421
  497TIP3    H122906   1.494   0.931  13.809  0.9242 -0.4171 -1.0210
  497TIP3    H222907   1.570   0.978  13.931 -0.4766  0.1137 -0.3324
  498TIP3   OH222908   2.155   0.743  11.363  0.6038 -0.2188  0.4780
  498TIP3    H122909   2.113   0.779  11.285  1.8414 -0.5337 -0.3682
  498TIP3    H222910   2.104   0.664  11.384 -0.8932  0.8758  1.1543
  499TIP3   OH222911   2.004   5.674   1.444  0.0039  0.3277 -0.0018
  499TIP3    H122912   1.999   5.732   1.520  0.8667 -0.2111  0.4892
  499TIP3    H222913   2.070   5.714   1.388  1.9114 -1.0165  1.1430
  500TIP3   OH222914   0.949   6.219   2.071 -0.0276 -0.0874  0.1572
  500TIP3    H122915   1.029   6.271   2.061  0.2706 -0.4054  0.7993
  500TIP3    H222916   0.878   6.282   2.065  0.2555  0.1562 -0.7477
  501TIP3   OH222917   2.156   0.994  12.480 -0.1765  0.3723 -0.1726
  501TIP3    H122918   2.114   0.957  12.557 -1.3199 -2.2160 -1.9278
  501TIP3    H222919   2.246   1.010  12.507 -0.6221 -0.1846  1.7596
  502TIP3   OH222920   2.143   1.912  11.268 -0.0367 -0.1954 -0.6419
  502TIP3    H122921   2.122   1.890  11.177  0.4920  0.8594 -1.0317
  502TIP3    H222922   2.200   1.841  11.297  1.5101  0.5005 -1.8177
  503TIP3   OH222923   3.564   4.851   0.173  1.0146 -0.2800  0.2992
  503TIP3    H122924   3.601   4.902   0.245 -0.9597  2.6678 -0.6234
  503TIP3    H222925   3.596   4.894   0.094 -0.3596 -0.7218 -0.5300
  504TIP3   OH222926   6.744   3.163   4.412 -0.5516 -0.3067 -0.3670
  504TIP3    H122927   6.765   3.070   4.414 -1.4021 -0.5987 -2.4728
  504TIP3    H222928   6.775   3.197   4.496 -0.3025 -2.4921  0.4788
  505TIP3   OH222929   5.546   3.087   3.246  1.1199 -0.3882 -0.1717
  505TIP3    H122930   5.569   2.996   3.226  3.5769 -0.6857  3.1038
  505TIP3    H222931   5.627   3.126   3.278 -0.5373  2.0447  1.4587
  506TIP3   OH222932   0.348   6.405   4.827  0.2654 -0.0726  0.3584
  506TIP3    H122933   0.339   6.458   4.907  0.9333 -0.6373  0.8176
  506TIP3    H222934   0.441   6.384   4.823  1.0238  3.0124 -2.5874
  507TIP3   OH222935   0.591   0.336  14.010  0.4230 -0.0678 -0.2785
  507TIP3    H122936   0.606   0.317  14.102 -1.1427 -0.1281 -0.0084
  507TIP3    H222937   0.608   0.254  13.964  0.4929 -0.2310  0.0427
  508TIP3   OH222938   3.178   2.029  11.498  0.0520 -0.4889 -0.2248
  508TIP3    H122939   3.209   1.951  11.452 -0.4904 -1.0058  0.2615
  508TIP3    H222940   3.196   2.011  11.590  0.1647  0.0826 -0.1303
  509TIP3   OH222941   6.701   3.014  10.774  0.6389 -0.3720 -0.1854
  509TIP3    H122942   6.742   2.956  10.710 -1.7058 -2.1767 -0.1597
  509TIP3    H222943   6.626   3.052  10.728  0.4198  0.3302  0.7220
  510TIP3   OH222944   6.532   6.746  11.355 -0.1221  0.7664  0.2083
  510TIP3    H122945   6.578   6.703  11.283 -2.7952 -1.9950 -0.0509
  510TIP3    H222946   6.475   6.810  11.313 -0.3279  0.4646  0.0229
  511TIP3   OH222947   1.656   4.964  14.256  0.1077 -0.0715 -0.2517
  511TIP3    H122948   1.695   4.877  14.259  2.0093  0.7652  0.7926
  511TIP3    H222949   1.565   4.950  14.285  0.7198 -1.5294  1.1232
  512TIP3   OH222950   3.499   1.466  16.989 -0.4793  0.5397  0.1122
  512TIP3    H122951   3.430   1.519  16.950  0.6109  0.0718 -2.6979
  512TIP3    H222952   3.490   1.380  16.947 -0.0301 -0.4845  1.9721
  513TIP3   OH222953   1.061   3.346  14.971  0.3149 -0.4361  0.3851
  513TIP3    H122954   1.070   3.312  15.060 -0.4659 -1.6222  0.0397
  513TIP3    H222955   0.971   3.322  14.946  0.5563 -0.1982 -0.7544
  514TIP3   OH222956   0.810   5.109  14.742 -0.0144 -0.5253 -0.1434
  514TIP3    H122957   0.750   5.146  14.808 -0.2301  0.8479 -1.0515
  514TIP3    H222958   0.767   5.029  14.713 -0.2266 -0.8144  0.9199
  515TIP3   OH222959   4.023   0.609  12.470  0.8319 -0.6974 -0.5601
  515TIP3    H122960   4.049   0.697  12.498  2.2148 -1.0789 -0.5556
  515TIP3    H222961   4.068   0.597  12.386 -1.9155 -0.2019 -2.2217
  516TIP3   OH222962   0.277   6.264   6.269 -0.5767 -0.6779  0.7943
  516TIP3    H122963   0.206   6.327   6.275  0.6107  0.7370  0.5303
  516TIP3    H222964   0.354   6.310   6.304  0.7798 -1.1932 -1.3121
  517TIP3   OH222965   1.462   4.153  11.366 -0.4026  0.4856  0.0373
  517TIP3    H122966   1.513   4.220  11.321  1.3661 -0.2844  0.8024
  517TIP3    H222967   1.393   4.129  11.304  0.1270  1.5907 -1.0136
  518TIP3   OH222968   1.907   6.310   2.274  0.0536 -0.5653 -0.3979
  518TIP3    H122969   1.939   6.259   2.348 -0.6189 -2.1383 -1.1478
  518TIP3    H222970   1.978   6.373   2.255 -0.2467  0.7158  2.2840
  519TIP3   OH222971   0.762   2.837   1.153  0.0901 -0.1400  0.5034
  519TIP3    H122972   0.707   2.768   1.188  0.7688  0.4051  2.8050
  519TIP3    H222973   0.723   2.918   1.186 -0.0257  0.5501 -1.1960
  520TIP3   OH222974   0.048   5.235   4.769 -0.0545  0.6611  0.0373
  520TIP3    H122975   0.110   5.288   4.718  1.0043 -0.2816  0.2989
  520TIP3    H222976   0.068   5.145   4.744  0.1178  0.2120  1.7031
  521TIP3   OH222977   3.457   3.861   6.987 -0.1189 -0.4005 -0.2123
  521TIP3    H122978   3.517   3.800   6.943 -2.5607 -1.4611 -2.3217
  521TIP3    H222979   3.373   3.847   6.944 -1.7829  1.4758  2.1583
  522TIP3   OH222980   3.612   1.067  15.166  0.8351  0.3437 -0.2158
  522TIP3    H122981   3.588   0.979  15.195 -0.4314  1.0477  0.9728
  522TIP3    H222982   3.567   1.077  15.081 -1.4476  0.8285  0.9545
  523TIP3   OH222983   0.602   2.365   0.205  0.1338 -0.1783 -0.1961
  523TIP3    H122984   0.613   2.460   0.204 -1.6490  0.0772  0.5602
  523TIP3    H222985   0.515   2.351   0.242  0.6542 -2.1540  0.4168
  524TIP3   OH222986   1.939   2.159   0.097  0.0391 -0.7551  0.5527
  524TIP3    H122987   1.861   2.105   0.112 -0.0808 -0.1244  2.6123
  524TIP3    H222988   1.909   2.230   0.041 -0.6481 -0.9957  0.6099
  525TIP3   OH222989   0.955   4.024  12.805 -0.3242 -0.1198 -0.7420
  525TIP3    H122990   1.009   4.096  12.772  0.5124 -1.5706 -2.7646
  525TIP3    H222991   1.017   3.966  12.848 -0.5286 -0.9004 -1.4730
  526TIP3   OH222992   2.661   4.802  17.402 -0.3507 -0.2814 -0.3212
  526TIP3    H122993   2.600   4.747  17.352  1.8853 -2.1764 -1.2000
  526TIP3    H222994   2.740   4.748  17.409  1.9594  2.7544 -1.0192
  527TIP3   OH222995   5.989   5.148   0.286 -0.1578  0.1360 -0.1846
  527TIP3    H122996   6.074   5.148   0.243 -1.3985  2.1084 -2.9062
  527TIP3    H222997   5.986   5.232   0.332 -0.6630  0.0792 -0.1145
  528TIP3   OH222998   5.893   0.190  17.411 -0.4606  0.1606  0.4301
  528TIP3    H122999   5.867   0.111  17.458 -1.6982  1.5615  2.2684
  528TIP3    H223000   5.818   0.249  17.420  0.6842  1.8057 -0.2433
  529TIP3   OH223001   6.399   0.927   6.064  0.6708 -0.5662 -0.3536
  529TIP3    H123002   6.323   0.905   6.119  0.0617  2.1374 -0.0008
  529TIP3    H223003   6.474   0.914   6.122  0.5498 -2.9286 -0.5998
  530TIP3   OH223004   3.042   0.170  16.660 -0.4773 -0.2175 -0.8924
  530TIP3    H123005   2.966   0.138  16.709  0.7089 -2.5261 -0.4142
  530TIP3    H223006   3.061   0.255  16.699  0.9168 -2.2246  3.4466
  531TIP3   OH223007   5.027   5.887  11.815  0.6261  0.2298  0.0907
  531TIP3    H123008   4.957   5.953  11.820 -0.8836 -1.0846 -2.1248
  531TIP3    H223009   5.002   5.822  11.881 -0.3798 -0.2952 -0.7714
  532TIP3   OH223010   4.346   0.674  15.816  0.3501  0.2828  0.2170
  532TIP3    H123011   4.362   0.722  15.736  1.6367  0.1784  0.4018
  532TIP3    H223012   4.422   0.691  15.871  0.3386 -1.0957  0.7037
  533TIP3   OH223013   6.528   4.611  11.362  0.2880 -0.2513  0.0384
  533TIP3    H123014   6.539   4.545  11.430  1.6329 -1.0342 -0.8815
  533TIP3    H223015   6.604   4.667  11.371 -0.2898  0.5391  0.1062
  534TIP3   OH223016   4.416   2.234   5.652  0.2416  0.7177 -0.3952
  534TIP3    H123017   4.444   2.320   5.682  1.2051  0.5300 -0.7258
  534TIP3    H223018   4.445   2.230   5.561 -0.4964  0.3485 -0.6191
  535TIP3   OH223019   5.439   4.897  12.922 -0.6509  0.4052 -0.4912
  535TIP3    H123020   5.384   4.946  12.860  0.0897 -0.4433 -1.8812
  535TIP3    H223021   5.483   4.831  12.868  0.0693 -0.3503  0.9520
  536TIP3   OH223022   3.515   0.571  13.116 -0.3262 -0.4255  0.6269
  536TIP3    H123023   3.420   0.578  13.127 -0.5896  1.6961 -1.8689
  536TIP3    H223024   3.550   0.643  13.167 -0.3005  0.2175 -0.2712
  537TIP3   OH223025   0.929   4.433   4.554  0.0835  0.4285  0.1906
  537TIP3    H123026   0.898   4.508   4.504 -1.3712 -0.7766 -0.8145
  537TIP3    H223027   0.901   4.450   4.644 -1.0287  0.6959 -0.1890
  538TIP3   OH223028   6.109   2.717   4.390  0.5025  0.0144  0.5135
  538TIP3    H123029   6.121   2.623   4.385  0.2661 -0.1911  2.5885
  538TIP3    H223030   6.148   2.752   4.310  1.8915 -1.7243  0.3914
  539TIP3   OH223031   4.726   3.514   2.409 -0.0750 -0.2975 -0.3720
  539TIP3    H123032   4.753   3.591   2.459  0.2743  0.7804 -2.1559
  539TIP3    H223033   4.798   3.452   2.419  0.1817  0.0710  0.0925
  540TIP3   OH223034   3.107   1.729  11.880 -0.1701 -0.1121 -0.6533
  540TIP3    H123035   3.034   1.744  11.819 -0.9728 -0.0884  0.2845
  540TIP3    H223036   3.076   1.659  11.938  0.8971 -0.7039 -0.7702
  541TIP3   OH223037   2.099   4.948  12.839 -0.0006 -0.0834  0.6369
  541TIP3    H123038   2.127   5.031  12.801 -0.0985 -0.2769  0.1363
  541TIP3    H223039   2.120   4.883  12.773 -0.6272 -0.3629  0.7057
  542TIP3   OH223040   5.113   2.693   3.945 -0.5683  0.0181 -0.4461
  542TIP3    H123041   5.104   2.744   3.865 -1.2708 -0.7305 -0.8543
  542TIP3    H223042   5.066   2.744   4.011  0.5520  0.9611 -0.3297
  543TIP3   OH223043   4.500   6.712   3.839  0.1568  0.2320  0.0897
  543TIP3    H123044   4.417   6.675   3.868  0.4310 -0.5553 -0.1013
  543TIP3    H223045   4.544   6.738   3.920 -0.1734  0.4498  0.2046
  544TIP3   OH223046   4.274   4.022   5.403  0.2184 -0.7232  0.3543
  544TIP3    H123047   4.215   4.034   5.477  0.5473 -0.7390  0.6212
  544TIP3    H223048   4.217   4.027   5.326  0.0939  1.0379  0.5036
  545TIP3   OH223049   3.823   3.556   1.971 -0.4735 -0.0651  0.5884
  545TIP3    H123050   3.740   3.508   1.979  1.1063 -2.9757  0.9265
  545TIP3    H223051   3.800   3.634   1.921 -3.0575 -1.8920 -1.4205
  546TIP3   OH223052   2.271   3.333   3.583 -0.4288 -1.0515  0.3394
  546TIP3    H123053   2.189   3.339   3.534 -0.8089  1.8930  1.1345
  546TIP3    H223054   2.248   3.357   3.672  1.6113  2.6331  0.0668
  547TIP3   OH223055   3.845   0.943   3.527 -0.3188 -0.0409 -0.3481
  547TIP3    H123056   3.866   0.854   3.553 -0.8924  0.0088  0.3534
  547TIP3    H223057   3.768   0.965   3.580 -0.7806  0.5202 -1.2357
  548TIP3   OH223058   4.170   0.386   3.136 -0.0555 -0.4171 -0.0189
  548TIP3    H123059   4.080   0.359   3.123  0.1148 -2.2854  2.0829
  548TIP3    H223060   4.210   0.382   3.049 -1.3206 -2.3105 -0.5647
  549TIP3   OH223061   4.239   2.924   2.298  0.3578  0.1152  0.2909
  549TIP3    H123062   4.150   2.960   2.289 -0.5158 -2.0471 -0.1686
  549TIP3    H223063   4.280   2.940   2.213  0.3498  0.9276  0.4311
  550TIP3   OH223064   2.333   1.680   5.819  0.5682  0.5128  0.0825
  550TIP3    H123065   2.315   1.756   5.764  1.8193  0.8970  0.1601
  550TIP3    H223066   2.394   1.713   5.886  2.1520 -0.8134 -0.6366
  551TIP3   OH223067   6.328   4.452   1.745  0.1855 -0.3890 -0.1993
  551TIP3    H123068   6.238   4.436   1.716  0.9872 -1.8888 -2.1183
  551TIP3    H223069   6.365   4.509   1.676  0.7006  0.2632  0.5977
  552TIP3   OH223070   5.328   4.185   1.320  0.1488  0.3549  0.3768
  552TIP3    H123071   5.325   4.089   1.313 -2.0756  0.3975 -0.0734
  552TIP3    H223072   5.357   4.201   1.410  2.5035 -0.6678 -0.1345
  553TIP3   OH223073   0.301   3.764   4.206  0.0309  0.0310  0.6182
  553TIP3    H123074   0.392   3.785   4.227 -0.0886 -0.2242  1.4097
  553TIP3    H223075   0.259   3.849   4.193  0.1025  0.1957  1.4566
  554TIP3   OH223076   5.596   3.292   2.223  0.2960 -0.3244  0.0336
  554TIP3    H123077   5.527   3.262   2.164  0.6824 -1.1691 -0.0119
  554TIP3    H223078   5.674   3.295   2.167  0.3674  0.2856  0.1648
  555TIP3   OH223079   6.334   3.368   3.423 -0.1449 -0.2574 -0.0999
  555TIP3    H123080   6.364   3.423   3.350  1.7078  0.5752  1.2344
  555TIP3    H223081   6.406   3.368   3.485 -1.7076 -0.8537  1.8158
  556TIP3   OH223082   2.052   6.254  15.105 -0.5642 -0.3486  0.4601
  556TIP3    H123083   2.032   6.186  15.041  0.1737 -0.5874  0.4743
  556TIP3    H223084   2.074   6.205  15.185  0.1343 -0.1014  0.4216
  557TIP3   OH223085   6.614   4.734   4.282  0.1384  0.1572  0.8536
  557TIP3    H123086   6.672   4.810   4.290 -0.3727  0.6433  0.0159
  557TIP3    H223087   6.587   4.716   4.372  0.2838  0.9517  1.0624
  558TIP3   OH223088   3.547   4.003   1.834  0.0244  0.4689 -0.6081
  558TIP3    H123089   3.559   4.098   1.841  1.5793  0.1760  1.9993
  558TIP3    H223090   3.562   3.970   1.923 -0.3763 -2.2481 -1.4514
  559TIP3   OH223091   0.368   3.242   0.297  0.6901  0.1758  0.1970
  559TIP3    H123092   0.417   3.237   0.214 -1.4802 -2.1568 -1.1008
  559TIP3    H223093   0.348   3.151   0.318 -1.4234  0.8935  1.6468
  560TIP3   OH223094   5.195   1.206  13.738 -0.3026 -0.0528  0.3706
  560TIP3    H123095   5.250   1.170  13.808 -2.2825  0.2311  2.1753
  560TIP3    H223096   5.110   1.221  13.780 -1.0217  1.9644 -1.6202
  561TIP3   OH223097   5.979   5.993   4.167  0.3957  0.2054  0.0556
  561TIP3    H123098   5.965   5.901   4.144  1.1046 -0.2505  1.3259
  561TIP3    H223099   5.902   6.038   4.133  0.3396 -0.7455 -1.1561
  562TIP3   OH223100   2.794   5.338   6.027 -0.1697  0.3460 -0.2972
  562TIP3    H123101   2.831   5.323   6.114  0.9105  0.8354 -0.6451
  562TIP3    H223102   2.832   5.422   6.000 -0.4821  0.1888 -1.2394
  563TIP3   OH223103   1.130   1.964  11.717 -0.1918  0.3684  0.5549
  563TIP3    H123104   1.061   1.898  11.706  0.6355 -0.2451 -1.4471
  563TIP3    H223105   1.085   2.048  11.705 -1.4294  0.3807  3.9744
  564TIP3   OH223106   2.099   1.863  17.176 -0.0697 -0.8612 -0.1772
  564TIP3    H123107   2.184   1.879  17.217  1.4685 -0.9905 -3.0596
  564TIP3    H223108   2.104   1.907  17.091 -3.3819  0.1702 -0.0094
  565TIP3   OH223109   3.526   5.958   3.781 -0.6279  0.0972  0.2969
  565TIP3    H123110   3.588   6.028   3.797  0.1978 -0.1809 -1.4473
  565TIP3    H223111   3.501   5.968   3.689 -0.2553 -2.0216 -0.1058
  566TIP3   OH223112   1.327   2.966   3.323 -0.1069  0.0408 -0.2192
  566TIP3    H123113   1.255   2.919   3.364 -0.8861  0.7882 -0.6923
  566TIP3    H223114   1.328   2.936   3.232  0.3494 -0.1614 -0.1506
  567TIP3   OH223115   2.246   1.930  12.525  0.0549  0.5700  0.1439
  567TIP3    H123116   2.177   1.932  12.459 -0.0418  1.4910  0.2531
  567TIP3    H223117   2.200   1.931  12.609  0.1855 -0.1711  0.2339
  568TIP3   OH223118   0.231   6.409   1.582  0.4273 -0.7255  0.2032
  568TIP3    H123119   0.255   6.498   1.607 -0.5759 -0.3991  0.0485
  568TIP3    H223120   0.191   6.418   1.496 -0.5046 -1.1901  0.5720
  569TIP3   OH223121   6.329   0.848   1.429 -0.2356 -0.1624  0.3487
  569TIP3    H123122   6.266   0.781   1.453  1.5264 -1.5619  1.3336
  569TIP3    H223123   6.415   0.808   1.446  1.0004  1.0496 -2.4292
  570TIP3   OH223124   1.415   3.444  16.581  0.4102  0.1290  0.2894
  570TIP3    H123125   1.414   3.430  16.676 -0.3223 -0.8038  0.1626
  570TIP3    H223126   1.370   3.528  16.569 -0.6437 -0.3509  0.6990
  571TIP3   OH223127   2.172   1.846  15.746  0.0808 -0.1274  0.6917
  571TIP3    H123128   2.143   1.937  15.734 -2.7130 -1.2336 -2.0573
  571TIP3    H223129   2.112   1.811  15.811 -1.9691 -1.1710 -1.6417
  572TIP3   OH223130   0.122   1.992   3.677 -0.0616 -0.2661 -0.2000
  572TIP3    H123131   0.194   1.966   3.735 -0.0561  1.8847  0.8514
  572TIP3    H223132   0.043   1.985   3.731 -0.1974  0.6417 -0.2569
  573TIP3   OH223133   4.203   0.456   6.697 -0.1249 -0.1196  0.4842
  573TIP3    H123134   4.223   0.366   6.673 -0.4112  0.0039 -0.2429
  573TIP3    H223135   4.286   0.491   6.728 -0.0419 -0.6699  0.8935
  574TIP3   OH223136   2.503   3.949   1.299  0.4383 -0.5004 -0.1934
  574TIP3    H123137   2.578   3.935   1.356 -0.0997 -1.6475  0.2773
  574TIP3    H223138   2.448   3.871   1.312 -0.1091 -0.3925 -1.6357
  575TIP3   OH223139   1.628   1.552  16.756 -0.0182 -0.2850 -0.5463
  575TIP3    H123140   1.576   1.516  16.828  0.3083 -1.2025 -0.7561
  575TIP3    H223141   1.701   1.597  16.799  1.1972 -2.3630 -0.2680
  576TIP3   OH223142   2.611   5.118   1.371  0.2245 -0.1283  0.2549
  576TIP3    H123143   2.585   5.150   1.458 -0.9928 -0.2719 -0.0341
  576TIP3    H223144   2.574   5.182   1.310 -0.7779 -1.1318 -0.2460
  577TIP3   OH223145   0.630   4.732  13.007 -0.2308  0.0857 -0.1096
  577TIP3    H123146   0.633   4.637  13.017 -1.1904  0.1406  0.8047
  577TIP3    H223147   0.720   4.761  13.024 -0.5122 -0.4105  2.5665
  578TIP3   OH223148   1.348   2.045   0.848  0.3376  0.2231  0.7796
  578TIP3    H123149   1.254   2.042   0.830  0.3006 -1.1260  1.0776
  578TIP3    H223150   1.383   2.107   0.784 -0.4067 -1.1539 -1.0545
  579TIP3   OH223151   1.904   6.281   5.699 -0.3744  0.1765  0.1225
  579TIP3    H123152   1.843   6.301   5.770 -1.4566  1.8521 -1.1875
  579TIP3    H223153   1.915   6.186   5.702 -0.2950  0.2042  2.5491
  580TIP3   OH223154   0.959   1.220  14.241  0.5809 -0.4182  0.2518
  580TIP3    H123155   0.907   1.298  14.257 -0.4864 -1.0804  0.1296
  580TIP3    H223156   0.910   1.149  14.283  1.5065 -1.0279  0.3328
  581TIP3   OH223157   6.410   0.216  16.791 -0.2990  0.1971  0.0969
  581TIP3    H123158   6.328   0.172  16.812  0.9746 -3.0808 -1.1983
  581TIP3    H223159   6.385   0.287  16.732 -2.1742 -0.9463 -0.5674
  582TIP3   OH223160   5.415   3.322  12.070  0.2838 -0.3544 -0.2482
  582TIP3    H123161   5.412   3.382  12.145  0.3654 -0.2908 -0.2961
  582TIP3    H223162   5.507   3.297  12.063 -0.0499 -2.2728  1.1921
  583TIP3   OH223163   5.697   2.861  11.594 -0.1052 -0.4624  0.2586
  583TIP3    H123164   5.695   2.803  11.518 -0.6352  0.0986 -0.1621
  583TIP3    H223165   5.656   2.809  11.664  0.4895 -1.0217  0.2079
  584TIP3   OH223166   5.377   2.938  15.936  0.0379 -1.1861 -0.3204
  584TIP3    H123167   5.335   3.021  15.915  0.2481 -1.6173 -2.7593
  584TIP3    H223168   5.409   2.949  16.025 -0.7450  0.9916 -0.2469
  585TIP3   OH223169   5.371   0.796  16.940 -0.2566  0.6896  0.7318
  585TIP3    H123170   5.301   0.804  17.005  0.4082  0.4866  1.4916
  585TIP3    H223171   5.451   0.794  16.992  0.4922  3.0516 -0.1964
  586TIP3   OH223172   0.353   6.610  14.547 -0.3750 -0.3872 -0.1081
  586TIP3    H123173   0.443   6.578  14.559 -0.1389  0.6406  1.1400
  586TIP3    H223174   0.359   6.704  14.560 -2.0360 -0.5582  3.1200
  587TIP3   OH223175   6.741   0.077  13.311 -0.0790  0.0562  0.1161
  587TIP3    H123176   6.710   0.124  13.388 -1.0425 -3.6790  2.2838
  587TIP3    H223177   6.671   0.088  13.246 -0.2631  1.5223  0.5473
  588TIP3   OH223178   2.213   0.637  17.088  0.0356 -1.0708 -0.3773
  588TIP3    H123179   2.121   0.618  17.067 -0.4059  1.5064 -1.2667
  588TIP3    H223180   2.254   0.653  17.003  0.7118  0.0183  0.1285
  589TIP3   OH223181   2.111   0.490   0.398  0.2074 -0.3583 -0.1426
  589TIP3    H123182   2.059   0.563   0.366  0.8897 -0.3966 -1.3893
  589TIP3    H223183   2.155   0.524   0.476 -1.1334 -0.1199  0.5274
  590TIP3   OH223184   6.038   5.818  16.655 -0.4480 -0.1716  0.4314
  590TIP3    H123185   5.975   5.800  16.725 -1.2209 -1.0679 -0.4608
  590TIP3    H223186   5.997   5.887  16.603  1.0461  1.9963  1.9736
  591TIP3   OH223187   4.222   6.547   3.640 -0.2043 -0.4112  0.3532
  591TIP3    H123188   4.270   6.580   3.564  0.0366  0.5177  0.8883
  591TIP3    H223189   4.287   6.548   3.711 -0.6451 -0.4708  0.7601
  592TIP3   OH223190   2.748   5.478  12.144  0.2448 -0.0859 -0.4325
  592TIP3    H123191   2.665   5.514  12.174  0.3969  0.4171 -0.5954
  592TIP3    H223192   2.724   5.412  12.080 -0.0206  1.1478 -1.6699
  593TIP3   OH223193   5.837   5.300  15.008 -0.1827  0.1779 -0.0425
  593TIP3    H123194   5.771   5.270  15.071  0.0561 -0.4874 -0.0915
  593TIP3    H223195   5.801   5.380  14.971 -1.2392 -0.4669 -0.4827
  594TIP3   OH223196   0.273   2.516  15.891  0.0082 -0.1210 -0.4193
  594TIP3    H123197   0.353   2.568  15.899  1.6189 -2.0681 -2.3726
  594TIP3    H223198   0.226   2.555  15.817 -1.2159  1.3575  1.0636
  595TIP3   OH223199   2.278   0.880  15.889  0.1247  0.0206  0.4979
  595TIP3    H123200   2.217   0.829  15.835  1.1009 -1.5594  0.8326
  595TIP3    H223201   2.234   0.964  15.901 -1.9341 -1.0153  0.6219
  596TIP3   OH223202   2.700   0.374   2.064 -0.0774 -0.0560  0.1081
  596TIP3    H123203   2.703   0.469   2.069  0.5882  0.1765 -2.8609
  596TIP3    H223204   2.767   0.345   2.127  0.2823  1.4616  0.4688
  597TIP3   OH223205   5.601   1.217  12.590 -0.3952 -0.2372  0.1272
  597TIP3    H123206   5.693   1.228  12.567 -0.5101  0.2407 -0.1054
  597TIP3    H223207   5.555   1.214  12.506 -0.6422 -0.0178  0.2537
  598TIP3   OH223208   3.298   3.727  12.703 -0.3099  0.2890 -0.6188
  598TIP3    H123209   3.266   3.805  12.657 -1.1538  0.6854  0.5792
  598TIP3    H223210   3.244   3.656  12.669 -0.4379  0.4558 -0.7697
  599TIP3   OH223211   2.899   3.878  11.599 -0.0425 -0.2440 -0.3300
  599TIP3    H123212   2.904   3.970  11.622 -0.9436 -0.3876  0.5082
  599TIP3    H223213   2.991   3.851  11.589  0.3441  0.3144  1.2841
  600TIP3   OH223214   1.325   0.764   1.243  0.0790 -0.3455  0.0015
  600TIP3    H123215   1.419   0.760   1.261  0.2120  0.4985 -0.4465
  600TIP3    H223216   1.287   0.694   1.295  0.5159  1.4878  2.9864
  601TIP3   OH223217   0.384   6.371   0.857  0.1338  0.4761 -0.3133
  601TIP3    H123218   0.362   6.369   0.950  0.2254 -1.3699 -0.2923
  601TIP3    H223219   0.467   6.417   0.852 -0.7916  2.2815  0.2833
  602TIP3   OH223220   1.813   5.302   5.675  0.0931  0.1674 -0.3634
  602TIP3    H123221   1.785   5.244   5.604  1.3872 -1.8545  0.6788
  602TIP3    H223222   1.797   5.251   5.755  1.8138  0.9787  0.5627
  603TIP3   OH223223   4.813   5.514  11.920  0.4559  0.0310  0.5449
  603TIP3    H123224   4.754   5.528  11.994  1.3393 -0.4944  1.3867
  603TIP3    H223225   4.756   5.508  11.844 -0.8778 -2.8447  1.5924
  604TIP3   OH223226   4.603   6.032  16.006  0.2648 -0.4317 -0.1955
  604TIP3    H123227   4.665   6.102  15.985 -0.5509  0.3274 -0.1247
  604TIP3    H223228   4.544   6.030  15.931  0.7757 -1.6329 -0.5943
  605TIP3   OH223229   2.839   3.465   3.305  0.4223  0.0755 -0.3162
  605TIP3    H123230   2.765   3.427   3.256 -0.8319  0.1409  1.4318
  605TIP3    H223231   2.907   3.398   3.301 -0.1169 -0.4466 -1.0670
  606TIP3   OH223232   3.927   0.031  15.820 -0.5895  0.0156  0.9921
  606TIP3    H123233   3.884   0.002  15.739  0.2016 -0.8594  0.8725
  606TIP3    H223234   3.921  -0.044  15.879 -1.2698  0.6903  1.8136
  607TIP3   OH223235   2.892   3.631  14.015 -0.2425 -0.3799  0.0717
  607TIP3    H123236   2.823   3.694  13.995  0.7609  1.3523  1.7287
  607TIP3    H223237   2.875   3.606  14.106 -0.3478 -2.2169 -0.4053
  608TIP3   OH223238   0.726   5.505   4.068  0.1778 -0.0721  0.1865
  608TIP3    H123239   0.641   5.473   4.039  0.2732  1.2923 -1.7625
  608TIP3    H223240   0.705   5.570   4.136 -0.3318  0.2210 -0.2500
  609TIP3   OH223241   4.831   3.999  14.842 -0.4934  0.0562 -0.5206
  609TIP3    H123242   4.740   3.991  14.815 -0.4737  0.4354 -0.7105
  609TIP3    H223243   4.832   3.970  14.933 -0.7516 -0.2289 -0.6077
  610TIP3   OH223244   5.316   0.281  15.217 -0.0254  0.0844 -0.2422
  610TIP3    H123245   5.371   0.232  15.278  0.9350  0.7933 -0.5114
  610TIP3    H223246   5.336   0.243  15.131  0.6681  0.8676 -0.4427
  611TIP3   OH223247   5.409   0.240   5.088 -0.4458  0.2807  0.0571
  611TIP3    H123248   5.337   0.178   5.094  0.9769 -1.4594 -0.1022
  611TIP3    H223249   5.369   0.325   5.108 -2.1006 -0.8879  2.1929
  612TIP3   OH223250   2.757   4.232  15.501 -0.1863  0.3513 -0.1547
  612TIP3    H123251   2.833   4.257  15.554  0.9255  1.7376 -2.2492
  612TIP3    H223252   2.719   4.315  15.473 -0.9126 -0.3346 -1.2533
  613TIP3   OH223253   0.605   3.090  12.239  0.1346 -0.0962 -0.2839
  613TIP3    H123254   0.652   3.073  12.321  0.3251  0.0324 -0.3628
  613TIP3    H223255   0.651   3.036  12.175  0.8444  0.8101 -0.5689
  614TIP3   OH223256   6.577   6.670  11.685  0.4392 -0.0302 -0.5516
  614TIP3    H123257   6.553   6.590  11.639 -1.0154  0.2665 -0.3543
  614TIP3    H223258   6.575   6.646  11.778 -2.3442  0.7498 -0.3247
  615TIP3   OH223259   5.271   0.562   3.363  0.4406 -0.7038  0.1943
  615TIP3    H123260   5.252   0.474   3.329 -2.2400 -0.2268  0.2576
  615TIP3    H223261   5.254   0.554   3.457 -0.2014 -0.0366  0.1384
  616TIP3   OH223262   4.037   5.299  16.429  0.4658  0.0526 -0.8582
  616TIP3    H123263   4.002   5.333  16.512 -1.0622  1.2886 -1.9560
  616TIP3    H223264   4.038   5.204  16.441  0.8671  0.2341  0.7886
  617TIP3   OH223265   4.572   5.225  13.254  0.2608 -0.5892  0.0209
  617TIP3    H123266   4.655   5.269  13.235 -0.9039  0.7776 -2.3388
  617TIP3    H223267   4.590   5.172  13.331  3.4334 -0.6776 -0.6586
  618TIP3   OH223268   0.434   3.725  16.108  0.1728  0.4536  0.2843
  618TIP3    H123269   0.493   3.709  16.182 -0.0901 -1.7096  0.0858
  618TIP3    H223270   0.485   3.698  16.031 -0.2819  0.7236 -0.1131
  619TIP3   OH223271   3.172   1.588  15.258  1.1081 -0.3480  0.1233
  619TIP3    H123272   3.137   1.518  15.313  0.9845  2.2674  3.7410
  619TIP3    H223273   3.220   1.645  15.319  1.7510  2.3935 -2.6702
  620TIP3   OH223274   1.788   4.024  13.861  0.8400  0.1613  0.1202
  620TIP3    H123275   1.701   3.986  13.868  1.7504 -2.0042  0.8934
  620TIP3    H223276   1.782   4.108  13.905 -0.6031 -0.4332  1.1302
  621TIP3   OH223277   1.561   1.313   6.261  0.3013  0.5344 -0.0635
  621TIP3    H123278   1.549   1.220   6.280  0.0669  0.5895  0.0515
  621TIP3    H223279   1.564   1.355   6.347 -1.3847  0.8649 -0.1418
  622TIP3   OH223280   6.366   0.839  11.862 -0.6793 -0.6467 -0.1109
  622TIP3    H123281   6.359   0.879  11.776  1.4808  1.3171  0.5115
  622TIP3    H223282   6.420   0.761  11.847  0.5890  0.2492 -0.4629
  623TIP3   OH223283   1.238   5.172   1.828 -0.5143 -0.1874 -0.2868
  623TIP3    H123284   1.309   5.207   1.775  2.0217 -2.0102  1.6712
  623TIP3    H223285   1.220   5.240   1.893  0.2214 -0.1333 -0.1344
  624TIP3   OH223286   6.499   2.662   4.404 -0.4676 -0.2219  0.1357
  624TIP3    H123287   6.439   2.588   4.413 -0.2665 -0.6060 -1.4073
  624TIP3    H223288   6.471   2.724   4.471 -1.6622 -1.0208  0.3989
  625TIP3   OH223289   2.300   2.043   3.497 -0.3677 -0.1011  0.2210
  625TIP3    H123290   2.213   2.082   3.490 -0.7987 -0.9987  0.4066
  625TIP3    H223291   2.359   2.108   3.459 -1.1595  0.3723 -0.2205
  626TIP3   OH223292   1.149   6.008   5.615 -0.3138 -0.2492 -0.1507
  626TIP3    H123293   1.152   5.998   5.520 -0.9245  0.1458 -0.2174
  626TIP3    H223294   1.057   6.020   5.635 -0.2642 -0.9729  0.5706
  627TIP3   OH223295   2.051   5.158   0.275  0.0048  1.0809 -0.1339
  627TIP3    H123296   2.026   5.069   0.300  0.8533  0.9969  0.4509
  627TIP3    H223297   2.038   5.161   0.181  1.4861 -0.1840 -0.4262
  628TIP3   OH223298   2.748   5.244   6.802  0.3718  0.1176 -0.4371
  628TIP3    H123299   2.840   5.221   6.788  0.7254  0.1066  1.5617
  628TIP3    H223300   2.705   5.160   6.816  0.3754  0.2183  0.2052
  629TIP3   OH223301   0.719   1.701  14.300 -0.0938  0.3380  0.0962
  629TIP3    H123302   0.719   1.619  14.250 -0.3575  0.7306 -0.5641
  629TIP3    H223303   0.810   1.728  14.302 -0.2708  1.1908 -1.6570
  630TIP3   OH223304   2.578   2.818   6.695  0.4997  0.7459  0.2297
  630TIP3    H123305   2.670   2.842   6.691  0.5203  0.5436 -0.6332
  630TIP3    H223306   2.574   2.731   6.655  0.0479  0.4179  0.9660
  631TIP3   OH223307   2.798   6.191  13.677 -0.7890  0.1814 -0.2546
  631TIP3    H123308   2.819   6.197  13.584 -1.5043  0.1411 -0.4218
  631TIP3    H223309   2.877   6.223  13.722 -0.1091 -0.6388 -0.8486
  632TIP3   OH223310   0.896   5.320   1.878  0.7198  0.3857  0.2070
  632TIP3    H123311   0.956   5.309   1.952  0.3907  0.2472  0.4542
  632TIP3    H223312   0.832   5.384   1.908  0.4884  0.2049  0.1063
  633TIP3   OH223313   4.474   6.693  11.617 -0.5252  0.2800  0.4532
  633TIP3    H123314   4.379   6.692  11.607 -0.5535 -1.7592  0.4813
  633TIP3    H223315   4.499   6.601  11.614  1.4970  0.7990  0.1421
  634TIP3   OH223316   3.661   4.551  12.093  0.0687 -0.4394  0.4210
  634TIP3    H123317   3.632   4.567  12.183 -1.7448 -2.0151  0.1690
  634TIP3    H223318   3.746   4.507  12.104 -0.9794 -2.3163  1.4736
  635TIP3   OH223319   5.690   3.371  11.915  0.2667 -0.7675 -0.6630
  635TIP3    H123320   5.629   3.417  11.858  1.0305  0.8312 -0.2528
  635TIP3    H223321   5.777   3.400  11.886  0.6706  0.7925  1.7624
  636TIP3   OH223322   6.027   5.156  17.388  0.3356 -0.2510 -0.0564
  636TIP3    H123323   5.954   5.217  17.380 -0.1997 -0.9826 -1.0376
  636TIP3    H223324   6.105   5.211  17.386 -0.1194  0.3920 -1.3361
  637TIP3   OH223325   5.681   2.476  13.481 -0.4381  0.1901  0.0781
  637TIP3    H123326   5.654   2.522  13.560  0.4935  1.6713 -0.4250
  637TIP3    H223327   5.636   2.521  13.410 -1.0700 -0.9669 -0.2705
  638TIP3   OH223328   0.474   5.168   3.685 -0.2204 -0.3622  0.2052
  638TIP3    H123329   0.405   5.222   3.723  0.0433  0.9663 -1.1038
  638TIP3    H223330   0.434   5.081   3.676 -1.1172 -0.0635  1.0962
  639TIP3   OH223331   6.324   2.125  15.744  0.7735 -0.0583  0.3562
  639TIP3    H123332   6.296   2.183  15.814  1.2943  1.3435 -0.5383
  639TIP3    H223333   6.247   2.072  15.722  0.0050  0.9517  0.5817
  640TIP3   OH223334   4.774   5.228  10.604 -0.0840  0.6027 -0.2203
  640TIP3    H123335   4.808   5.289  10.670 -0.8840  0.3063  0.4859
  640TIP3    H223336   4.790   5.141  10.641 -2.0532  0.4478  0.4123
  641TIP3   OH223337   1.460   4.265  14.395 -0.1232 -0.2101  0.1316
  641TIP3    H123338   1.445   4.358  14.381 -1.3704  0.1795  3.2439
  641TIP3    H223339   1.373   4.225  14.389  0.4666 -1.3273 -1.7532
  642TIP3   OH223340   4.563   4.338   4.626  0.2300 -0.1888 -0.1751
  642TIP3    H123341   4.614   4.414   4.652 -0.3217  0.4052 -0.7813
  642TIP3    H223342   4.549   4.350   4.532 -0.8391 -0.4461 -0.0577
  643TIP3   OH223343   5.197   4.285  14.517 -0.5209  0.0877  0.1050
  643TIP3    H123344   5.276   4.230  14.515 -0.4806  0.1532 -0.2610
  643TIP3    H223345   5.195   4.325  14.430 -1.3235 -0.4314 -0.1279
  644TIP3   OH223346   1.154   5.108   5.280  0.1528  0.2571 -0.2612
  644TIP3    H123347   1.209   5.147   5.212 -0.1636 -2.3746 -2.1896
  644TIP3    H223348   1.174   5.014   5.275 -1.1887 -0.2350  2.1326
  645TIP3   OH223349   2.452   3.207   3.312 -0.0348 -0.0601  0.3224
  645TIP3    H123350   2.484   3.274   3.372  1.5555  0.0102 -0.5664
  645TIP3    H223351   2.360   3.230   3.298 -0.2950  0.2550  2.2364
  646TIP3   OH223352   3.992   4.795   3.196  0.4972  0.0139 -0.5490
  646TIP3    H123353   3.982   4.829   3.285  0.6185  1.3643 -1.0265
  646TIP3    H223354   4.035   4.710   3.208  4.7582  2.0456  0.5245
  647TIP3   OH223355   3.579   3.765  11.734  0.0354  0.2474 -1.0854
  647TIP3    H123356   3.596   3.671  11.730  0.9364  0.3415  0.1034
  647TIP3    H223357   3.524   3.776  11.811  0.1620  0.7294 -1.0648
  648TIP3   OH223358   3.873   0.298   4.288  0.4512  0.1364  0.2051
  648TIP3    H123359   3.853   0.208   4.263  0.0305 -0.1831  1.5768
  648TIP3    H223360   3.789   0.343   4.283  0.8200  0.7123 -1.3712
  649TIP3   OH223361   3.589   3.510   4.982  0.1881 -0.1729  0.0325
  649TIP3    H123362   3.663   3.518   5.042 -1.2021  0.2027  1.7902
  649TIP3    H223363   3.584   3.595   4.938  1.3694 -0.5352 -0.8662
  650TIP3   OH223364   0.495   2.455  14.383 -0.0599  0.5776 -0.0443
  650TIP3    H123365   0.559   2.391  14.414 -1.3657  0.0594  1.7976
  650TIP3    H223366   0.547   2.525  14.345  1.5109 -0.4697  0.0935
  651TIP3   OH223367   1.311   3.526  14.351  0.1459 -0.2193  0.3387
  651TIP3    H123368   1.336   3.434  14.353  1.0804 -0.0368 -1.2555
  651TIP3    H223369   1.318   3.555  14.442  1.3243 -1.3533  0.6431
  652TIP3   OH223370   5.260   3.357   0.394  0.5536 -0.3998  0.4317
  652TIP3    H123371   5.226   3.323   0.311  0.5471  0.1398  0.2108
  652TIP3    H223372   5.228   3.295   0.460  0.4030 -0.7274  0.0527
  653TIP3   OH223373   4.136   4.079   1.167  0.2114  0.4996  0.5549
  653TIP3    H123374   4.148   4.159   1.219  0.4802  0.2392  0.8989
  653TIP3    H223375   4.218   4.071   1.117 -1.0068  2.1902 -1.9579
  654TIP3   OH223376   5.755   3.426   0.858  0.0267  0.2078  0.1103
  654TIP3    H123377   5.831   3.426   0.800  0.5153 -0.1208  0.7408
  654TIP3    H223378   5.782   3.374   0.933 -0.5655  0.7084  0.6842
  655TIP3   OH223379   1.449   5.448   5.280 -0.0433  0.1368  0.4647
  655TIP3    H123380   1.434   5.535   5.243 -0.5070  0.0961  0.5576
  655TIP3    H223381   1.376   5.395   5.247 -0.3228  0.0363  1.2245
  656TIP3   OH223382   6.335   4.843   6.045 -0.1118  0.3440 -0.1037
  656TIP3    H123383   6.344   4.932   6.011 -1.0698  0.4348 -0.1403
  656TIP3    H223384   6.265   4.804   5.993  1.4088 -1.0210 -1.2371
  657TIP3   OH223385   5.816   4.419  16.098  0.0364  0.3486 -0.0851
  657TIP3    H123386   5.828   4.426  16.004 -0.9449  0.2675 -0.2280
  657TIP3    H223387   5.832   4.508  16.131 -1.9187  0.9506 -0.6255
  658TIP3   OH223388   5.908   1.035  12.042 -0.1464 -0.7563  0.0192
  658TIP3    H123389   5.950   1.083  12.113 -1.7654  1.2492 -0.2801
  658TIP3    H223390   5.971   1.039  11.970  1.0717 -1.9197  0.9536
  659TIP3   OH223391   4.152   0.553   3.426  0.1394 -0.2312  0.4750
  659TIP3    H123392   4.181   0.541   3.517  0.0648  1.6050  0.7779
  659TIP3    H223393   4.064   0.515   3.425  0.8368 -1.9553  0.6517
  660TIP3   OH223394   1.116   0.194   4.658 -0.7747  0.2231  0.2588
  660TIP3    H123395   1.055   0.235   4.720  0.0319  0.9851  0.5743
  660TIP3    H223396   1.076   0.210   4.572 -1.0294  0.7060  0.4602
  661TIP3   OH223397   2.821   3.966   1.119  0.3459  0.4898 -0.3908
  661TIP3    H123398   2.837   3.875   1.143  0.0160  0.5244 -0.0192
  661TIP3    H223399   2.741   3.962   1.065 -0.1222  0.6392  0.2799
  662TIP3   OH223400   2.503   2.786   4.758 -0.2761 -0.5268  0.0571
  662TIP3    H123401   2.528   2.877   4.774  0.1316 -0.5675 -0.3333
  662TIP3    H223402   2.546   2.737   4.827  0.2303 -0.5258 -0.2567
  663TIP3   OH223403   4.426   5.953   4.177  0.5510 -0.0731  0.0521
  663TIP3    H123404   4.512   5.975   4.212  0.2842 -1.6930  1.8873
  663TIP3    H223405   4.374   5.930   4.253 -0.8292 -1.3246 -1.2084
  664TIP3   OH223406   4.863   3.357  12.745  0.1342  0.4593  0.3549
  664TIP3    H123407   4.824   3.444  12.739  0.8481  0.6985 -0.9512
  664TIP3    H223408   4.813   3.314  12.816 -0.7943  1.6143  0.4332
  665TIP3   OH223409   1.452   3.079   1.317  0.1646  0.0880 -0.2433
  665TIP3    H123410   1.371   3.074   1.369  0.6272  2.4497  0.8537
  665TIP3    H223411   1.423   3.070   1.227 -0.8549 -2.5978  0.2612
  666TIP3   OH223412   2.712   0.109   5.840  0.5314  0.5659  0.1712
  666TIP3    H123413   2.744   0.022   5.817  1.4757  1.0192 -0.2691
  666TIP3    H223414   2.721   0.160   5.760 -0.7780  0.8706  0.1916
  667TIP3   OH223415   1.064   3.455  12.653  0.4262 -0.4754  0.3960
  667TIP3    H123416   1.082   3.471  12.746 -0.1512 -0.7285  0.5580
  667TIP3    H223417   0.969   3.465  12.645  0.5759  0.5158 -0.3702
  668TIP3   OH223418   2.506   4.027   5.672 -0.0841 -0.1132 -0.2524
  668TIP3    H123419   2.598   4.052   5.681  0.3909 -1.3781 -1.2809
  668TIP3    H223420   2.461   4.108   5.649  0.7534  0.5439  0.3873
  669TIP3   OH223421   1.026   5.481   4.798  0.3934 -0.6066  0.4474
  669TIP3    H123422   1.073   5.530   4.866  0.2781 -1.2789  1.0141
  669TIP3    H223423   0.950   5.535   4.778  1.5461  0.6746 -0.7264
  670TIP3   OH223424   2.130   6.545  12.192 -0.2766  0.4632 -0.2123
  670TIP3    H123425   2.178   6.561  12.112 -1.0064  2.4689 -0.3111
  670TIP3    H223426   2.182   6.480  12.239  0.3411 -0.4899 -2.1216
  671TIP3   OH223427   1.170   3.898  12.926  0.2503 -0.2200  0.7005
  671TIP3    H123428   1.130   3.834  12.985  2.7798 -0.5595  2.2166
  671TIP3    H223429   1.201   3.847  12.852 -2.0849  0.0686 -0.5663
  672TIP3   OH223430   1.022   5.047  15.724  0.7523 -0.5996  0.1739
  672TIP3    H123431   0.950   5.097  15.687 -0.1410 -1.6387  0.4852
  672TIP3    H223432   1.065   5.007  15.649 -1.9416 -3.9193  0.1820
  673TIP3   OH223433   4.423   6.136   5.614 -0.0255 -0.2880 -0.1459
  673TIP3    H123434   4.411   6.231   5.605 -0.8628 -0.4529 -0.9173
  673TIP3    H223435   4.434   6.122   5.708 -1.1360  0.4464  0.1131
  674TIP3   OH223436   5.054   4.830  16.269 -0.0694 -0.2537 -0.3303
  674TIP3    H123437   5.045   4.747  16.222 -1.6390 -0.8307  0.9238
  674TIP3    H223438   5.141   4.862  16.244  0.3209 -1.9607 -1.3145
  675TIP3   OH223439   0.499   0.396  15.364 -0.8495  0.3960  0.2587
  675TIP3    H123440   0.593   0.392  15.380 -0.7017  0.0114 -0.6419
  675TIP3    H223441   0.486   0.478  15.318 -0.6902 -0.3368 -1.1511
  676TIP3   OH223442   1.087   5.585  16.034  0.3895  0.2195 -0.2373
  676TIP3    H123443   1.075   5.577  16.128  0.1789  0.4003 -0.2488
  676TIP3    H223444   1.179   5.610  16.023  0.4535  0.0467 -0.0894
  677TIP3   OH223445   2.689   4.323  12.237  0.2007  0.5681 -0.2740
  677TIP3    H123446   2.594   4.311  12.238  0.4882 -2.7311 -0.4873
  677TIP3    H223447   2.713   4.314  12.145  0.8669 -1.2578  0.0249
  678TIP3   OH223448   1.699   5.178  15.137  0.2078  0.3973 -0.0991
  678TIP3    H123449   1.638   5.191  15.064  0.8933  2.2444 -0.4137
  678TIP3    H223450   1.778   5.225  15.110  1.3151 -0.8656  0.8520
  679TIP3   OH223451   5.381   6.530  16.100  0.7252 -0.1038  0.3596
  679TIP3    H123452   5.330   6.458  16.137 -0.1388  0.5362  0.4517
  679TIP3    H223453   5.440   6.557  16.171 -0.3211  0.5527  0.9962
  680TIP3   OH223454   4.352   4.296   5.506  0.7218  0.6675  0.3978
  680TIP3    H123455   4.288   4.229   5.532  0.1380  0.8936 -0.3885
  680TIP3    H223456   4.437   4.258   5.527  0.4128 -0.4595 -0.2796
  681TIP3   OH223457   0.562   1.431   5.617  0.0948 -0.4526  0.0968
  681TIP3    H123458   0.644   1.440   5.568  0.3585  0.2878  0.6532
  681TIP3    H223459   0.573   1.351   5.668  0.3370 -0.5285 -0.0711
  682TIP3   OH223460   0.730   2.033  13.445  0.7938  0.2327  0.1500
  682TIP3    H123461   0.643   2.005  13.416  1.7906 -1.5987 -1.3987
  682TIP3    H223462   0.736   2.124  13.418  1.0447 -0.8825 -4.5126
  683TIP3   OH223463   6.426   4.531  12.891 -0.3523 -0.6162 -0.1688
  683TIP3    H123464   6.488   4.473  12.846 -2.8083 -1.6630 -2.5056
  683TIP3    H223465   6.477   4.570  12.962  2.8337 -1.6971 -1.6475
  684TIP3   OH223466   1.301   1.933  14.624 -0.0348 -0.2581  0.0671
  684TIP3    H123467   1.254   1.879  14.687 -1.3094  1.0558  0.2732
  684TIP3    H223468   1.283   2.023  14.650  0.9966  0.3002 -1.0394
  685TIP3   OH223469   1.627   1.878  17.360 -0.5056  0.5192  0.0659
  685TIP3    H123470   1.678   1.834  17.293 -0.0624  0.8725  0.1696
  685TIP3    H223471   1.571   1.939  17.311  1.6367  2.6671  0.1246
  686TIP3   OH223472   6.073   3.966   0.732  0.6591  0.2868  0.2210
  686TIP3    H123473   6.166   3.983   0.745  0.7403 -1.0078  1.6467
  686TIP3    H223474   6.052   3.897   0.795 -1.0445 -0.1679 -0.7729
  687TIP3   OH223475   6.544   3.897   1.369 -0.5837  0.3017  0.0902
  687TIP3    H123476   6.461   3.884   1.324 -0.3966  0.4182 -0.2955
  687TIP3    H223477   6.572   3.985   1.343 -0.0589  0.0387 -0.2546
  688TIP3   OH223478   3.223   6.210  12.175  0.2654 -0.4507 -0.3587
  688TIP3    H123479   3.210   6.284  12.116 -3.5891  2.9222  3.9730
  688TIP3    H223480   3.169   6.140  12.140 -0.3227  0.6963 -1.7999
  689TIP3   OH223481   6.719   3.476  15.429 -0.3817 -0.2950  0.1081
  689TIP3    H123482   6.662   3.522  15.491  0.0843 -1.3450  1.3698
  689TIP3    H223483   6.661   3.415  15.384 -0.3798 -0.9727  0.9970
  690TIP3   OH223484   5.889   2.925  11.801  0.0130  0.0508  0.1131
  690TIP3    H123485   5.840   2.873  11.738 -0.9403 -0.3368  1.1437
  690TIP3    H223486   5.959   2.965  11.750 -0.5557 -0.4864 -1.1230
  691TIP3   OH223487   5.197   2.240  15.031  0.7832  0.1856 -0.0548
  691TIP3    H123488   5.268   2.305  15.027  1.6278 -0.5980  1.3484
  691TIP3    H223489   5.228   2.167  14.978 -0.2022  0.9007 -1.7001
  692TIP3   OH223490   1.566   3.037   0.116  0.9073 -0.1715 -0.6542
  692TIP3    H123491   1.585   3.065   0.026  0.4948  0.7842 -0.4611
  692TIP3    H223492   1.559   2.942   0.111 -3.1776  0.0012 -2.5001
  693TIP3   OH223493   1.649   5.907  15.648 -0.2634  0.3142 -0.1816
  693TIP3    H123494   1.619   5.878  15.562 -0.2564  1.6324 -0.6574
  693TIP3    H223495   1.582   5.970  15.677  0.2556  0.6520  0.3108
  694TIP3   OH223496   6.699   0.224   1.639  0.1856  0.3802  0.5233
  694TIP3    H123497   6.792   0.246   1.637  0.4327 -0.6741 -0.7759
  694TIP3    H223498   6.671   0.232   1.547 -0.2558 -2.2442  0.3523
  695TIP3   OH223499   0.878   5.877   5.816  0.0754 -0.1809 -0.1870
  695TIP3    H123500   0.936   5.801   5.814  0.5870  0.2022 -2.1823
  695TIP3    H223501   0.846   5.886   5.726 -2.5804  0.0434  0.6846
  696TIP3   OH223502   3.670   3.434  11.995 -0.4417  0.2827 -0.0114
  696TIP3    H123503   3.760   3.402  11.984  0.3830  2.6396 -0.7750
  696TIP3    H223504   3.668   3.468  12.084 -0.3408  0.8121 -0.2036
  697TIP3   OH223505   0.317   5.895   2.985 -1.0962 -0.0104  0.1737
  697TIP3    H123506   0.325   5.856   3.072  0.1441 -0.6337 -0.1930
  697TIP3    H223507   0.224   5.891   2.965 -1.2492 -0.9282  0.9917
  698TIP3   OH223508   4.738   0.947  15.425 -0.5535  0.1442 -0.2276
  698TIP3    H123509   4.678   0.953  15.351 -2.0617 -1.3637  0.7859
  698TIP3    H223510   4.763   0.855  15.428 -1.2695 -0.0387  1.6220
  699TIP3   OH223511   5.773   4.824   2.061 -0.1162  0.2754 -0.0655
  699TIP3    H123512   5.801   4.775   1.984  0.0964 -0.3230  0.3842
  699TIP3    H223513   5.816   4.909   2.054 -1.9366  1.1411 -1.8305
  700TIP3   OH223514   4.469   2.141   1.403  0.4348 -0.6333 -0.8764
  700TIP3    H123515   4.501   2.227   1.430  0.2691 -0.7651 -0.2500
  700TIP3    H223516   4.376   2.156   1.383  0.8801 -0.2136 -2.8570
  701TIP3   OH223517   1.876   0.236   2.420 -0.4636  0.1078 -0.5377
  701TIP3    H123518   1.894   0.308   2.481  0.9941 -1.8766  1.5109
  701TIP3    H223519   1.797   0.195   2.456  0.7335 -1.4263  0.4572
  702TIP3   OH223520   0.215   2.398   4.309 -0.1303 -0.6623 -0.5494
  702TIP3    H123521   0.249   2.478   4.348 -1.0034 -0.7508  0.4111
  702TIP3    H223522   0.239   2.405   4.216  2.8862 -0.9177  0.1037
  703TIP3   OH223523   5.943   3.708   0.490  0.3604 -0.0199  0.3640
  703TIP3    H123524   5.965   3.718   0.397  0.0225  0.4025  0.3241
  703TIP3    H223525   5.944   3.798   0.524 -0.9886 -0.0030  0.4261
  704TIP3   OH223526   1.804   6.344  12.239 -0.5470  0.2768 -0.4136
  704TIP3    H123527   1.721   6.313  12.203 -0.2608  0.5720 -1.3384
  704TIP3    H223528   1.852   6.379  12.164  1.4488 -2.0883 -0.3405
  705TIP3   OH223529   6.276   4.329  11.286 -0.0707  0.6230 -0.1578
  705TIP3    H123530   6.322   4.307  11.205 -1.1464 -1.2843 -0.3038
  705TIP3    H223531   6.252   4.421  11.276  2.1434  1.1853 -0.8048
  706TIP3   OH223532   2.794   3.682   0.486 -0.5508 -0.2726 -0.4092
  706TIP3    H123533   2.752   3.667   0.401 -2.6004  1.1463  0.2607
  706TIP3    H223534   2.737   3.746   0.529  1.3875  0.3703  1.3420
  707TIP3   OH223535   3.886   4.814  17.214  0.5855 -1.0624  0.0604
  707TIP3    H123536   3.975   4.834  17.243 -0.2777  2.1138  0.8366
  707TIP3    H223537   3.829   4.856  17.278 -1.4062  1.6374 -3.1477
  708TIP3   OH223538   6.508   5.043   6.994  0.1522  0.3186  0.3267
  708TIP3    H123539   6.541   4.953   6.987  2.5597  1.1867 -0.3021
  708TIP3    H223540   6.432   5.035   7.052 -1.5569 -2.5197 -1.9658
  709TIP3   OH223541   3.642   6.331  16.969  0.4972  0.3047 -0.2441
  709TIP3    H123542   3.650   6.332  16.873 -0.3956 -1.7107 -0.4141
  709TIP3    H223543   3.582   6.403  16.989  0.1075  0.2880 -1.2912
  710TIP3   OH223544   0.107   4.098   3.057 -0.4807 -0.6169 -0.8333
  710TIP3    H123545   0.189   4.075   3.014 -0.7088 -1.5370 -0.7986
  710TIP3    H223546   0.051   4.022   3.043 -1.6094  0.3027 -1.5538
  711TIP3   OH223547   4.891   4.044   4.431  0.1449 -0.1179  0.2068
  711TIP3    H123548   4.809   4.067   4.389 -0.9104  0.2379  2.3091
  711TIP3    H223549   4.935   3.986   4.369 -2.2013 -1.2564 -0.5068
  712TIP3   OH223550   0.279   2.407  11.666  0.1021  0.9438  0.1806
  712TIP3    H123551   0.310   2.434  11.753  0.3429  0.3572  0.2802
  712TIP3    H223552   0.358   2.406  11.612  0.0743  0.5905  0.1424
  713TIP3   OH223553   0.606   2.606  15.420 -0.3518 -0.0318  0.0712
  713TIP3    H123554   0.646   2.662  15.353 -1.0498  0.6816  0.2429
  713TIP3    H223555   0.677   2.588  15.482 -0.0670  0.4896 -0.0975
  714TIP3   OH223556   1.826   0.931  12.632  0.6160  0.1191 -0.2934
  714TIP3    H123557   1.833   1.026  12.621  1.0678  0.4597  2.2235
  714TIP3    H223558   1.915   0.903  12.655  0.3420 -0.8015 -0.3206
  715TIP3   OH223559   2.972   4.647   0.737  0.3039 -0.0366  0.0881
  715TIP3    H123560   2.973   4.737   0.770 -0.2823 -0.3248  0.9370
  715TIP3    H223561   2.883   4.636   0.703  0.5832 -0.0836 -0.6450
  716TIP3   OH223562   0.940   4.783  14.202  0.3566 -0.3439  0.4283
  716TIP3    H123563   0.913   4.752  14.288  0.5299  0.3186  0.7277
  716TIP3    H223564   1.018   4.836  14.218 -0.6479  1.3085  0.1213
  717TIP3   OH223565   5.770   2.725  12.098  0.4941 -0.2464 -0.2912
  717TIP3    H123566   5.822   2.806  12.098 -0.3896  0.3434 -0.0881
  717TIP3    H223567   5.727   2.725  12.184 -0.1158 -0.5192 -0.5857
  718TIP3   OH223568   6.652   3.319  12.121  0.3905  0.2181 -0.1765
  718TIP3    H123569   6.660   3.364  12.037 -1.5524  1.3353  0.1945
  718TIP3    H223570   6.566   3.343  12.154  0.5262 -1.3461  1.4956
  719TIP3   OH223571   4.627   3.845  15.299 -0.2257 -0.3989  0.4678
  719TIP3    H123572   4.682   3.786  15.247  0.5810 -0.4134  1.3127
  719TIP3    H223573   4.564   3.881  15.236  1.7758  0.9113 -0.9112
  720TIP3   OH223574   3.761   4.852   2.718 -0.4485 -0.7130 -0.7182
  720TIP3    H123575   3.837   4.809   2.756  0.0213 -0.9742 -1.9161
  720TIP3    H223576   3.791   4.886   2.635 -1.1581  0.8554 -0.3635
  721TIP3   OH223577   6.130   4.363  12.326  0.4733  1.1489 -0.0411
  721TIP3    H123578   6.132   4.419  12.248  1.2826  0.4085 -0.5725
  721TIP3    H223579   6.212   4.313  12.322  0.3206  0.7837  1.0575
  722TIP3   OH223580   3.110   6.389  16.153 -0.4600  0.2251 -0.6375
  722TIP3    H123581   3.132   6.320  16.215 -0.7584  0.9529  0.3036
  722TIP3    H223582   3.163   6.370  16.075  1.5550  0.4893  0.6041
  723TIP3   OH223583   2.436   3.715   3.381  0.0159  0.4603 -0.6717
  723TIP3    H123584   2.369   3.779   3.357  0.8505  1.1145 -1.3611
  723TIP3    H223585   2.514   3.742   3.331  2.1423  2.3257  3.1796
  724TIP3   OH223586   2.640   1.342  15.167  0.5961 -0.0359 -0.1606
  724TIP3    H123587   2.665   1.389  15.087  0.7951 -1.8039 -1.2049
  724TIP3    H223588   2.592   1.406  15.219 -0.6506  0.8382 -2.2710
  725TIP3   OH223589   4.120   0.190   5.150  0.1720 -0.2389  0.7758
  725TIP3    H123590   4.189   0.247   5.185 -0.5717  0.4035  1.2333
  725TIP3    H223591   4.121   0.208   5.056  0.7467 -0.3719  0.7488
  726TIP3   OH223592   4.959   2.211  15.182 -0.3301  0.1655 -0.6793
  726TIP3    H123593   5.037   2.254  15.147 -0.5936  0.8592 -0.4438
  726TIP3    H223594   4.893   2.280  15.182 -0.6128 -0.0983  0.2336
  727TIP3   OH223595   2.458   4.988   2.485 -0.2604 -0.6880  0.0564
  727TIP3    H123596   2.384   4.982   2.545 -0.5807 -0.2869 -0.2915
  727TIP3    H223597   2.469   5.082   2.471  2.0306 -0.5333  2.2065
  728TIP3   OH223598   2.957   0.900  14.939  0.0815  0.4531  0.1991
  728TIP3    H123599   2.898   0.825  14.932 -0.7842  1.1047  0.3296
  728TIP3    H223600   3.027   0.870  14.998 -0.6808  0.0177  0.8904
  729TIP3   OH223601   5.587   3.507   2.409  0.7084  0.0914 -0.6828
  729TIP3    H123602   5.515   3.567   2.388  1.6947  1.6912  0.2992
  729TIP3    H223603   5.569   3.428   2.357 -1.9614  0.2650 -0.1550
  730TIP3   OH223604   1.818   1.155   3.513 -0.2447 -0.0232 -0.0461
  730TIP3    H123605   1.771   1.194   3.440  1.2316 -0.8079 -1.4798
  730TIP3    H223606   1.777   1.069   3.525  0.9852 -0.8945 -1.5878
  731TIP3   OH223607   5.054   4.074   1.872 -0.0120 -0.2495 -0.7974
  731TIP3    H123608   5.020   4.034   1.792  1.1602  0.3479 -1.6298
  731TIP3    H223609   4.990   4.141   1.894 -0.2979 -0.3556 -1.2871
  732TIP3   OH223610   4.517   3.274   6.403  0.3579  0.0147  0.6153
  732TIP3    H123611   4.564   3.356   6.420 -0.7084  0.9177 -0.5743
  732TIP3    H223612   4.428   3.291   6.432 -0.1467 -0.3076 -0.6530
  733TIP3   OH223613   6.739   4.736   4.829 -0.2121  0.2107  0.3373
  733TIP3    H123614   6.693   4.656   4.855  0.9271 -0.1129  1.4680
  733TIP3    H223615   6.830   4.720   4.856 -0.1027  2.1897  1.2638
  734TIP3   OH223616   4.966   1.221  15.167  0.0226  0.0294 -0.0680
  734TIP3    H123617   4.928   1.177  15.243 -0.0634 -1.0588 -0.7153
  734TIP3    H223618   5.055   1.245  15.195 -0.7891  1.8469  1.1713
  735TIP3   OH223619   0.550   3.794  11.077 -0.1859 -0.2463  0.1664
  735TIP3    H123620   0.560   3.880  11.037  0.0101 -1.4379 -2.5640
  735TIP3    H223621   0.461   3.794  11.114  0.1160  1.3501  0.9641
  736TIP3   OH223622   0.289   2.031  11.793 -0.0532  0.2526 -0.2669
  736TIP3    H123623   0.220   2.096  11.780  0.3619  0.9067  0.6952
  736TIP3    H223624   0.342   2.036  11.713  0.0898  1.2537 -0.1198
  737TIP3   OH223625   3.195   4.127   1.910 -0.8118 -0.1746  0.2890
  737TIP3    H123626   3.107   4.092   1.919 -0.7784 -0.0970  0.9608
  737TIP3    H223627   3.225   4.095   1.825 -1.4764 -0.2176  0.0638
  738TIP3   OH223628   0.698   5.105  11.336 -0.4692 -0.3746  0.3453
  738TIP3    H123629   0.774   5.077  11.283  0.3931  0.9195  0.8591
  738TIP3    H223630   0.659   5.023  11.366  1.2199 -1.0846  0.7442
  739TIP3   OH223631   1.478   4.421   6.821 -0.0554 -0.3075  0.2134
  739TIP3    H123632   1.479   4.329   6.848  0.6226  0.2101  2.1239
  739TIP3    H223633   1.472   4.470   6.903 -1.0088  1.3610 -0.7914
  740TIP3   OH223634   2.994   4.032  13.769  0.2857  0.8214 -0.6823
  740TIP3    H123635   3.043   3.957  13.734  1.8487  0.5238  1.9038
  740TIP3    H223636   3.041   4.109  13.737 -0.3253  0.6883 -1.9584
  741TIP3   OH223637   3.539   4.056   0.423  0.2648  0.7730 -0.0064
  741TIP3    H123638   3.453   4.060   0.381 -0.0852  0.1861  0.6408
  741TIP3    H223639   3.601   4.076   0.352 -0.4200  1.7118 -0.3683
  742TIP3   OH223640   5.667   5.914  12.875 -0.4375 -0.7009  0.7273
  742TIP3    H123641   5.721   5.910  12.796 -0.7338  0.0107  0.4799
  742TIP3    H223642   5.578   5.924  12.842 -0.4682  0.6508  1.1463
  743TIP3   OH223643   6.493   0.429   5.382 -0.2297 -0.9069 -0.3498
  743TIP3    H123644   6.460   0.340   5.400  0.7104 -1.3626 -0.8173
  743TIP3    H223645   6.566   0.440   5.443 -2.5922  1.0204  2.4287
  744TIP3   OH223646   4.388   1.520   0.109 -0.5405 -0.4936 -0.3588
  744TIP3    H123647   4.335   1.461   0.055 -0.4252 -0.2091 -0.7834
  744TIP3    H223648   4.374   1.488   0.199 -2.7301  0.5282 -0.2523
  745TIP3   OH223649   5.497   5.000  12.114  0.3792 -0.3631  0.5700
  745TIP3    H123650   5.464   4.911  12.098  0.2709 -0.3816  0.8943
  745TIP3    H223651   5.422   5.057  12.099 -0.1051 -0.4811  2.3208
  746TIP3   OH223652   3.900   2.318  12.664  0.3475  0.1875  0.1325
  746TIP3    H123653   3.932   2.408  12.654  1.2143 -0.0365  0.7505
  746TIP3    H223654   3.824   2.326  12.721 -0.2188  0.6373 -0.6642
  747TIP3   OH223655   6.681   6.093   3.716  0.5867 -0.4106 -0.1880
  747TIP3    H123656   6.685   6.073   3.810  0.2643  0.5243  0.0393
  747TIP3    H223657   6.612   6.037   3.682  0.7155 -0.7674  0.1260
  748TIP3   OH223658   6.502   5.321   6.926 -0.6045  0.1970 -1.0793
  748TIP3    H123659   6.553   5.353   6.852 -0.6031 -0.4187 -1.3469
  748TIP3    H223660   6.510   5.226   6.922  0.8414  0.1772  0.7276
  749TIP3   OH223661   2.547   2.838   0.936 -0.6199 -0.1340 -0.2506
  749TIP3    H123662   2.524   2.786   1.013 -1.0426  0.0892 -0.2225
  749TIP3    H223663   2.546   2.929   0.968 -1.0026 -0.0254 -0.5727
  750TIP3   OH223664   3.275   5.210   6.276 -0.0826 -0.6933  0.2551
  750TIP3    H123665   3.237   5.295   6.257  1.2709  0.2019  1.3805
  750TIP3    H223666   3.209   5.164   6.327  0.5098  1.1183  2.8507
  751TIP3   OH223667   5.065   5.393  13.456 -0.6510 -0.0421 -0.3544
  751TIP3    H123668   5.069   5.489  13.462 -2.5189  0.0817 -0.3353
  751TIP3    H223669   5.063   5.364  13.548  2.1764 -0.3091 -0.2901
  752TIP3   OH223670   1.471   6.422   2.022  0.6846 -1.1149  0.1545
  752TIP3    H123671   1.556   6.379   2.020  0.8236 -0.8481  0.1718
  752TIP3    H223672   1.460   6.459   1.934  1.8714  1.2690  0.9066
  753TIP3   OH223673   4.878   0.373  10.623  0.2885  0.0239  0.0812
  753TIP3    H123674   4.856   0.287  10.587 -0.6358  0.5350 -0.6140
  753TIP3    H223675   4.835   0.374  10.708 -1.4223  0.5410 -0.7518
  754TIP3   OH223676   0.496   4.458  11.655  0.4466 -0.6409  0.5096
  754TIP3    H123677   0.580   4.502  11.657  1.1198 -1.9002  1.3937
  754TIP3    H223678   0.493   4.415  11.569 -0.1875  0.9875 -0.3324
  755TIP3   OH223679   3.963   0.170  15.234 -0.0698 -0.4470 -0.5564
  755TIP3    H123680   3.954   0.096  15.295 -2.0155  0.0126 -0.2261
  755TIP3    H223681   3.883   0.220  15.245 -0.2766 -0.0629 -3.1690
  756TIP3   OH223682   6.608   5.188  16.363  0.6993  1.1712  0.2366
  756TIP3    H123683   6.516   5.205  16.345  0.6008  0.5097  0.0842
  756TIP3    H223684   6.607   5.129  16.438  0.8875 -0.7341 -1.1709
  757TIP3   OH223685   3.992   1.091  15.598 -0.1305 -0.2516  0.2738
  757TIP3    H123686   3.908   1.119  15.634 -0.3647 -1.5396  0.7601
  757TIP3    H223687   3.987   1.114  15.505 -0.7477  0.2761  0.4315
  758TIP3   OH223688   0.601   2.715   2.194 -0.2091 -0.2467  0.0707
  758TIP3    H123689   0.592   2.656   2.119  1.7901  0.2633 -0.6258
  758TIP3    H223690   0.638   2.795   2.157  1.1025 -0.0820  1.6365
  759TIP3   OH223691   2.486   2.950  17.262  0.7193 -0.2542 -0.0970
  759TIP3    H123692   2.486   3.043  17.284  0.2407 -0.3126  0.1489
  759TIP3    H223693   2.399   2.933  17.227  1.0238 -0.4683 -0.7533
  760TIP3   OH223694   2.649   3.745  13.988 -0.2633 -0.4249 -0.4548
  760TIP3    H123695   2.637   3.766  14.080 -1.6317 -4.4688  0.4759
  760TIP3    H223696   2.577   3.791  13.943  0.2733  1.3703  0.4219
  761TIP3   OH223697   2.227   0.286  13.271 -0.1203 -0.0289  0.8171
  761TIP3    H123698   2.135   0.267  13.251 -0.3721  1.2389  0.6873
  761TIP3    H223699   2.234   0.273  13.366 -0.4969  0.1117  0.8656
  762TIP3   OH223700   3.735   5.670  12.599 -0.1365  0.2584 -0.1663
  762TIP3    H123701   3.819   5.629  12.616 -0.8052 -0.7021  1.0358
  762TIP3    H223702   3.687   5.662  12.682 -0.6921  2.5847 -0.1739
  763TIP3   OH223703   5.539   6.408   2.315  0.3739  0.0117 -0.5680
  763TIP3    H123704   5.575   6.357   2.388 -1.4590  0.0594  0.4155
  763TIP3    H223705   5.480   6.348   2.270  1.5214 -0.0296 -2.0877
  764TIP3   OH223706   4.395   4.397   2.137  0.1100 -0.6276 -0.0032
  764TIP3    H123707   4.329   4.332   2.161  0.2057 -1.0260 -0.7903
  764TIP3    H223708   4.346   4.462   2.086 -0.5732  1.4095  3.0246
  765TIP3   OH223709   4.268   6.218   0.678 -0.2829  0.4200  0.2062
  765TIP3    H123710   4.236   6.212   0.589  0.3556  0.8172 -0.0589
  765TIP3    H223711   4.191   6.240   0.731 -0.8383 -0.6945 -0.1069
  766TIP3   OH223712   0.466   6.342  11.450  0.1940  0.7130  0.0634
  766TIP3    H123713   0.373   6.324  11.439  0.1584  1.1246 -0.3339
  766TIP3    H223714   0.478   6.429  11.413  1.0394  0.0116 -1.4329
  767TIP3   OH223715   5.688   3.399  11.527 -0.1116  0.0588 -0.2977
  767TIP3    H123716   5.698   3.310  11.559 -2.9477 -0.5435 -0.8922
  767TIP3    H223717   5.685   3.391  11.431  1.8919  1.1250 -0.5270
  768TIP3   OH223718   0.090   0.747  15.095  0.0685  0.2026  0.3455
  768TIP3    H123719   0.084   0.841  15.116 -2.1875  0.3218 -0.5033
  768TIP3    H223720   0.044   0.739  15.011 -1.4952 -1.9160  1.3280
  769TIP3   OH223721   0.684   2.173  11.379 -0.0975  0.1747 -0.4305
  769TIP3    H123722   0.743   2.117  11.430  0.0621  0.9787  0.2828
  769TIP3    H223723   0.635   2.111  11.325  0.0076 -0.6807  0.4082
  770TIP3   OH223724   3.715   6.683   5.615  0.2751  0.1939  0.2319
  770TIP3    H123725   3.787   6.626   5.589  0.4585  0.5459 -0.0521
  770TIP3    H223726   3.751   6.737   5.685  0.4633  0.7415 -0.2760
  771TIP3   OH223727   0.261   6.731  13.713 -0.4718 -0.3447  0.1281
  771TIP3    H123728   0.279   6.810  13.663 -0.7310  1.6245  2.8812
  771TIP3    H223729   0.348   6.695  13.732 -0.2434  0.2221  0.1984
  772TIP3   OH223730   2.418   0.718   0.779 -0.0101 -0.4807  0.1008
  772TIP3    H123731   2.345   0.678   0.730 -0.2972 -1.7298  1.4761
  772TIP3    H223732   2.496   0.690   0.731 -0.3508 -0.4346 -0.4973
  773TIP3   OH223733   3.720   0.886  16.115 -0.8277 -0.6355  0.1751
  773TIP3    H123734   3.792   0.842  16.160 -1.5732 -0.0251  2.0297
  773TIP3    H223735   3.755   0.972  16.091 -0.6109 -0.7429  0.1005
  774TIP3   OH223736   0.862   6.226   4.767 -0.1824 -0.2072 -0.3166
  774TIP3    H123737   0.952   6.221   4.736 -0.3849 -1.1407 -0.8062
  774TIP3    H223738   0.869   6.256   4.858  0.6194 -0.3054 -0.3429
  775TIP3   OH223739   1.499   0.046   6.283  0.5620 -0.0905  0.3489
  775TIP3    H123740   1.524   0.132   6.317  0.3732  2.3264 -4.7761
  775TIP3    H223741   1.404   0.051   6.273  0.6082 -0.6698 -0.4967
  776TIP3   OH223742   0.514   6.031   5.237 -0.3018  0.3922 -0.2221
  776TIP3    H123743   0.603   5.999   5.227  0.2458  2.3733 -2.5729
  776TIP3    H223744   0.458   5.956   5.215  0.8815  0.4126 -4.0146
  777TIP3   OH223745   5.084   0.532   2.561  0.2863  0.6175 -0.0241
  777TIP3    H123746   5.132   0.615   2.563 -0.6153  1.2156 -1.2592
  777TIP3    H223747   5.135   0.473   2.615  1.0449  1.9358  0.7684
  778TIP3   OH223748   0.287   1.566  14.752 -0.3465  0.3405 -0.5809
  778TIP3    H123749   0.277   1.590  14.844  0.8495  0.0729 -0.3674
  778TIP3    H223750   0.380   1.547  14.742  0.2273  3.3997 -2.5785
  779TIP3   OH223751   3.799   3.711  14.369 -0.3607  0.3408  0.2196
  779TIP3    H123752   3.845   3.750  14.444  0.8382  1.1060 -0.8670
  779TIP3    H223753   3.707   3.734  14.383  0.1117  2.3699  0.3676
  780TIP3   OH223754   3.145   5.568   0.951 -0.3005 -0.3215  0.3892
  780TIP3    H123755   3.144   5.654   0.994 -0.0253  0.0732 -0.3623
  780TIP3    H223756   3.232   5.563   0.910 -0.3586 -0.9096  0.3367
  781TIP3   OH223757   3.493   3.904   2.708  0.5336  0.3764 -0.3777
  781TIP3    H123758   3.553   3.847   2.756 -0.9258 -1.3205 -0.4226
  781TIP3    H223759   3.464   3.969   2.773 -0.1209 -0.8565  0.6303
  782TIP3   OH223760   5.354   1.258  11.736 -0.1544 -0.0903 -0.2629
  782TIP3    H123761   5.309   1.268  11.820 -0.6106  0.1408 -0.5351
  782TIP3    H223762   5.426   1.321  11.741 -0.7955  0.6729 -0.4562
  783TIP3   OH223763   2.037   5.185   0.682 -0.1874  0.0305 -0.1108
  783TIP3    H123764   1.960   5.166   0.628 -0.7365 -0.9606  0.9688
  783TIP3    H223765   2.112   5.159   0.627 -0.3963  3.0239 -2.0429
  784TIP3   OH223766   5.266   0.561  15.239  0.6465  0.4580 -0.4519
  784TIP3    H123767   5.276   0.466  15.245 -0.8104  0.3238  0.1829
  784TIP3    H223768   5.351   0.596  15.267  0.4548 -0.6053  1.6367
  785TIP3   OH223769   3.993   5.361  17.242  0.4066  0.1861 -0.3511
  785TIP3    H123770   3.989   5.424  17.315  0.0250 -1.1168  0.7818
  785TIP3    H223771   3.903   5.354  17.211 -0.1061 -1.8742  1.3892
  786TIP3   OH223772   2.861   0.891   5.146 -1.0064  0.6400  0.7163
  786TIP3    H123773   2.889   0.938   5.226 -2.7474 -0.6852  2.1857
  786TIP3    H223774   2.823   0.809   5.179 -1.7233  0.0237 -1.5118
  787TIP3   OH223775   3.141   5.966   4.914  0.7125 -0.2251 -0.2747
  787TIP3    H123776   3.149   5.871   4.914 -0.4855 -0.3449  0.4268
  787TIP3    H223777   3.070   5.985   4.853  0.8001  0.1987 -0.2540
  788TIP3   OH223778   3.496   1.712   0.648 -0.2294 -0.0178 -0.1566
  788TIP3    H123779   3.468   1.770   0.719 -0.3164  0.6783 -0.7425
  788TIP3    H223780   3.570   1.664   0.684  0.8866  1.6208 -0.1523
  789TIP3   OH223781   3.266   0.007   5.996 -0.5358 -0.2836 -0.5032
  789TIP3    H123782   3.271  -0.005   6.091 -1.4069 -1.3571 -0.5607
  789TIP3    H223783   3.212  -0.067   5.966 -1.2273  0.6620 -1.6955
  790TIP3   OH223784   4.969   5.227  15.128 -0.2658  0.1321  0.6839
  790TIP3    H123785   4.879   5.253  15.147 -0.5751 -1.0397  0.9212
  790TIP3    H223786   4.962   5.137  15.096  0.7796  0.1861  0.2549
  791TIP3   OH223787   3.552   0.765  15.922  0.2368  0.1101  0.1071
  791TIP3    H123788   3.609   0.818  15.977  0.7205  2.4159 -2.3870
  791TIP3    H223789   3.612   0.716  15.865 -0.0977  2.3570 -2.3651
  792TIP3   OH223790   4.794   2.311   5.498 -0.1825  0.2582 -0.3975
  792TIP3    H123791   4.728   2.364   5.543 -0.2968 -0.4148  0.2462
  792TIP3    H223792   4.864   2.373   5.477 -0.3512  0.6824  0.2666
  793TIP3   OH223793   0.422   4.056  15.648  0.3134  0.0617  0.2449
  793TIP3    H123794   0.479   4.045  15.571  0.5490  1.0174  0.2633
  793TIP3    H223795   0.339   4.085  15.612  1.1101  2.8596  0.4405
  794TIP3   OH223796   4.250   3.317   3.828  0.0271  0.2964  0.4937
  794TIP3    H123797   4.198   3.249   3.871 -1.0703 -0.0431 -1.2470
  794TIP3    H223798   4.331   3.273   3.805 -0.9024 -0.6758 -1.1402
  795TIP3   OH223799   0.996   1.323  14.902  0.5056 -0.6452 -0.4028
  795TIP3    H123800   0.981   1.274  14.821 -0.8015  0.9593 -1.2033
  795TIP3    H223801   1.009   1.256  14.969  2.7914 -2.0470 -2.0763
  796TIP3   OH223802   4.284   4.136  16.895  0.7650 -0.5261 -0.5332
  796TIP3    H123803   4.368   4.180  16.882 -0.1860  2.2239  1.4931
  796TIP3    H223804   4.283   4.114  16.988 -1.1309  0.5517 -0.2384
  797TIP3   OH223805   1.814   4.017   5.891 -1.1679  0.2127 -0.6495
  797TIP3    H123806   1.781   4.105   5.908  1.7566  1.3577 -0.3223
  797TIP3    H223807   1.859   3.993   5.972 -1.5249 -1.4313 -0.9101
  798TIP3   OH223808   2.424   6.041  16.235  0.4005 -0.2467 -0.1088
  798TIP3    H123809   2.411   6.134  16.250  1.6772 -0.2831  1.4178
  798TIP3    H223810   2.509   6.036  16.191  0.6592 -0.7244  0.4358
  799TIP3   OH223811   3.576   4.669   3.580  0.3634  0.0812 -0.0589
  799TIP3    H123812   3.532   4.586   3.564 -0.3201  0.2229  1.0026
  799TIP3    H223813   3.667   4.653   3.555  0.1204 -0.8084 -0.3982
  800TIP3   OH223814   5.582   4.485   2.914 -0.0962 -0.4015  0.4488
  800TIP3    H123815   5.583   4.399   2.956 -2.3178 -1.3434 -1.2584
  800TIP3    H223816   5.545   4.544   2.980 -0.6326 -1.2092  0.8793
  801TIP3   OH223817   3.870   1.924  10.766  0.7534 -0.3363 -0.2642
  801TIP3    H123818   3.948   1.874  10.791  0.2854 -0.4114  1.1234
  801TIP3    H223819   3.900   2.015  10.765  1.2592 -0.4975 -1.4136
  802TIP3   OH223820   1.925   3.515  17.094 -0.2403  0.7983 -0.3930
  802TIP3    H123821   1.894   3.550  17.177 -1.5450 -0.2986 -0.3631
  802TIP3    H223822   1.899   3.581  17.029 -0.0689  1.2213 -0.0339
  803TIP3   OH223823   6.281   3.388   3.017  0.1117  0.6374 -0.3248
  803TIP3    H123824   6.352   3.429   2.967 -0.1026  0.9478 -0.3776
  803TIP3    H223825   6.292   3.294   3.001 -0.6041  0.7780 -1.8553
  804TIP3   OH223826   2.630   0.641  12.841  0.2170  0.4048 -0.0799
  804TIP3    H123827   2.607   0.661  12.931  1.1050 -0.3945  0.3336
  804TIP3    H223828   2.687   0.714  12.814  0.7903  0.1262  0.3521
  805TIP3   OH223829   1.312   0.231   6.060 -0.2109 -0.4920  0.3856
  805TIP3    H123830   1.374   0.297   6.089 -1.3160  0.4024  0.8060
  805TIP3    H223831   1.278   0.193   6.140 -1.8701  0.6512  0.2906
  806TIP3   OH223832   6.109   1.524  13.705  1.0132 -0.1004  0.0060
  806TIP3    H123833   6.098   1.513  13.611 -0.9598 -1.2814  0.3383
  806TIP3    H223834   6.169   1.599  13.713  0.5856  0.5444 -2.1585
  807TIP3   OH223835   0.273   6.092   0.931 -0.3479 -0.0952 -0.1946
  807TIP3    H123836   0.247   6.155   0.864 -0.7764 -0.2475 -0.1738
  807TIP3    H223837   0.318   6.145   0.997  1.6313 -0.1790 -1.4069
  808TIP3   OH223838   3.660   4.021  13.070 -0.3545  0.2685 -0.2121
  808TIP3    H123839   3.615   4.105  13.079  0.4695  0.6155  0.9862
  808TIP3    H223840   3.674   4.010  12.976  0.3485  1.9377 -0.3297
  809TIP3   OH223841   2.461   3.997  11.035  0.4201  0.5739 -0.2158
  809TIP3    H123842   2.460   4.078  11.086 -1.6916 -0.1020  0.9495
  809TIP3    H223843   2.531   3.945  11.076  1.8506  1.7623 -1.0294
  810TIP3   OH223844   6.709   5.002  15.265 -0.0015  0.1619 -0.8960
  810TIP3    H123845   6.773   5.068  15.290 -1.0721  1.3829 -1.2715
  810TIP3    H223846   6.683   5.026  15.176 -0.2996 -0.8639 -1.0981
  811TIP3   OH223847   0.935   6.342   1.803  0.0170  0.5324  0.0660
  811TIP3    H123848   0.853   6.328   1.755 -0.8034  1.5869  1.1221
  811TIP3    H223849   0.973   6.420   1.762  1.8449 -1.3428 -2.1350
  812TIP3   OH223850   5.629   2.313   0.851 -0.0466 -0.3503 -0.0133
  812TIP3    H123851   5.600   2.358   0.772  0.8522 -0.3999 -0.3774
  812TIP3    H223852   5.723   2.300   0.839 -0.0912 -1.3381  0.5814
  813TIP3   OH223853   1.647   2.453   3.173  0.1481 -0.1788  0.8818
  813TIP3    H123854   1.564   2.420   3.209 -0.3130  0.2180  0.2204
  813TIP3    H223855   1.620   2.512   3.102  1.0076 -0.2269  0.5010
  814TIP3   OH223856   3.005   4.609   5.470  0.7280 -0.3502 -0.0399
  814TIP3    H123857   2.935   4.590   5.533  0.7757  1.7725  0.7355
  814TIP3    H223858   2.992   4.545   5.399 -1.0647 -0.9590  0.7832
  815TIP3   OH223859   2.302   2.337   5.007  0.0288 -0.1694 -0.1010
  815TIP3    H123860   2.392   2.334   5.039  0.3293  0.1481 -0.9152
  815TIP3    H223861   2.257   2.268   5.057  0.4085  0.4988  1.2247
  816TIP3   OH223862   6.397   5.813  14.956  0.1301 -0.3387  0.5826
  816TIP3    H123863   6.353   5.818  14.871  0.8921 -1.1835  0.1282
  816TIP3    H223864   6.383   5.899  14.995 -0.5828 -0.0780 -0.2129
  817TIP3   OH223865   2.632   1.291  10.768  0.2954 -0.2722  0.0314
  817TIP3    H123866   2.540   1.314  10.759  0.1646 -0.3119  1.1433
  817TIP3    H223867   2.644   1.215  10.710 -0.4508 -0.4892  0.1538
  818TIP3   OH223868   3.081   5.607   6.381  0.2689 -0.5627  0.0965
  818TIP3    H123869   3.053   5.684   6.331  1.2427 -0.1943  0.1046
  818TIP3    H223870   3.151   5.568   6.328  1.3568 -0.1325  1.1919
  819TIP3   OH223871   1.871   2.176   4.696 -0.1253  0.2923 -0.4222
  819TIP3    H123872   1.893   2.268   4.713 -0.0443 -0.0144  1.3151
  819TIP3    H223873   1.817   2.150   4.770  2.3525 -1.9208  0.7487
  820TIP3   OH223874   2.279   6.109   0.989  0.9198 -0.0631 -0.4282
  820TIP3    H123875   2.185   6.095   0.975  1.0581 -1.2150 -0.2786
  820TIP3    H223876   2.290   6.112   1.084  1.1452 -0.8574 -0.4185
  821TIP3   OH223877   3.640   2.948   2.254  0.5422 -0.1314  0.1727
  821TIP3    H123878   3.692   2.988   2.324 -0.2756 -2.1757  2.0662
  821TIP3    H223879   3.677   2.860   2.245 -1.1163 -0.8371 -0.0208
  822TIP3   OH223880   4.001   6.117   5.934  0.2428 -0.2526  0.2714
  822TIP3    H123881   3.933   6.100   5.869  0.9448 -0.3693 -0.4605
  822TIP3    H223882   4.025   6.031   5.968 -0.4237 -0.1524  1.0068
  823TIP3   OH223883   0.014   5.381   2.623  0.0824 -0.0849  0.2724
  823TIP3    H123884   0.061   5.303   2.593 -1.9998 -1.5162  0.5091
  823TIP3    H223885   0.015   5.375   2.718  0.3445  0.4662  0.3077
  824TIP3   OH223886   0.410   3.731  12.253 -0.4560 -0.2590  0.9201
  824TIP3    H123887   0.505   3.737  12.260 -0.4969  0.8583  0.6805
  824TIP3    H223888   0.395   3.669  12.181  0.1811  2.2093 -1.5343
  825TIP3   OH223889   5.304   3.280  13.944  0.3237  0.4625  0.1255
  825TIP3    H123890   5.248   3.357  13.931 -0.2485 -0.1988 -1.6256
  825TIP3    H223891   5.255   3.226  14.007 -0.2717  0.6017 -0.2065
  826TIP3   OH223892   0.036   4.222   1.019  0.6773  0.1938  0.7747
  826TIP3    H123893   0.111   4.232   1.078  1.2015 -1.8057  0.5274
  826TIP3    H223894   0.061   4.271   0.940  2.0596 -0.9937  0.4363
  827TIP3   OH223895   2.903   6.547  15.963 -0.1659  0.2503  0.0716
  827TIP3    H123896   2.873   6.474  16.018 -1.5520 -0.6786 -1.7982
  827TIP3    H223897   2.830   6.563  15.903  2.2151 -0.7997 -3.4420
  828TIP3   OH223898   5.837   4.814   6.042 -0.3154 -0.1789  0.1459
  828TIP3    H123899   5.846   4.788   6.134 -0.4505 -4.3501 -0.8117
  828TIP3    H223900   5.927   4.824   6.012 -0.1902 -0.6499  0.3424
  829TIP3   OH223901   0.187   0.805   0.774 -0.6359  0.3236 -0.0304
  829TIP3    H123902   0.125   0.792   0.702  0.3336 -1.4368 -0.6139
  829TIP3    H223903   0.249   0.870   0.741  1.1610 -2.0960 -1.8598
  830TIP3   OH223904   0.637   5.041   4.745  0.6149  0.1838 -0.4833
  830TIP3    H123905   0.686   5.104   4.692 -0.1567  0.7112 -0.5939
  830TIP3    H223906   0.556   5.087   4.767 -0.0080 -0.8200 -0.6518
  831TIP3   OH223907   1.466   4.072  16.784  0.4566  0.7155 -0.3934
  831TIP3    H123908   1.397   4.095  16.722  0.0711  1.6459  0.3513
  831TIP3    H223909   1.431   3.998  16.833  0.5064  0.3811 -0.8598
  832TIP3   OH223910   1.494   1.404   1.765  0.1642 -1.1671 -0.3253
  832TIP3    H123911   1.399   1.411   1.751  0.4764  0.0110 -2.3361
  832TIP3    H223912   1.504   1.340   1.835 -2.1038 -1.5897 -0.3227
  833TIP3   OH223913   4.472   4.887  11.994 -0.1046 -0.2480  0.3326
  833TIP3    H123914   4.458   4.799  11.961  1.4123  0.4370 -2.4638
  833TIP3    H223915   4.506   4.875  12.082 -0.5751 -2.4109  0.2624
  834TIP3   OH223916   1.663   3.320  14.402  0.3333 -0.7613  0.1070
  834TIP3    H123917   1.720   3.377  14.350  1.7966 -2.5366 -0.3491
  834TIP3    H223918   1.616   3.268  14.336  0.5840 -1.5219  0.5189
  835TIP3   OH223919   1.871   0.289  16.457  0.3667  0.1144 -0.8774
  835TIP3    H123920   1.952   0.331  16.485 -1.7427  3.7720  0.3543
  835TIP3    H223921   1.853   0.327  16.371  0.3350 -1.2920 -1.5115
  836TIP3   OH223922   4.579   1.950  16.505 -0.7740  0.3359  0.2210
  836TIP3    H123923   4.511   1.884  16.516 -0.7809  0.2479 -0.2917
  836TIP3    H223924   4.548   2.026  16.555 -1.1234  0.2039  0.2085
  837TIP3   OH223925   0.277   6.033  16.172 -0.0456  0.3626  0.1901
  837TIP3    H123926   0.325   5.995  16.098  2.3403  0.6343  1.5157
  837TIP3    H223927   0.233   5.958  16.213  1.7466 -0.4582  0.7123
  838TIP3   OH223928   3.340   4.899   1.889  0.0133  0.3260 -0.5789
  838TIP3    H123929   3.323   4.805   1.883 -0.7660  0.4825 -0.9076
  838TIP3    H223930   3.418   4.912   1.836 -1.3781  0.2400 -2.7765
  839TIP3   OH223931   0.434   0.436  16.376  0.2443  0.5357  0.0535
  839TIP3    H123932   0.469   0.510  16.424 -1.9135  1.3577  0.4495
  839TIP3    H223933   0.498   0.366  16.390  1.4072  1.7703  1.1883
  840TIP3   OH223934   3.684   0.252   5.065  0.7028  0.3705 -0.4095
  840TIP3    H123935   3.625   0.298   5.006  0.5353  0.9351  0.1842
  840TIP3    H223936   3.750   0.213   5.008 -0.2438 -0.2964 -1.0875
  841TIP3   OH223937   1.273   2.190   5.155 -0.1400  0.4354  0.5854
  841TIP3    H123938   1.239   2.262   5.103 -1.0915 -0.3343  0.1254
  841TIP3    H223939   1.275   2.223   5.245  0.1535  1.2791  0.2711
  842TIP3   OH223940   2.083   2.204   5.607  0.5213 -0.3711  0.1212
  842TIP3    H123941   2.015   2.186   5.672  0.9697 -2.1161  0.1597
  842TIP3    H223942   2.150   2.253   5.655 -1.0056  2.1355 -0.1237
  843TIP3   OH223943   0.702   6.638   5.087  0.1924 -0.3472 -0.0778
  843TIP3    H123944   0.674   6.654   5.177  0.3978 -1.9601  0.3144
  843TIP3    H223945   0.776   6.696   5.074  0.7402 -0.7462  1.1262
  844TIP3   OH223946   2.753   3.525   4.002 -0.0744 -0.5123  0.6248
  844TIP3    H123947   2.781   3.450   3.949  0.2542  0.0139  0.0532
  844TIP3    H223948   2.668   3.550   3.967 -0.1075 -0.5111  0.7055
  845TIP3   OH223949   1.698   4.946  14.548 -0.3988 -0.0155 -0.0763
  845TIP3    H123950   1.768   4.909  14.494 -1.8240 -1.0016 -1.3434
  845TIP3    H223951   1.735   5.026  14.585  0.9211  0.2668 -1.8868
  846TIP3   OH223952   6.538   3.647   1.001 -0.0195 -0.4832 -0.2770
  846TIP3    H123953   6.488   3.711   0.950 -1.0429  0.1657  1.4509
  846TIP3    H223954   6.478   3.619   1.070  1.5154 -0.8155  0.9839
  847TIP3   OH223955   5.246   1.173  14.985  1.5398  0.6090 -0.0450
  847TIP3    H123956   5.342   1.177  14.994  1.5563  3.0275 -0.5580
  847TIP3    H223957   5.214   1.177  15.075  1.9379  1.4898  0.0739
  848TIP3   OH223958   4.872   2.208   0.904  0.5192  0.4275 -0.1506
  848TIP3    H123959   4.813   2.204   0.829  1.0605  1.4621 -0.6546
  848TIP3    H223960   4.957   2.231   0.866  1.6413 -2.3948  0.3643
  849TIP3   OH223961   4.771   5.731   4.576 -0.5390  0.8421  0.0171
  849TIP3    H123962   4.799   5.724   4.667 -0.5657  0.1943 -0.0226
  849TIP3    H223963   4.844   5.775   4.531 -1.1905  2.6778  0.6500
  850TIP3   OH223964   6.215   5.674   3.181  0.3252 -0.4253  0.2335
  850TIP3    H123965   6.291   5.631   3.142  1.1869 -0.2161  1.5998
  850TIP3    H223966   6.225   5.766   3.158  0.4928 -0.3954  0.4282
  851TIP3   OH223967   5.099   4.593   5.712 -0.3816  0.3070  0.2465
  851TIP3    H123968   5.051   4.621   5.634 -1.4240  1.1822  1.1612
  851TIP3    H223969   5.183   4.561   5.679 -0.8467  0.5387 -1.2312
  852TIP3   OH223970   3.899   5.781   6.582 -0.1651 -0.4434  0.0244
  852TIP3    H123971   3.935   5.730   6.509  3.0315  1.6824 -0.0854
  852TIP3    H223972   3.850   5.852   6.539  3.4849  2.0731 -0.3867
  853TIP3   OH223973   3.512   2.470   4.257  0.0910 -0.0276  0.4390
  853TIP3    H123974   3.430   2.512   4.285  0.2368  0.7352 -0.2162
  853TIP3    H223975   3.559   2.452   4.338 -1.2372 -1.5777  0.8899
  854TIP3   OH223976   1.073   4.856   0.627  0.0401  0.1418  0.2379
  854TIP3    H123977   1.065   4.874   0.720  1.5566 -2.9313  1.0905
  854TIP3    H223978   1.167   4.851   0.611 -0.1177  2.1705 -1.8840
  855TIP3   OH223979   1.644   3.411  10.799  0.3814 -0.6207 -0.1554
  855TIP3    H123980   1.642   3.462  10.718 -0.2153  0.4111  0.4773
  855TIP3    H223981   1.716   3.448  10.850  1.6943 -2.2109 -0.7652
  856TIP3   OH223982   4.344   1.519   3.044  0.0222  0.4128  0.1869
  856TIP3    H123983   4.435   1.549   3.040  0.1515 -0.0774 -0.5528
  856TIP3    H223984   4.346   1.429   3.012 -0.9394  0.8873 -1.3341
  857TIP3   OH223985   1.403   5.701  13.560 -0.0474  0.3492 -0.2559
  857TIP3    H123986   1.483   5.705  13.508 -0.9316  1.3371 -1.6370
  857TIP3    H223987   1.390   5.608  13.578  1.4785  0.1952  0.1312
  858TIP3   OH223988   2.880   2.164   0.928  0.1955 -0.2497  0.2676
  858TIP3    H123989   2.814   2.115   0.976  0.4168 -0.5570  0.2616
  858TIP3    H223990   2.870   2.136   0.837 -0.3870  0.5151  0.0849
  859TIP3   OH223991   6.134   1.211  13.526  0.2915 -0.3380 -0.6564
  859TIP3    H123992   6.049   1.250  13.545  0.6866 -0.2999  1.1738
  859TIP3    H223993   6.187   1.284  13.494  0.1017 -0.0314 -0.2736
  860TIP3   OH223994   5.557   4.617  15.476 -0.1435  0.2884  0.0952
  860TIP3    H123995   5.481   4.570  15.441  0.4551 -0.0486 -0.8043
  860TIP3    H223996   5.582   4.567  15.554 -1.7203  1.2557  1.2716
  861TIP3   OH223997   2.801   1.669   0.588  0.5025  0.1182  0.1863
  861TIP3    H123998   2.832   1.759   0.593  3.1704 -0.7168 -0.1906
  861TIP3    H223999   2.861   1.619   0.644  1.9679 -2.1006 -3.0714
  862TIP3   OH224000   6.180   3.157  14.584  0.4662  0.2118  0.0049
  862TIP3    H124001   6.131   3.138  14.504  1.5413  1.6169 -1.0307
  862TIP3    H224002   6.260   3.105  14.577  1.1352  1.2638 -0.4703
  863TIP3   OH224003   5.404   5.974  15.492 -0.1162  0.3642  0.3077
  863TIP3    H124004   5.330   6.031  15.470 -0.3870 -0.0450  0.1658
  863TIP3    H224005   5.442   5.950  15.407  0.6163  1.1354  0.3949
  864TIP3   OH224006   2.308   6.371   5.470 -0.0511  0.3624  0.8492
  864TIP3    H124007   2.325   6.407   5.556 -0.7423  0.1082  1.1021
  864TIP3    H224008   2.213   6.361   5.467 -0.0615  0.6180 -0.0417
  865TIP3   OH224009   5.291   0.458  17.245  0.4057  0.2186 -0.1328
  865TIP3    H124010   5.348   0.468  17.168  0.7463 -2.4563 -0.3183
  865TIP3    H224011   5.310   0.370  17.277 -1.0207  0.6291  1.9983
  866TIP3   OH224012   1.591   4.425  16.289 -0.7545  0.1276 -0.0921
  866TIP3    H124013   1.620   4.415  16.198 -1.3040  0.4993 -0.3118
  866TIP3    H224014   1.518   4.365  16.298 -0.5878 -0.0389  0.1603
  867TIP3   OH224015   6.682   4.778   0.534  0.0445 -0.2078 -0.7424
  867TIP3    H124016   6.724   4.708   0.583  0.4005  0.2683 -0.3487
  867TIP3    H224017   6.626   4.734   0.471 -0.3269 -0.8462  0.0147
  868TIP3   OH224018   4.047   1.120  15.039 -0.2665 -0.7521 -0.1104
  868TIP3    H124019   4.000   1.182  14.983 -1.2314 -0.9256  0.4829
  868TIP3    H224020   4.139   1.144  15.030 -0.6298  0.8282  0.1888
  869TIP3   OH224021   4.542   6.725   2.651 -0.0590  0.1038 -0.2132
  869TIP3    H124022   4.461   6.773   2.632  0.8716  1.9331  0.1958
  869TIP3    H224023   4.551   6.731   2.746  0.1091 -0.8724 -0.1613
  870TIP3   OH224024   0.596   5.882   2.850  0.3381  0.2415 -0.0450
  870TIP3    H124025   0.521   5.915   2.899  0.6034 -0.0493  0.5798
  870TIP3    H224026   0.672   5.913   2.899  0.5984 -0.6125  0.1149
  871TIP3   OH224027   5.009   6.330  15.336 -0.4286 -0.3552 -0.3630
  871TIP3    H124028   4.965   6.320  15.420  1.3382 -0.5170  0.5883
  871TIP3    H224029   5.050   6.417  15.340 -1.2652  0.1172 -1.5331
  872TIP3   OH224030   0.021   0.556  12.420 -0.0479 -0.8218 -0.3724
  872TIP3    H124031   0.005   0.650  12.418 -1.1544 -1.0032 -0.6112
  872TIP3    H224032   0.102   0.546  12.470 -1.4500  0.0688  2.2990
  873TIP3   OH224033   3.468   5.306  12.963  0.2841  0.1084 -0.2328
  873TIP3    H124034   3.485   5.320  13.056  0.6358 -1.2118 -0.0846
  873TIP3    H224035   3.397   5.367  12.942  0.4485  0.6755  0.8080
  874TIP3   OH224036   2.893   5.122  15.095 -0.2586  0.0236  0.4474
  874TIP3    H124037   2.860   5.093  15.010  2.1957 -0.3748 -0.4493
  874TIP3    H224038   2.833   5.192  15.122 -0.7935  0.5431 -1.8860
  875TIP3   OH224039   3.430   2.566   2.315 -0.0772 -0.0360 -0.3847
  875TIP3    H124040   3.417   2.507   2.242 -0.3373  0.9017 -1.1175
  875TIP3    H224041   3.423   2.654   2.277  2.0325  0.5084  0.3322
  876TIP3   OH224042   2.292   1.276  13.623 -0.1093  0.0976 -0.0770
  876TIP3    H124043   2.208   1.244  13.656 -0.6964  0.6816 -0.9669
  876TIP3    H224044   2.357   1.221  13.666 -1.0595 -2.1122 -1.2975
  877TIP3   OH224045   4.373   5.866  13.984 -0.6149 -0.3387 -0.2395
  877TIP3    H124046   4.439   5.796  13.985 -0.3826 -0.1866 -1.7136
  877TIP3    H224047   4.424   5.947  13.980 -0.8914 -0.1149  0.6177
  878TIP3   OH224048   5.123   1.961   3.705 -0.2046  0.1652 -0.3738
  878TIP3    H124049   5.094   1.886   3.653 -1.3830 -0.8444  1.6240
  878TIP3    H224050   5.200   1.929   3.753  0.3200  0.8025 -0.7613
  879TIP3   OH224051   6.282   1.269   5.402  0.1031 -0.6989  0.2842
  879TIP3    H124052   6.295   1.355   5.442  2.2540 -0.8059 -0.0970
  879TIP3    H224053   6.217   1.227   5.458 -2.7332  1.8937 -0.7303
  880TIP3   OH224054   0.424   3.450   3.399 -0.0826 -0.0799  0.3041
  880TIP3    H124055   0.467   3.526   3.438  1.9718  0.3220 -2.4391
  880TIP3    H224056   0.361   3.487   3.337 -2.7320 -0.7067  2.4246
  881TIP3   OH224057   5.121   1.826   0.141  0.2722  0.2680  0.1404
  881TIP3    H124058   5.144   1.768   0.068  0.1133  0.7289 -0.2812
  881TIP3    H224059   5.203   1.867   0.167  0.3283  0.1067  0.2179
  882TIP3   OH224060   2.885   5.576  13.940  0.2675 -0.2896 -0.3388
  882TIP3    H124061   2.808   5.601  13.890  0.4103 -0.9496 -0.8951
  882TIP3    H224062   2.919   5.498  13.896  1.3834  0.1210 -0.2326
  883TIP3   OH224063   0.208   3.874   3.274  0.0702  0.4189 -0.0809
  883TIP3    H124064   0.213   3.938   3.202 -0.0381  1.4618  0.8181
  883TIP3    H224065   0.248   3.795   3.238  0.0376  0.9249 -1.2859
  884TIP3   OH224066   5.214   5.868   5.962  0.4921  0.3867 -0.1083
  884TIP3    H124067   5.201   5.912   6.046  0.0120  1.8826 -0.9188
  884TIP3    H224068   5.307   5.846   5.960  1.3344  3.5093 -0.5859
  885TIP3   OH224069   4.075   2.595  14.296 -0.0969  0.2754 -0.5257
  885TIP3    H124070   4.132   2.557  14.230  0.3439  1.1676 -0.6701
  885TIP3    H224071   4.104   2.557  14.379 -0.8627 -1.0995 -0.8545
  886TIP3   OH224072   0.191   5.016   1.067  0.5230 -0.5281  0.5376
  886TIP3    H124073   0.181   4.982   0.978  0.3531 -1.7018  0.9872
  886TIP3    H224074   0.268   5.073   1.063  1.0724 -1.3022 -0.1499
  887TIP3   OH224075   3.701   3.832   0.270 -0.1388  0.4535  0.1812
  887TIP3    H124076   3.706   3.919   0.231 -1.1482  0.7114  0.5973
  887TIP3    H224077   3.622   3.793   0.233  1.1712 -0.9532 -1.2858
  888TIP3   OH224078   6.399   5.768  11.686 -0.1167 -0.3911  0.5815
  888TIP3    H124079   6.369   5.856  11.712 -1.4326 -1.2829  2.2749
  888TIP3    H224080   6.492   5.779  11.667 -0.5104  1.6049 -0.4341
  889TIP3   OH224081   2.261   6.607  15.402  0.2066 -0.3342  0.0032
  889TIP3    H124082   2.286   6.541  15.337  1.1605 -0.5905  0.6063
  889TIP3    H224083   2.298   6.574  15.485  0.3241  0.7320  0.3899
  890TIP3   OH224084   1.909   5.331  16.236 -0.2597 -0.4401 -0.0092
  890TIP3    H124085   1.861   5.414  16.231 -1.4378 -0.9094  2.0655
  890TIP3    H224086   2.000   5.357  16.246 -0.7474  0.7199  2.0994
  891TIP3   OH224087   0.460   5.658   5.838 -0.2824 -0.2885  0.2252
  891TIP3    H124088   0.388   5.658   5.900  0.0068  0.3120  0.5687
  891TIP3    H224089   0.490   5.749   5.836  0.0223 -0.3946 -0.4320
  892TIP3   OH224090   2.992   1.909  16.961  0.1460 -0.8193 -0.2157
  892TIP3    H124091   2.925   1.950  16.907 -0.1600 -1.3835 -0.2709
  892TIP3    H224092   3.054   1.872  16.899  0.9086  0.3268 -0.1661
  893TIP3   OH224093   3.517   4.999   1.266 -0.1511  0.7735  0.2732
  893TIP3    H124094   3.488   5.063   1.201 -0.0788  1.5247  0.9708
  893TIP3    H224095   3.443   4.992   1.327 -0.3714 -0.2138 -0.0870
  894TIP3   OH224096   0.474   6.691  13.377 -0.3140 -0.3310  0.0417
  894TIP3    H124097   0.488   6.597  13.370  0.7809 -0.2839  1.1684
  894TIP3    H224098   0.469   6.722  13.287 -0.9595 -1.4897 -0.3453
  895TIP3   OH224099   2.775   3.013  17.250  0.7818 -0.2119 -0.3990
  895TIP3    H124100   2.685   3.016  17.283 -0.1049  1.7950 -2.6519
  895TIP3    H224101   2.794   2.920  17.239 -1.0174 -0.6738  0.1279
  896TIP3   OH224102   5.609   1.856  14.531  0.0010  0.3497  0.8710
  896TIP3    H124103   5.584   1.794  14.463 -0.9807  1.1986  0.4343
  896TIP3    H224104   5.585   1.813  14.613 -0.9999  0.2836  0.5578
  897TIP3   OH224105   1.748   5.480   0.507 -0.6317 -0.0463  0.3698
  897TIP3    H124106   1.826   5.445   0.463 -2.3146 -2.4017 -0.9116
  897TIP3    H224107   1.725   5.559   0.457  0.6812  0.4868  0.5597
  898TIP3   OH224108   3.421   2.661   1.532 -0.1528  0.0741  0.2738
  898TIP3    H124109   3.456   2.655   1.621  0.3570 -0.3959  0.0479
  898TIP3    H224110   3.445   2.577   1.491  0.8256  0.8155 -0.7416
  899TIP3   OH224111   1.779   3.282  16.047  0.2724  0.0095 -0.1693
  899TIP3    H124112   1.808   3.194  16.023  1.5976  0.6784 -1.1440
  899TIP3    H224113   1.701   3.297  15.994 -0.2539 -0.7536  0.3705
  900TIP3   OH224114   2.676   6.106   2.741 -0.5813 -0.0538  0.2855
  900TIP3    H124115   2.591   6.134   2.775 -0.5497 -0.3093  0.5784
  900TIP3    H224116   2.685   6.152   2.658 -1.3819 -0.6812 -0.1531
  901TIP3   OH224117   6.560   5.330   3.503 -0.2013 -0.1305  0.3200
  901TIP3    H124118   6.535   5.361   3.415 -0.9766  0.1754  0.6357
  901TIP3    H224119   6.586   5.239   3.490 -0.6013 -0.1779 -0.1905
  902TIP3   OH224120   2.809   4.179   3.429  0.4927 -0.1643  0.2396
  902TIP3    H124121   2.830   4.111   3.493 -0.4083 -0.8725 -0.2016
  902TIP3    H224122   2.802   4.132   3.346  1.0962  0.6630 -0.3018
  903TIP3   OH224123   1.905   2.317   6.105  0.2656  0.3815  0.7468
  903TIP3    H124124   1.879   2.309   6.197  0.9959  1.0923  1.0260
  903TIP3    H224125   1.975   2.382   6.105 -0.0778  0.7815 -0.3837
  904TIP3   OH224126   6.132   5.943   5.840  0.3575 -0.2596 -0.4836
  904TIP3    H124127   6.184   5.962   5.918 -1.5456  0.2583  0.7483
  904TIP3    H224128   6.134   5.848   5.832 -1.6901 -0.6520  2.0043
  905TIP3   OH224129   3.511   5.361   5.847 -0.1887 -0.0468  0.2722
  905TIP3    H124130   3.544   5.282   5.891  1.0748  0.9209  1.1126
  905TIP3    H224131   3.561   5.365   5.765 -1.2107 -0.8268 -0.4115
  906TIP3   OH224132   6.715   1.428  12.002  0.0599 -0.1501  0.4867
  906TIP3    H124133   6.653   1.365  12.037 -1.4692  0.3582 -1.1792
  906TIP3    H224134   6.679   1.513  12.024 -1.1041  0.1992 -2.3727
  907TIP3   OH224135   0.662   5.805  15.069 -0.4314  0.2482  0.2153
  907TIP3    H124136   0.596   5.783  15.135 -0.3089  0.3868  0.3848
  907TIP3    H224137   0.639   5.751  14.994 -0.8317  0.4025  0.2195
  908TIP3   OH224138   1.440   1.048  16.741  0.3256 -0.1699  0.5409
  908TIP3    H124139   1.353   1.027  16.706  0.1203 -0.9704  1.5014
  908TIP3    H224140   1.469   1.123  16.689 -1.0510  0.2723  0.3784
  909TIP3   OH224141   2.306   3.472   0.174 -0.5549 -0.1674 -0.4233
  909TIP3    H124142   2.384   3.432   0.212 -0.0589  0.2866 -0.9555
  909TIP3    H224143   2.240   3.466   0.243 -0.5601 -2.0592 -0.5388
  910TIP3   OH224144   6.004   4.107  11.459 -0.1040  0.1543 -0.0078
  910TIP3    H124145   6.036   4.018  11.445 -0.0582  0.1423  0.1754
  910TIP3    H224146   6.025   4.126  11.550  1.1177  0.8648 -0.4223
  911TIP3   OH224147   4.953   5.979   2.703 -0.1762  0.2405 -0.7938
  911TIP3    H124148   4.871   6.029   2.705  0.0229  0.6102 -1.5576
  911TIP3    H224149   4.929   5.898   2.657 -0.9465 -1.2504  1.9811
  912TIP3   OH224150   4.036   1.972   4.868  0.0728  0.1297  0.6650
  912TIP3    H124151   4.125   1.968   4.832 -0.0054  3.2711 -0.1806
  912TIP3    H224152   3.978   1.969   4.792 -0.3711  1.0529  0.9495
  913TIP3   OH224153   0.488   1.371   0.505 -0.3696  0.8823 -0.0111
  913TIP3    H124154   0.556   1.388   0.439  0.7636 -0.8793  0.6185
  913TIP3    H224155   0.406   1.379   0.457  0.3796  0.7499 -1.3708
  914TIP3   OH224156   2.084   5.684   3.643 -0.1761 -0.6693 -0.0334
  914TIP3    H124157   2.154   5.699   3.707  1.4136 -0.4127 -1.7646
  914TIP3    H224158   2.103   5.597   3.607 -1.8386 -1.3989  0.7247
  915TIP3   OH224159   3.292   3.644   3.719  0.3095  0.5124  0.2957
  915TIP3    H124160   3.253   3.567   3.679  1.2227 -0.3917  1.0843
  915TIP3    H224161   3.292   3.625   3.813  0.7695  1.3568  0.4770
  916TIP3   OH224162   6.073   5.883  16.277 -0.1267  0.3785 -0.3117
  916TIP3    H124163   6.162   5.847  16.277  0.3983  1.6220 -0.9021
  916TIP3    H224164   6.060   5.916  16.366 -0.1232 -0.0734 -0.1386
  917TIP3   OH224165   5.644   2.979   2.953 -0.4391 -0.2174 -0.2321
  917TIP3    H124166   5.644   2.889   2.920 -0.3173 -1.1820  2.1765
  917TIP3    H224167   5.659   3.033   2.875  0.6398 -2.3271 -1.6011
  918TIP3   OH224168   0.901   4.322   5.023  0.4222 -0.3975 -0.1336
  918TIP3    H124169   0.988   4.295   5.054 -0.6200  0.3029  3.9529
  918TIP3    H224170   0.845   4.247   5.039 -0.1315 -0.1787 -0.9573
  919TIP3   OH224171   4.581   3.210  12.067 -0.0394  0.0586 -0.2652
  919TIP3    H124172   4.668   3.228  12.104 -0.0481  1.1573 -0.7333
  919TIP3    H224173   4.520   3.249  12.129 -0.0569  1.8324 -1.3362
  920TIP3   OH224174   3.959   2.662   1.056  0.1594  0.6625 -0.1358
  920TIP3    H124175   3.972   2.654   0.961  0.9523 -1.3339  0.0945
  920TIP3    H224176   4.045   2.645   1.093 -0.4836 -0.2600  0.9928
  921TIP3   OH224177   2.924   5.364  13.760 -1.1023 -0.7010 -0.1173
  921TIP3    H124178   2.883   5.280  13.740 -1.2176 -0.7290  0.2283
  921TIP3    H224179   2.946   5.401  13.674 -3.6747  0.2231 -0.4521
  922TIP3   OH224180   2.861   1.249   5.800  0.3021  0.2692 -0.4902
  922TIP3    H124181   2.925   1.263   5.870  0.6722 -0.9144 -0.5621
  922TIP3    H224182   2.783   1.216   5.844 -0.5795  2.4317 -0.3136
  923TIP3   OH224183   2.747   0.493  15.700 -0.4022 -0.3906  0.4074
  923TIP3    H124184   2.739   0.402  15.672 -2.2402  0.0008 -0.4724
  923TIP3    H224185   2.656   0.523  15.711  0.1096  1.7343 -0.6530
  924TIP3   OH224186   4.623   2.312   4.852 -0.2136  0.1177  0.2874
  924TIP3    H124187   4.565   2.330   4.927 -2.0804 -2.6598 -0.3448
  924TIP3    H224188   4.616   2.218   4.838  2.2254  0.1233 -1.7450
  925TIP3   OH224189   0.564   5.975   5.749  0.0214  0.5068 -0.2017
  925TIP3    H124190   0.543   6.015   5.665 -2.5918  2.0010  1.0239
  925TIP3    H224191   0.610   6.044   5.798  0.0876  0.2210  0.1462
  926TIP3   OH224192   4.273   2.741   2.965  0.8528 -0.1673  0.2177
  926TIP3    H124193   4.197   2.742   3.023 -0.0994 -0.5148 -0.9944
  926TIP3    H224194   4.281   2.650   2.938  0.0162  0.3091 -1.7871
  927TIP3   OH224195   6.736   0.586  12.116 -0.3600  0.0190 -0.3919
  927TIP3    H124196   6.758   0.550  12.029  0.1303  1.5542 -0.9300
  927TIP3    H224197   6.807   0.647  12.135 -0.7140  0.0442  0.8949
  928TIP3   OH224198   2.407   0.240   5.939  0.1836 -0.2513 -0.2605
  928TIP3    H124199   2.452   0.216   6.020  0.8997 -1.6273 -1.0304
  928TIP3    H224200   2.322   0.196   5.945  0.4438 -0.7978 -0.4711
  929TIP3   OH224201   3.066   5.576   3.758 -0.1836  0.1813 -0.0084
  929TIP3    H124202   2.983   5.543   3.723  0.1480 -1.9996  1.0610
  929TIP3    H224203   3.133   5.535   3.703  0.2355  2.3833 -1.2294
  930TIP3   OH224204   3.056   6.096  16.622 -0.0894 -0.0462  0.7987
  930TIP3    H124205   2.967   6.126  16.605  0.5565  1.6917  0.2364
  930TIP3    H224206   3.058   6.006  16.589 -1.6458 -0.1311  0.8909
  931TIP3   OH224207   6.456   1.923   5.590  0.0778  0.6965  0.0806
  931TIP3    H124208   6.474   1.991   5.655 -0.7194  2.4337 -1.4091
  931TIP3    H224209   6.400   1.966   5.525 -0.3764 -1.3750 -1.0041
  932TIP3   OH224210   3.141   5.347  15.823  0.2302 -0.2462  0.3060
  932TIP3    H124211   3.184   5.412  15.768  0.0381 -0.5059 -0.1649
  932TIP3    H224212   3.075   5.307  15.765  0.9202 -1.4473  0.3174
  933TIP3   OH224213   6.602   4.672  13.890 -0.1169 -0.5465  0.0502
  933TIP3    H124214   6.616   4.623  13.971 -0.9467 -0.8985 -0.0069
  933TIP3    H224215   6.538   4.619  13.842  1.2745 -0.9826 -1.3902
  934TIP3   OH224216   5.514   2.986  12.959 -0.1527  0.0978  0.9527
  934TIP3    H124217   5.599   3.020  12.991 -0.7410  0.2003  2.5204
  934TIP3    H224218   5.489   3.047  12.890  0.3627  0.9646  1.5026
  935TIP3   OH224219   6.651   2.459   6.179  0.1351 -0.5241 -0.0233
  935TIP3    H124220   6.697   2.379   6.205  2.3882 -0.0945 -2.3060
  935TIP3    H224221   6.696   2.488   6.100 -3.0011  0.9756 -1.4380
  936TIP3   OH224222   5.660   4.733   1.397  0.4936  0.7845 -0.3022
  936TIP3    H124223   5.655   4.775   1.483  2.0379  1.4352 -0.4908
  936TIP3    H224224   5.572   4.743   1.360  0.6022  3.2833 -0.0453
  937TIP3   OH224225   0.066   0.288   2.228 -0.2541 -0.0417  0.1516
  937TIP3    H124226   0.108   0.210   2.266  0.0939  0.6151  1.1699
  937TIP3    H224227   0.124   0.314   2.157 -0.2085 -0.5395  0.0057
  938TIP3   OH224228   1.083   3.026  13.055  0.0055 -0.3672 -0.0768
  938TIP3    H124229   1.118   3.040  12.967 -0.4644  1.0623 -0.0633
  938TIP3    H224230   1.054   2.935  13.055  2.0117 -1.0534 -0.6685
  939TIP3   OH224231   3.981   0.748   2.585  0.8185 -0.3058  0.6863
  939TIP3    H124232   3.932   0.752   2.667  0.2768 -2.9142  0.5787
  939TIP3    H224233   3.918   0.717   2.521  1.5070  0.6951 -0.5382
  940TIP3   OH224234   5.612   5.900  14.131  0.0253  0.2485 -0.4736
  940TIP3    H124235   5.633   5.868  14.043 -0.6900 -1.1494 -0.1755
  940TIP3    H224236   5.692   5.887  14.181  0.1603  0.1885 -0.7035
  941TIP3   OH224237   0.602   0.780   2.422 -0.1614 -0.5474  0.5758
  941TIP3    H124238   0.520   0.806   2.378  0.8510 -0.3482 -1.3212
  941TIP3    H224239   0.670   0.818   2.367  1.2219 -0.2563  2.4183
  942TIP3   OH224240   6.738   3.696   3.389  0.2081  0.1024 -0.1172
  942TIP3    H124241   6.709   3.699   3.297  0.5398  0.5530 -0.2094
  942TIP3    H224242   6.797   3.621   3.393  0.6787  0.4451 -0.4237
  943TIP3   OH224243   5.466   5.187   3.322 -0.1707  0.0080  0.4817
  943TIP3    H124244   5.403   5.122   3.355 -0.1585  0.4114  1.3147
  943TIP3    H224245   5.527   5.200   3.394  1.1072 -0.6352 -0.4314
  944TIP3   OH224246   2.262   6.620   2.163  0.7132  0.2030 -0.5399
  944TIP3    H124247   2.258   6.715   2.157 -0.3667  0.3023  1.2603
  944TIP3    H224248   2.224   6.599   2.248 -0.2444 -1.9178 -1.4023
  945TIP3   OH224249   2.813   6.457  11.274  0.1820 -0.2888  0.2801
  945TIP3    H124250   2.783   6.394  11.208 -1.2766  1.2824 -0.6311
  945TIP3    H224251   2.736   6.474  11.329  0.6849  0.3051  0.8230
  946TIP3   OH224252   1.334   0.359   1.074  0.0089  0.1199 -0.4930
  946TIP3    H124253   1.286   0.279   1.098 -0.2037  0.7660  1.4233
  946TIP3    H224254   1.426   0.334   1.078  0.0002  0.2587  1.4512
  947TIP3   OH224255   2.735   3.294  12.921  0.2553  0.1358 -0.2500
  947TIP3    H124256   2.679   3.243  12.980  1.7482  0.4766  1.5434
  947TIP3    H224257   2.780   3.356  12.978 -0.8854  3.0241 -2.2280
  948TIP3   OH224258   4.125   1.894  12.884 -0.1100 -0.5885  0.0236
  948TIP3    H124259   4.121   1.822  12.822  0.9135 -0.1027 -0.6354
  948TIP3    H224260   4.085   1.968  12.838  0.9511 -0.1385 -0.1950
  949TIP3   OH224261   1.031   0.352  12.757  0.1156 -0.4706  0.9849
  949TIP3    H124262   1.065   0.392  12.677 -1.4157 -1.3916 -0.1954
  949TIP3    H224263   0.988   0.272  12.727 -0.7313 -0.7050  2.7032
  950TIP3   OH224264   4.247   0.942   3.599 -0.0099 -0.1176  0.4784
  950TIP3    H124265   4.220   0.919   3.510  0.4091 -0.7072  0.4943
  950TIP3    H224266   4.310   0.874   3.623  0.2789  0.3324  1.0296
  951TIP3   OH224267   2.636   3.625  16.748 -0.1778  0.2378  1.5342
  951TIP3    H124268   2.648   3.719  16.762 -0.3207  0.4465  0.2910
  951TIP3    H224269   2.546   3.616  16.717  0.3669 -0.1029 -0.0231
  952TIP3   OH224270   0.609   0.164  12.864 -0.1677 -0.3655  0.3698
  952TIP3    H124271   0.703   0.178  12.878 -0.3939 -0.3473  2.0121
  952TIP3    H224272   0.604   0.076  12.826  0.5479 -0.0239 -0.5809
  953TIP3   OH224273   0.570   1.501  14.704 -0.1973  0.1088 -0.1921
  953TIP3    H124274   0.632   1.531  14.770  0.2484 -0.6950 -0.2264
  953TIP3    H224275   0.579   1.405  14.705 -0.4562  0.0647 -1.1488
  954TIP3   OH224276   3.462   2.438   5.779 -0.8370  0.2780 -0.5615
  954TIP3    H124277   3.533   2.476   5.830  0.4117  1.1018 -2.7404
  954TIP3    H224278   3.383   2.454   5.830  0.1452  2.3963  0.3815
  955TIP3   OH224279   5.435   0.828  13.352  0.3160 -0.1855  0.3667
  955TIP3    H124280   5.437   0.754  13.291 -0.2965  0.9428 -1.0882
  955TIP3    H224281   5.507   0.884  13.323  0.2270  0.2186  0.9193
  956TIP3   OH224282   5.393   2.700   5.696  0.2444 -0.3868  0.4274
  956TIP3    H124283   5.326   2.691   5.763 -0.1003 -3.1787 -0.1552
  956TIP3    H224284   5.470   2.656   5.732  1.3196  1.4364  0.4716
  957TIP3   OH224285   0.480   2.252  12.061  0.2646 -0.1421 -0.0270
  957TIP3    H124286   0.540   2.327  12.059 -0.8708  0.8003  0.4029
  957TIP3    H224287   0.413   2.274  11.996 -0.4449 -0.4790  0.5868
  958TIP3   OH224288   4.332   0.854  16.866 -0.0837 -0.3007  0.7790
  958TIP3    H124289   4.305   0.894  16.784 -0.7033 -2.3679 -0.0813
  958TIP3    H224290   4.364   0.767  16.841 -0.9984 -1.2721  2.7855
  959TIP3   OH224291   5.007   3.036   2.545 -0.3343  0.0612 -0.0167
  959TIP3    H124292   5.044   3.111   2.590 -2.3288  0.6284  0.7826
  959TIP3    H224293   5.070   3.015   2.476  1.0980  1.3465  0.8602
  960TIP3   OH224294   4.137   2.180   5.671  0.2772  0.3905 -0.1825
  960TIP3    H124295   4.228   2.211   5.668  0.8650 -0.9854  1.6320
  960TIP3    H224296   4.120   2.148   5.582  2.1730 -0.8868 -0.1402
  961TIP3   OH224297   2.240   3.080  13.741 -0.2276 -0.4412  0.4741
  961TIP3    H124298   2.223   3.056  13.832  0.4200 -2.3055  0.1473
  961TIP3    H224299   2.173   3.034  13.691 -1.1377  1.2784  0.0294
  962TIP3   OH224300   5.314   0.401   0.296 -0.1991  0.4096  0.0817
  962TIP3    H124301   5.400   0.410   0.255  0.5686  0.6691  1.6925
  962TIP3    H224302   5.316   0.315   0.337 -0.4369  0.6936  0.7057
  963TIP3   OH224303   4.229   2.621   1.101  0.2257 -0.3951 -0.0558
  963TIP3    H124304   4.284   2.582   1.168  0.6427 -0.4760 -0.4377
  963TIP3    H224305   4.290   2.667   1.044 -0.2325  0.6351  0.2578
  964TIP3   OH224306   1.763   6.518   4.768  0.2388  0.2925  0.0830
  964TIP3    H124307   1.755   6.612   4.752  0.4706  0.3297  0.1824
  964TIP3    H224308   1.820   6.486   4.699 -1.5475 -0.1589 -1.2700
  965TIP3   OH224309   6.533   4.424  14.196 -0.0717 -0.0690  0.0647
  965TIP3    H124310   6.467   4.462  14.139 -0.5836 -0.2117  0.5572
  965TIP3    H224311   6.532   4.479  14.275  0.4232 -0.0497  0.0651
  966TIP3   OH224312   3.438   1.573  15.820  0.0864 -0.5162  0.3087
  966TIP3    H124313   3.442   1.546  15.728 -0.8989 -0.2847  0.1782
  966TIP3    H224314   3.345   1.589  15.835  0.3085 -0.0058  1.1896
  967TIP3   OH224315   6.333   4.674   5.122 -0.3761 -0.5992 -0.1011
  967TIP3    H124316   6.341   4.765   5.093 -0.5119 -0.6831 -0.3994
  967TIP3    H224317   6.419   4.636   5.104 -0.4498 -0.6419 -0.3547
  968TIP3   OH224318   2.772   2.764   3.520 -0.0589 -0.4915  0.3969
  968TIP3    H124319   2.761   2.703   3.447  1.5102 -1.7877  1.1803
  968TIP3    H224320   2.825   2.835   3.484  1.8556 -1.7762  0.5601
  969TIP3   OH224321   6.049   5.352   1.290 -0.3906  0.6118  0.4725
  969TIP3    H124322   6.041   5.309   1.205  1.6823 -0.6282  0.8297
  969TIP3    H224323   6.028   5.444   1.272  2.4452  0.9349 -2.0051
  970TIP3   OH224324   1.547   1.444  11.712 -0.6302  0.1155  0.5392
  970TIP3    H124325   1.611   1.437  11.783 -0.1548  0.9971  0.2110
  970TIP3    H224326   1.556   1.534  11.680 -2.0534  0.2654  0.4960
  971TIP3   OH224327   2.932   2.325  15.186  0.2278  0.4531  0.1295
  971TIP3    H124328   2.970   2.309  15.100  0.4230  0.0361  0.2927
  971TIP3    H224329   3.007   2.342  15.243  0.3108 -1.8226  0.7752
  972TIP3   OH224330   4.592   3.619  14.131  0.1252  0.3776 -0.2107
  972TIP3    H124331   4.616   3.638  14.221 -0.2834 -0.9698  0.2052
  972TIP3    H224332   4.520   3.679  14.112  0.0361  0.4820  0.4513
  973TIP3   OH224333   4.591   6.448   1.420  0.1552 -0.1586  0.6602
  973TIP3    H124334   4.518   6.496   1.382  0.5787 -1.0879 -1.4480
  973TIP3    H224335   4.668   6.479   1.372  0.8919 -0.5281  1.5719
  974TIP3   OH224336   4.154   3.143   1.237  0.0871  0.2680  0.7021
  974TIP3    H124337   4.104   3.100   1.307 -1.3251  2.3628  1.1059
  974TIP3    H224338   4.233   3.175   1.281  0.0262  0.0810  0.9512
  975TIP3   OH224339   4.475   4.709   2.232  0.0812 -0.0968  0.4006
  975TIP3    H124340   4.483   4.623   2.190  1.0279  0.6065 -0.9618
  975TIP3    H224341   4.537   4.707   2.304 -0.3742 -0.7682  0.7812
  976TIP3   OH224342   5.869   2.220  16.085 -0.5693 -0.1857  0.6106
  976TIP3    H124343   5.878   2.278  16.010  0.8988 -1.5293 -0.3044
  976TIP3    H224344   5.775   2.219  16.104 -0.7571  1.5511 -0.0589
  977TIP3   OH224345   3.298   2.566   4.359  0.3051 -0.2402  0.2937
  977TIP3    H124346   3.211   2.553   4.398  0.3237 -0.2248  0.3405
  977TIP3    H224347   3.288   2.644   4.304  0.6839  0.7050  1.5091
  978TIP3   OH224348   4.644   5.054  12.518  0.1592  0.3742  0.3567
  978TIP3    H124349   4.611   4.981  12.466  0.3064  0.5055  0.0759
  978TIP3    H224350   4.684   5.113  12.454 -0.7146  1.1241  0.4704
  979TIP3   OH224351   0.411   2.085  15.385 -0.7213  0.5135  0.2041
  979TIP3    H124352   0.383   2.162  15.336  0.5855  1.1414  0.4046
  979TIP3    H224353   0.465   2.119  15.456 -1.5054 -0.4801  1.3254
  980TIP3   OH224354   0.741   0.099  11.181 -0.2930  0.0049 -0.0765
  980TIP3    H124355   0.711   0.164  11.118 -1.9572  1.1556  1.7634
  980TIP3    H224356   0.694   0.019  11.158 -0.4552  0.2539 -0.6158
  981TIP3   OH224357   4.196   1.697   2.930  0.0028  0.2106  0.2625
  981TIP3    H124358   4.227   1.681   2.841  1.5271  0.6231  0.6771
  981TIP3    H224359   4.233   1.626   2.981 -1.6780 -0.5840  0.4370
  982TIP3   OH224360   4.732   6.449  11.078  0.2660  0.2260  0.9646
  982TIP3    H124361   4.716   6.476  11.169  0.7681  0.0336  1.1135
  982TIP3    H224362   4.726   6.531  11.028 -1.0332  0.1852  1.0219
  983TIP3   OH224363   5.569   2.436   0.605 -0.2757  0.0438  0.2117
  983TIP3    H124364   5.643   2.444   0.545  0.8684  0.2203  1.6033
  983TIP3    H224365   5.518   2.517   0.590  0.8776  0.8682  0.6272
  984TIP3   OH224366   3.755   5.005   0.486 -0.0198  0.4198  0.3777
  984TIP3    H124367   3.817   5.000   0.558 -1.2504  0.7315  1.5126
  984TIP3    H224368   3.750   4.916   0.452  0.1808  0.1484  1.0435
  985TIP3   OH224369   4.531   3.164   4.695 -0.4623 -0.1269  0.6902
  985TIP3    H124370   4.486   3.247   4.683 -1.5809 -0.6972  0.8474
  985TIP3    H224371   4.624   3.185   4.680 -0.7841  1.0258  0.1917
  986TIP3   OH224372   3.550   3.077   4.724  0.0661  0.2529  0.1073
  986TIP3    H124373   3.604   2.999   4.706 -1.2609 -0.7718  0.4445
  986TIP3    H224374   3.613   3.149   4.725  1.5559 -0.9886  1.2452
  987TIP3   OH224375   6.231   3.631   4.685  0.0391 -0.4794 -0.1561
  987TIP3    H124376   6.156   3.579   4.656 -0.0214 -0.4341 -0.0824
  987TIP3    H224377   6.285   3.569   4.734  0.2018 -0.5842 -0.4677
  988TIP3   OH224378   6.745   4.253   3.548 -0.3278  0.1109 -0.0942
  988TIP3    H124379   6.717   4.198   3.622 -0.2251  0.6395  0.3470
  988TIP3    H224380   6.837   4.272   3.567 -0.5985  1.1961  0.2592
  989TIP3   OH224381   6.729   4.260  14.528 -0.0383 -0.3642 -0.0082
  989TIP3    H124382   6.714   4.344  14.571 -0.4904  0.1239 -1.0826
  989TIP3    H224383   6.752   4.283  14.438  2.2981 -1.2910  0.2675
  990TIP3   OH224384   0.090   3.756   2.680 -0.6868 -0.5418 -0.6323
  990TIP3    H124385   0.141   3.733   2.602 -0.7942 -0.0888 -0.8371
  990TIP3    H224386   0.076   3.851   2.673 -1.2265 -0.6002 -0.3761
  991TIP3   OH224387   3.698   0.218  14.989  0.0828 -0.5995  0.4383
  991TIP3    H124388   3.612   0.224  14.948 -1.1070  0.8230  2.8997
  991TIP3    H224389   3.719   0.308  15.015 -0.0766 -1.4894  4.2724
  992TIP3   OH224390   1.579   3.384   0.395 -0.1600 -0.6301  0.4754
  992TIP3    H124391   1.622   3.462   0.430 -1.4395 -0.4764  1.8211
  992TIP3    H224392   1.650   3.325   0.370  0.8122  0.4963  0.5160
  993TIP3   OH224393   0.593   4.951  10.985 -0.1178 -0.1736  0.4087
  993TIP3    H124394   0.539   4.880  11.019 -0.8574  1.2445  2.3964
  993TIP3    H224395   0.633   4.916  10.906 -1.3675 -2.3792  0.6956
  994TIP3   OH224396   5.312   5.580   4.015  0.2867 -0.5840 -0.0247
  994TIP3    H124397   5.371   5.597   4.088  0.4204 -0.4937 -0.1545
  994TIP3    H224398   5.288   5.666   3.982 -0.2969 -0.6071  0.3310
  995TIP3   OH224399   1.879   6.749  15.717 -0.4235  0.2129  0.5981
  995TIP3    H124400   1.916   6.683  15.658  0.5716  1.4080 -0.1710
  995TIP3    H224401   1.953   6.776  15.772 -1.2183 -0.5115  2.0726
  996TIP3   OH224402   5.667   3.092   0.737 -0.6465  0.4733  0.0811
  996TIP3    H124403   5.591   3.036   0.720 -1.5730  1.1668  1.7172
  996TIP3    H224404   5.686   3.080   0.830 -0.1617  2.0205  0.2143
  997TIP3   OH224405   4.798   4.190  14.155  0.5790  0.0662 -0.2776
  997TIP3    H124406   4.756   4.215  14.237  1.4161  1.1636 -0.1513
  997TIP3    H224407   4.808   4.095  14.160 -2.1512 -0.2971 -0.4793
  998TIP3   OH224408   2.752   4.467  15.028 -0.0192  0.3520  0.5436
  998TIP3    H124409   2.687   4.459  15.097 -1.5936  0.0192 -0.9112
  998TIP3    H224410   2.787   4.556  15.038 -0.4935  0.4478  1.4997
  999TIP3   OH224411   1.686   4.885  11.661 -0.1926 -0.5162 -0.5119
  999TIP3    H124412   1.646   4.967  11.633 -1.5095 -0.3607  1.5977
  999TIP3    H224413   1.779   4.905  11.671 -0.7986  1.4847  2.2343
 1000TIP3   OH224414   1.960   4.772  13.638  0.3443 -0.1781  0.6220
 1000TIP3    H124415   1.945   4.711  13.710  0.5985  1.1875  1.8576
 1000TIP3    H224416   1.968   4.858  13.679  1.6173  0.4962 -0.9102
 1001TIP3   OH224417   2.485   1.254  12.246  0.4250  0.0693  0.0926
 1001TIP3    H124418   2.543   1.243  12.322 -1.3333 -4.1795  1.1279
 1001TIP3    H224419   2.422   1.321  12.274  1.0255  0.0433  1.6320
 1002TIP3   OH224420   0.731   0.531  14.674 -0.1218  0.1451  0.6420
 1002TIP3    H124421   0.726   0.464  14.743 -0.4099 -1.2207 -0.6565
 1002TIP3    H224422   0.810   0.581  14.695  1.4409 -2.0804  0.4131
 1003TIP3   OH224423   2.536   1.467  14.164  0.6837 -0.0550 -0.4899
 1003TIP3    H124424   2.587   1.387  14.169 -0.7565 -0.9491  2.2468
 1003TIP3    H224425   2.460   1.444  14.110 -0.2002 -0.9109  1.0476
 1004TIP3   OH224426   1.080   2.280   0.557  0.0901  0.4912 -0.5342
 1004TIP3    H124427   1.009   2.328   0.602 -1.1586 -0.7209 -1.1420
 1004TIP3    H224428   1.147   2.346   0.542 -0.9099  1.6957  0.0768
 1005TIP3   OH224429   4.109   5.708   2.893 -0.4346  0.2728  0.3333
 1005TIP3    H124430   4.071   5.681   2.977  0.8535 -0.9550  0.5591
 1005TIP3    H224431   4.181   5.766   2.918 -1.4769  1.7639 -0.0435
 1006TIP3   OH224432   6.094   5.923   2.141 -0.4407 -0.5091  0.4193
 1006TIP3    H124433   6.035   5.967   2.202  0.5660  0.3112  0.8215
 1006TIP3    H224434   6.122   5.992   2.081  0.3893 -0.8105  0.4488
 1007TIP3   OH224435   0.299   6.614  12.299 -0.4236  0.2817  0.1752
 1007TIP3    H124436   0.232   6.599  12.366  0.4134 -0.0673  0.9522
 1007TIP3    H224437   0.264   6.571  12.221 -1.0891  0.0698  0.5775
 1008TIP3   OH224438   1.558   6.685  14.747 -0.1450 -0.1786 -0.0177
 1008TIP3    H124439   1.563   6.751  14.678 -0.3475 -0.3698 -0.2186
 1008TIP3    H224440   1.466   6.657  14.746  0.4009 -2.2177 -1.5845
 1009TIP3   OH224441   4.147   0.991   2.491 -0.5612  0.5585  0.6637
 1009TIP3    H124442   4.150   0.895   2.496 -0.2168  0.5892  1.0475
 1009TIP3    H224443   4.174   1.011   2.402 -3.2186  0.1842 -0.3291
 1010TIP3   OH224444   1.482   1.140  13.356 -0.5251  0.2684  0.1405
 1010TIP3    H124445   1.523   1.118  13.440  0.3642 -0.4454 -0.4685
 1010TIP3    H224446   1.422   1.067  13.340 -0.0860 -0.0123 -0.2364
 1011TIP3   OH224447   1.510   4.041   2.811  0.3171  0.2417 -0.1496
 1011TIP3    H124448   1.595   4.039   2.767  0.4529 -0.8538  0.1343
 1011TIP3    H224449   1.453   3.988   2.755  0.4836 -1.1414  0.9306
 1012TIP3   OH224450   6.230   1.854   5.279 -0.9206  0.6090 -0.7569
 1012TIP3    H124451   6.151   1.800   5.287 -1.6734  1.8652  1.1757
 1012TIP3    H224452   6.222   1.918   5.350  1.8027  0.8617 -0.5780
 1013TIP3   OH224453   5.034   6.511  13.454 -0.5716 -0.4942 -0.3868
 1013TIP3    H124454   4.999   6.456  13.525 -0.4044  2.1783  1.9081
 1013TIP3    H224455   4.958   6.561  13.424 -0.1322  0.2429 -0.2783
 1014TIP3   OH224456   4.996   1.924  15.032  0.4530 -0.1354  0.0736
 1014TIP3    H124457   5.037   1.867  15.097  2.7445  0.9015 -0.3842
 1014TIP3    H224458   5.017   2.012  15.062 -0.0589  0.3956 -1.0971
 1015TIP3   OH224459   4.689   0.534   4.626 -0.0148  0.5192 -0.5252
 1015TIP3    H124460   4.780   0.564   4.626 -0.9402  3.7544 -1.4194
 1015TIP3    H224461   4.648   0.581   4.698 -0.8751 -1.5310  0.4122
 1016TIP3   OH224462   3.891   3.430   6.354  0.5025 -0.1393  0.2761
 1016TIP3    H124463   3.909   3.337   6.348  0.5894 -0.0761 -0.7165
 1016TIP3    H224464   3.870   3.446   6.446 -0.3651 -1.2868  0.2863
 1017TIP3   OH224465   4.120   4.977  14.072  0.3492  0.3198  0.2467
 1017TIP3    H124466   4.178   4.956  13.999  1.2564 -0.0355  1.0471
 1017TIP3    H224467   4.042   4.923  14.058 -0.1486  1.3595 -1.2434
 1018TIP3   OH224468   4.383   1.650   5.808  0.4385 -0.0015  0.3726
 1018TIP3    H124469   4.402   1.640   5.714 -0.0843 -1.4210  0.3938
 1018TIP3    H224470   4.452   1.708   5.840  0.7647  0.3185 -0.8475
 1019TIP3   OH224471   5.606   2.860   2.544 -0.3608  0.2181  0.1438
 1019TIP3    H124472   5.585   2.781   2.494 -1.0699 -0.0518  0.8530
 1019TIP3    H224473   5.685   2.837   2.592  0.1397  0.3689 -0.5821
 1020TIP3   OH224474   0.899   3.734  16.585  0.3183  0.0993  0.1765
 1020TIP3    H124475   0.866   3.662  16.532 -1.0710 -0.1539  1.3080
 1020TIP3    H224476   0.822   3.768  16.630  1.0863  1.7517  0.3242
 1021TIP3   OH224477   4.020   0.047  12.413 -0.1736 -0.0435  0.1917
 1021TIP3    H124478   4.029   0.048  12.317  1.6543 -1.1743  0.3011
 1021TIP3    H224479   3.927   0.064  12.428 -0.8470 -1.4753 -1.8467
 1022TIP3   OH224480   1.219   2.808   3.124  0.0018  0.6946  0.1602
 1022TIP3    H124481   1.159   2.877   3.099  0.8991  1.4474  0.0385
 1022TIP3    H224482   1.268   2.788   3.044  1.4478  1.6643  0.7691
 1023TIP3   OH224483   0.527   4.452   1.869 -0.5058 -0.0198 -0.2400
 1023TIP3    H124484   0.462   4.493   1.812 -0.2584  0.0309 -0.4898
 1023TIP3    H224485   0.476   4.418   1.943 -1.3370 -2.9122 -1.9713
 1024TIP3   OH224486   0.067   2.615  13.328 -0.3571  0.5170  0.3172
 1024TIP3    H124487   0.123   2.597  13.254 -2.6447 -3.4151 -0.7497
 1024TIP3    H224488   0.124   2.607  13.405  1.4489  1.8472 -0.8005
 1025TIP3   OH224489   3.702   1.768   0.324  0.0884 -0.3672 -0.0800
 1025TIP3    H124490   3.740   1.757   0.237  1.3309 -2.0649  0.6019
 1025TIP3    H224491   3.680   1.678   0.351 -1.1155  0.2260  1.0029
 1026TIP3   OH224492   4.715   6.275   2.405  0.1471 -0.0626 -0.3339
 1026TIP3    H124493   4.683   6.268   2.315  3.0747  1.4111 -1.6431
 1026TIP3    H224494   4.712   6.369   2.424 -1.3250 -0.4330  1.5370
 1027TIP3   OH224495   0.445   2.071  16.012  0.2321  0.0499 -0.3616
 1027TIP3    H124496   0.421   2.068  15.920 -0.1939 -0.5305 -0.2373
 1027TIP3    H224497   0.378   2.128  16.052 -0.0277 -0.3082 -0.2836
 1028TIP3   OH224498   3.606   0.977   2.375  0.6807 -0.2260 -0.0023
 1028TIP3    H124499   3.679   1.031   2.403 -0.0204 -0.3784  2.3793
 1028TIP3    H224500   3.536   1.039   2.354  1.6521 -0.0387 -3.1067
 1029TIP3   OH224501   2.005   0.117   2.908 -0.1896  0.2888  0.4032
 1029TIP3    H124502   2.049   0.189   2.951 -1.5099  1.2189  0.2522
 1029TIP3    H224503   1.947   0.080   2.975 -1.5914  1.1810 -0.2600
 1030TIP3   OH224504   5.350   4.923  16.454 -0.3146  0.6300  0.3705
 1030TIP3    H124505   5.399   4.844  16.428 -1.5211  0.1101 -0.4107
 1030TIP3    H224506   5.324   4.963  16.372 -2.6374 -0.0432  0.7027
 1031TIP3   OH224507   2.795   0.637   3.324 -0.2466 -0.4824  0.1413
 1031TIP3    H124508   2.815   0.643   3.230  0.2145 -1.7852  0.1310
 1031TIP3    H224509   2.849   0.705   3.364 -0.5466  0.1746 -0.5562
 1032TIP3   OH224510   2.813   4.421   5.073  0.5161  0.0232  0.5083
 1032TIP3    H124511   2.803   4.473   4.994 -0.3300 -0.6113  0.1807
 1032TIP3    H224512   2.827   4.331   5.041 -1.4612 -0.5274  1.0564
 1033TIP3   OH224513   5.609   2.783   0.745  0.4871  0.4879 -0.4516
 1033TIP3    H124514   5.631   2.698   0.783 -0.0254 -0.1471 -1.5378
 1033TIP3    H224515   5.546   2.821   0.806  1.1732  0.3598  0.3483
 1034TIP3   OH224516   5.525   3.915  10.916 -0.0593  0.3477  0.0550
 1034TIP3    H124517   5.473   3.919  10.836  0.5909  1.7052 -0.3362
 1034TIP3    H224518   5.525   4.005  10.949  1.0190  0.1254  0.7045
 1035TIP3   OH224519   5.019   4.530  16.359  0.3308 -0.3509  0.1914
 1035TIP3    H124520   4.930   4.561  16.374  0.5830 -0.1791  1.5249
 1035TIP3    H224521   5.011   4.464  16.291 -0.8849 -0.7108  0.6581
 1036TIP3   OH224522   6.610   6.225   4.571  0.0227  0.1138 -0.5828
 1036TIP3    H124523   6.598   6.259   4.659  1.3864 -0.5282 -0.1194
 1036TIP3    H224524   6.551   6.150   4.566 -0.3099  0.3532 -0.3524
 1037TIP3   OH224525   5.720   1.701   0.264 -0.4058  0.5781  0.0118
 1037TIP3    H124526   5.813   1.723   0.259 -0.5669  1.0564 -1.1281
 1037TIP3    H224527   5.711   1.622   0.211 -0.3541 -0.5899  1.6492
 1038TIP3   OH224528   5.461   4.745  16.239 -0.1760 -0.4533 -0.5943
 1038TIP3    H124529   5.426   4.793  16.164 -0.5604 -1.0707 -0.8138
 1038TIP3    H224530   5.555   4.761  16.235 -0.3046  0.3154 -0.6376
 1039TIP3   OH224531   6.228   4.003  17.208 -0.5058 -0.3302  0.2513
 1039TIP3    H124532   6.165   3.930  17.204  1.3077 -1.9693  0.0804
 1039TIP3    H224533   6.194   4.060  17.277 -1.6610 -1.6743  0.8607
 1040TIP3   OH224534   3.261   0.625   3.432 -0.3038  0.2708  0.3238
 1040TIP3    H124535   3.180   0.669   3.458 -0.3973  0.4466 -0.2541
 1040TIP3    H224536   3.293   0.676   3.358  1.2823  1.2648  1.6251
 1041TIP3   OH224537   6.497   6.520   2.608 -0.3143  0.2393  0.0163
 1041TIP3    H124538   6.506   6.430   2.575 -0.3356  1.0069 -2.1875
 1041TIP3    H224539   6.404   6.539   2.600 -0.3067  0.4801  0.4817
 1042TIP3   OH224540   1.591   3.452  15.887 -0.2411  0.0640 -0.2465
 1042TIP3    H124541   1.506   3.408  15.889 -0.3478  0.2831  0.6542
 1042TIP3    H224542   1.571   3.544  15.870 -0.1199 -0.0099 -0.8070
 1043TIP3   OH224543   4.541   1.311  13.072  0.3060 -0.0870 -0.5030
 1043TIP3    H124544   4.592   1.288  13.150  0.4812 -0.0322 -0.6018
 1043TIP3    H224545   4.451   1.314  13.103  0.2319 -1.2693 -0.5654
 1044TIP3   OH224546   0.404   5.757   2.579  0.0304 -0.5706 -0.3598
 1044TIP3    H124547   0.347   5.733   2.652 -1.2848  1.1133 -0.7532
 1044TIP3    H224548   0.412   5.677   2.527 -0.8437 -1.2093  0.4437
 1045TIP3   OH224549   5.388   4.782  12.315 -0.4278  0.1776  0.0469
 1045TIP3    H124550   5.338   4.751  12.391  0.3884  0.3326  0.6716
 1045TIP3    H224551   5.480   4.768  12.340 -0.1554 -0.2027 -1.1137
 1046TIP3   OH224552   2.566   4.203  15.211  0.3280 -0.5801  0.0792
 1046TIP3    H124553   2.535   4.250  15.288  1.8154 -0.2865  0.5108
 1046TIP3    H224554   2.661   4.213  15.212  0.3538  0.0541 -2.1961
 1047TIP3   OH224555   5.256   5.030  16.204  0.0312 -0.1011 -0.2054
 1047TIP3    H124556   5.273   5.111  16.252 -0.0207 -0.6687  0.7967
 1047TIP3    H224557   5.321   5.029  16.134 -1.2043  1.7471 -1.4434
 1048TIP3   OH224558   2.344   5.375  13.350  0.4004  0.8166 -0.3690
 1048TIP3    H124559   2.369   5.298  13.400  1.6751  1.8313  0.6312
 1048TIP3    H224560   2.249   5.366  13.339  0.3914 -0.4493  0.4711
 1049TIP3   OH224561   2.156   1.870  16.677  0.0877  0.3945  0.5259
 1049TIP3    H124562   2.146   1.791  16.730  0.4888  0.7483  1.1488
 1049TIP3    H224563   2.089   1.862  16.609  0.0879 -0.4482  0.6120
 1050TIP3   OH224564   5.157   5.909   1.745 -0.1422 -0.0535  0.1586
 1050TIP3    H124565   5.064   5.925   1.725  0.0521 -0.6526 -1.3033
 1050TIP3    H224566   5.171   5.818   1.722  0.9717  0.2107 -0.2293
 1051TIP3   OH224567   5.841   1.700  10.566 -0.8184 -0.0513  0.3229
 1051TIP3    H124568   5.844   1.701  10.662 -0.4639  0.0243  0.3130
 1051TIP3    H224569   5.864   1.789  10.540 -1.8337  0.1885  0.1827
 1052TIP3   OH224570   5.996   0.384  15.912 -0.0351 -0.2545 -0.0985
 1052TIP3    H124571   5.961   0.469  15.887  0.5033 -0.1548 -0.5521
 1052TIP3    H224572   6.042   0.399  15.995  2.5759  0.5928 -1.5795
 1053TIP3   OH224573   6.583   1.217   2.750 -0.0572  0.4980  0.3490
 1053TIP3    H124574   6.637   1.284   2.709 -0.3078  0.6401  0.2477
 1053TIP3    H224575   6.512   1.201   2.687  0.5513 -0.5922 -0.0886
 1054TIP3   OH224576   2.567   6.605  16.811 -0.0140 -0.1697 -0.1995
 1054TIP3    H124577   2.561   6.517  16.848 -2.3558  0.2650  0.6225
 1054TIP3    H224578   2.535   6.595  16.721  2.0191 -0.5447 -0.9178
 1055TIP3   OH224579   1.056   6.628   5.028  0.0678  0.0031  0.5217
 1055TIP3    H124580   0.995   6.668   5.089  1.4399  1.0395  1.2495
 1055TIP3    H224581   1.085   6.700   4.971 -1.8006 -1.0605 -1.9840
 1056TIP3   OH224582   2.273   6.507   0.548 -0.0626 -0.1846 -0.1270
 1056TIP3    H124583   2.315   6.426   0.519 -1.2226 -0.6082 -0.6727
 1056TIP3    H224584   2.295   6.570   0.479 -0.2941 -0.4009 -0.4046
 1057TIP3   OH224585   6.421   5.121  13.682  0.2218 -0.5821 -0.7620
 1057TIP3    H124586   6.372   5.148  13.760 -0.3514  0.6882 -1.5340
 1057TIP3    H224587   6.476   5.196  13.660  0.7420 -1.1090 -1.3003
 1058TIP3   OH224588   2.102   2.103  15.708  0.4837  0.3357 -0.2020
 1058TIP3    H124589   2.164   2.168  15.673  0.4491  2.7105  3.6407
 1058TIP3    H224590   2.020   2.150  15.716  0.0063 -0.6662  1.1437
 1059TIP3   OH224591   0.244   6.600   2.705  0.0938  0.0918 -0.7936
 1059TIP3    H124592   0.159   6.595   2.660 -0.9428  1.6946  0.8418
 1059TIP3    H224593   0.254   6.693   2.724  0.7482 -0.4468  1.7604
 1060TIP3   OH224594   3.523   6.414   1.730  0.1835 -0.1406 -0.5493
 1060TIP3    H124595   3.436   6.452   1.724  0.3478  0.1864 -0.8635
 1060TIP3    H224596   3.509   6.320   1.715 -0.2302 -0.2261  0.3067
 1061TIP3   OH224597   2.611   0.117  16.018  0.1620 -0.8092 -0.1825
 1061TIP3    H124598   2.605   0.036  16.069 -0.3947 -1.9120 -1.9137
 1061TIP3    H224599   2.641   0.183  16.081  0.7104 -2.3613  1.2550
 1062TIP3   OH224600   5.060   6.152   1.249 -0.0189 -0.4962  0.4653
 1062TIP3    H124601   5.059   6.062   1.279  1.2847 -1.2496 -1.5121
 1062TIP3    H224602   5.136   6.191   1.293  0.9381 -1.1386 -0.5445
 1063TIP3   OH224603   1.856   5.077  12.236 -0.3413 -0.2756 -0.1916
 1063TIP3    H124604   1.912   5.002  12.218 -1.7849 -1.2483 -0.7404
 1063TIP3    H224605   1.813   5.096  12.153 -2.4690 -0.9435  0.7025
 1064TIP3   OH224606   4.214   4.217  15.599 -0.3822  0.2402  0.2191
 1064TIP3    H124607   4.307   4.225  15.578  0.2921 -2.0136  1.9787
 1064TIP3    H224608   4.194   4.293  15.654  1.3232 -0.8844  2.5340
 1065TIP3   OH224609   2.385   3.969   4.371  0.2358 -0.3190 -0.1005
 1065TIP3    H124610   2.429   3.982   4.455  0.6179 -2.0021 -0.0098
 1065TIP3    H224611   2.452   3.929   4.315 -0.4183 -0.5077 -0.7632
 1066TIP3   OH224612   5.387   2.231   1.010 -0.2223  0.2753 -0.1181
 1066TIP3    H124613   5.459   2.260   0.955  0.3030 -1.4947 -0.4104
 1066TIP3    H224614   5.314   2.219   0.949  0.2483 -1.3042 -0.3976
 1067TIP3   OH224615   1.426   2.490   5.656  0.0193  0.4232 -0.2498
 1067TIP3    H124616   1.370   2.433   5.709 -0.2890  1.5881  0.7336
 1067TIP3    H224617   1.367   2.560   5.626  0.5318  0.6056 -0.8554
 1068TIP3   OH224618   5.790   4.351   4.598  0.2111 -0.1668 -0.1480
 1068TIP3    H124619   5.860   4.313   4.651 -0.2437  1.2476  1.5381
 1068TIP3    H224620   5.729   4.278   4.583  1.4916 -1.1604 -0.7639
 1069TIP3   OH224621   3.295   5.804  16.726  0.0327  0.9316 -0.1558
 1069TIP3    H124622   3.281   5.832  16.816  1.4423  1.2662 -0.0132
 1069TIP3    H224623   3.355   5.730  16.734  0.5686  1.2833 -0.8345
 1070TIP3   OH224624   4.553   3.990   0.307  0.2902 -0.4126  1.2481
 1070TIP3    H124625   4.583   3.988   0.216 -0.5322 -1.1814  0.9817
 1070TIP3    H224626   4.459   4.006   0.301  0.3409  0.2178  1.9985
 1071TIP3   OH224627   2.589   3.156  16.827 -0.1423 -0.2836  0.0181
 1071TIP3    H124628   2.600   3.143  16.733 -0.0085  0.5881 -0.0893
 1071TIP3    H224629   2.533   3.083  16.855 -0.6237 -0.2446 -0.8298
 1072TIP3   OH224630   5.448   3.132   2.569  0.3260  0.0020  0.1504
 1072TIP3    H124631   5.523   3.111   2.514 -1.3857 -2.5203 -1.4678
 1072TIP3    H224632   5.434   3.226   2.556  0.1227 -0.4046 -3.7630
 1073TIP3   OH224633   4.172   1.703  15.404  0.0960 -0.0179  0.3719
 1073TIP3    H124634   4.251   1.689  15.457  1.0679 -0.8415 -1.2167
 1073TIP3    H224635   4.194   1.777  15.347 -0.2348 -0.2979 -0.1309
 1074TIP3   OH224636   6.165   3.692  14.939  0.3383 -0.1575  0.6831
 1074TIP3    H124637   6.250   3.681  14.981  0.5239  1.0342  0.6509
 1074TIP3    H224638   6.169   3.779  14.898 -1.2079  0.3076  1.4389
 1075TIP3   OH224639   1.850   2.311   3.791 -0.0412  0.0650 -0.3114
 1075TIP3    H124640   1.779   2.310   3.856  1.4283  0.7221  1.3938
 1075TIP3    H224641   1.864   2.404   3.772  0.4323 -0.0476 -0.5347
 1076TIP3   OH224642   3.025   1.575   2.813  0.1333 -0.3939  0.6127
 1076TIP3    H124643   3.027   1.670   2.802  0.1215 -0.4479  0.1175
 1076TIP3    H224644   3.052   1.560   2.904 -0.3629  0.1072  0.8447
 1077TIP3   OH224645   3.468   6.296  16.625  0.3807  0.6530  0.3962
 1077TIP3    H124646   3.415   6.350  16.684 -2.6646 -0.5138 -1.1099
 1077TIP3    H224647   3.416   6.218  16.610  0.6322  1.1192 -4.2819
 1078TIP3   OH224648   0.607   1.860   3.805 -0.4090  0.5006  0.6869
 1078TIP3    H124649   0.682   1.799   3.803  0.3082  1.2692  2.2431
 1078TIP3    H224650   0.641   1.941   3.769 -1.7406 -0.2658 -2.7103
 1079TIP3   OH224651   2.200   5.776   2.427 -0.4898 -0.4332 -1.0561
 1079TIP3    H124652   2.230   5.809   2.511  1.4208 -0.7905 -1.5528
 1079TIP3    H224653   2.147   5.847   2.390 -1.3299 -0.2701  0.3930
 1080TIP3   OH224654   1.652   4.020  15.488 -0.2998  0.3453  0.1661
 1080TIP3    H124655   1.680   3.936  15.454 -1.0131 -0.3737  1.2952
 1080TIP3    H224656   1.731   4.060  15.524  0.1486  0.4216 -0.8869
 1081TIP3   OH224657   5.285   3.747   5.444  0.2207  0.0666 -0.3447
 1081TIP3    H124658   5.212   3.745   5.382 -0.1912  0.0614  0.1353
 1081TIP3    H224659   5.244   3.741   5.530  0.8239 -0.5190 -0.0881
 1082TIP3   OH224660   6.396   6.538  11.466 -0.1262 -0.5675 -0.3749
 1082TIP3    H124661   6.407   6.485  11.388 -2.1195  0.3709 -1.3629
 1082TIP3    H224662   6.438   6.621  11.445 -0.3822 -0.4230 -0.3143
 1083TIP3   OH224663   2.288   5.076   4.691 -0.5476  0.1492  0.5998
 1083TIP3    H124664   2.234   5.006   4.727  0.1182 -0.3402  0.6616
 1083TIP3    H224665   2.244   5.157   4.719 -1.4375 -0.2364  0.3437
 1084TIP3   OH224666   1.138   1.574   5.339 -0.2832 -0.3817 -0.0814
 1084TIP3    H124667   1.136   1.487   5.379 -0.2630 -0.4619 -0.2532
 1084TIP3    H224668   1.229   1.601   5.346 -0.5562  0.2477  1.2934
 1085TIP3   OH224669   0.324   0.744  15.509  0.5377 -0.5563  0.2557
 1085TIP3    H124670   0.270   0.775  15.581  1.6142 -0.7674  1.1839
 1085TIP3    H224671   0.319   0.649  15.513 -0.7220 -0.5640 -1.0014
 1086TIP3   OH224672   0.883   0.830  12.960  0.3366  0.0108 -0.5738
 1086TIP3    H124673   0.817   0.762  12.946 -0.9664  1.4313 -1.7096
 1086TIP3    H224674   0.892   0.835  13.055 -0.7135 -0.6669 -0.4211
 1087TIP3   OH224675   3.282   4.307   5.219  0.4064 -0.3963 -0.1835
 1087TIP3    H124676   3.211   4.353   5.263 -0.6511 -2.1278  0.0442
 1087TIP3    H224677   3.243   4.275   5.138  1.0286 -1.0507 -0.2362
 1088TIP3   OH224678   0.109   4.321  12.267  0.1559 -0.2286  0.0161
 1088TIP3    H124679   0.020   4.303  12.236  0.2567 -2.9790  1.0506
 1088TIP3    H224680   0.126   4.253  12.332  2.0247  1.8882  1.9539
 1089TIP3   OH224681   5.333   6.268   2.180  0.4533 -0.4050 -0.4970
 1089TIP3    H124682   5.349   6.257   2.086 -0.2169  0.5376 -0.7318
 1089TIP3    H224683   5.243   6.238   2.193  0.1070  0.6482 -0.3925
 1090TIP3   OH224684   6.060   6.244   1.588  0.1956  0.1647 -0.1952
 1090TIP3    H124685   6.018   6.313   1.639 -0.9946 -0.3312 -0.4784
 1090TIP3    H224686   5.998   6.225   1.518  1.4740  0.3040 -1.4043
 1091TIP3   OH224687   4.373   1.304  12.493 -0.0564 -0.2769  0.1979
 1091TIP3    H124688   4.402   1.265  12.411  3.0206  1.6023  0.2526
 1091TIP3    H224689   4.421   1.258  12.561 -3.0575 -2.2755  1.1815
 1092TIP3   OH224690   0.600   0.790  11.769  0.6623  0.5437 -0.2963
 1092TIP3    H124691   0.690   0.818  11.785  0.2545  1.8576 -0.1729
 1092TIP3    H224692   0.596   0.773  11.675  1.1726 -0.0825 -0.2118
 1093TIP3   OH224693   5.898   1.090   3.694  0.0509  0.1493 -0.0109
 1093TIP3    H124694   5.974   1.036   3.716  0.3383  0.4638 -0.2170
 1093TIP3    H224695   5.838   1.078   3.768 -0.4243 -1.4021 -0.6006
 1094TIP3   OH224696   5.599   1.366  15.603  0.5835  0.1806  0.4991
 1094TIP3    H124697   5.615   1.422  15.527 -0.3602  0.0356  0.1849
 1094TIP3    H224698   5.686   1.338  15.631  1.0816  1.8968  0.7452
 1095TIP3   OH224699   6.140   5.924   0.473 -0.4546  0.3048 -0.0067
 1095TIP3    H124700   6.046   5.924   0.489 -0.7133  1.0473 -1.3387
 1095TIP3    H224701   6.148   5.954   0.383  1.0083 -0.8075 -0.2837
 1096TIP3   OH224702   3.314   2.547  16.597 -0.7738 -0.1414  0.0550
 1096TIP3    H124703   3.285   2.638  16.605 -0.0153  0.0312  1.1429
 1096TIP3    H224704   3.390   2.551  16.539 -1.4681 -0.2555 -0.8657
 1097TIP3   OH224705   4.049   5.371   3.064  0.3965 -0.3469 -0.4454
 1097TIP3    H124706   4.005   5.454   3.083 -1.1160 -1.4957  1.4655
 1097TIP3    H224707   4.066   5.374   2.970  0.3701  2.0927 -0.4413
 1098TIP3   OH224708   6.290   1.420  13.439 -0.4329 -0.2919 -0.0936
 1098TIP3    H124709   6.327   1.432  13.352 -0.4616 -1.2630 -0.2445
 1098TIP3    H224710   6.221   1.485  13.445  0.4649  0.7083 -0.2779
 1099TIP3   OH224711   3.919   2.145   6.211  0.1447 -0.5397 -0.1456
 1099TIP3    H124712   4.001   2.133   6.260  1.1389 -0.4820 -1.7488
 1099TIP3    H224713   3.936   2.220   6.155 -0.6592 -1.1507 -1.2237
 1100TIP3   OH224714   5.258   2.771  11.944  0.1731 -0.5404  0.0269
 1100TIP3    H124715   5.221   2.852  11.910  0.5304  0.4354  1.8284
 1100TIP3    H224716   5.352   2.778  11.927  0.1599 -0.7912 -0.1750
 1101TIP3   OH224717   0.957   6.726  14.226 -0.0491 -0.3778  0.2467
 1101TIP3    H124718   1.026   6.694  14.284  0.2276  0.7975  0.5814
 1101TIP3    H224719   0.982   6.816  14.205 -0.3455 -0.6448 -1.3933
 1102TIP3   OH224720   0.186   6.508   2.251  0.4472 -0.0952 -0.2774
 1102TIP3    H124721   0.251   6.470   2.309  1.9500  0.8544 -1.2750
 1102TIP3    H224722   0.218   6.596   2.233 -0.0556 -0.2830 -2.3568
 1103TIP3   OH224723   1.220   2.719   2.021 -0.2128  0.3210 -0.8848
 1103TIP3    H124724   1.232   2.798   1.968  0.4073  0.1071 -1.0761
 1103TIP3    H224725   1.308   2.699   2.054 -0.7503  1.0782  1.1536
 1104TIP3   OH224726   3.655   2.675   5.500  0.0317 -0.0041  0.0064
 1104TIP3    H124727   3.710   2.754   5.497 -0.5622  0.3807 -1.5388
 1104TIP3    H224728   3.568   2.707   5.521 -0.2723 -0.1906 -0.9114
 1105TIP3   OH224729   2.368   2.732  15.786  0.0438 -0.1500  0.2361
 1105TIP3    H124730   2.338   2.779  15.709  1.5494  0.2209 -0.1509
 1105TIP3    H224731   2.407   2.652  15.752 -1.4310 -1.1567  0.8118
 1106TIP3   OH224732   6.093   5.952  15.769  0.0942  0.5461 -0.3204
 1106TIP3    H124733   6.059   5.998  15.845  1.0457  1.6001 -0.5087
 1106TIP3    H224734   6.186   5.939  15.788  0.0835 -0.2642 -0.7791
 1107TIP3   OH224735   2.565   0.938   1.945  0.0128  0.4367 -0.5907
 1107TIP3    H124736   2.579   1.030   1.966  0.9084  0.0650  0.6004
 1107TIP3    H224737   2.639   0.916   1.887  0.1002  0.3415 -0.4438
 1108TIP3   OH224738   5.236   3.151  15.824  0.5010  0.3790  0.1700
 1108TIP3    H124739   5.149   3.182  15.796  0.2202 -0.0079  0.5953
 1108TIP3    H224740   5.289   3.156  15.745 -0.8693 -2.8832 -1.1348
 1109TIP3   OH224741   3.190   2.215   2.648  0.4275  0.3504  0.1008
 1109TIP3    H124742   3.259   2.150   2.645 -0.6748 -0.8664  0.1759
 1109TIP3    H224743   3.228   2.293   2.607  1.1687 -0.9188 -1.7227
 1110TIP3   OH224744   0.558   4.164   3.944  0.3421  0.1375  0.0019
 1110TIP3    H124745   0.464   4.146   3.937  0.6574 -1.7953  0.2868
 1110TIP3    H224746   0.562   4.248   3.990 -1.2615 -0.7273  1.8862
 1111TIP3   OH224747   5.078   3.185   4.647 -0.0931  0.2120 -0.2719
 1111TIP3    H124748   5.037   3.220   4.725  1.1862 -1.0012  1.0034
 1111TIP3    H224749   5.151   3.245   4.629 -0.3556  0.4611 -0.5195
 1112TIP3   OH224750   2.355   4.119  12.593  0.1143  0.4172 -0.2067
 1112TIP3    H124751   2.337   4.212  12.602  0.5679  0.5511 -0.6375
 1112TIP3    H224752   2.449   4.111  12.606 -0.1271 -0.1964  1.4654
 1113TIP3   OH224753   3.999   3.660   1.094 -0.0497 -0.0883  0.2285
 1113TIP3    H124754   4.093   3.644   1.088 -0.3369 -1.6505 -0.4620
 1113TIP3    H224755   3.960   3.573   1.100 -1.5093  0.5038 -0.2384
 1114TIP3   OH224756   1.365   4.620   3.583  0.0975 -0.1620  0.2358
 1114TIP3    H124757   1.298   4.688   3.582 -0.4210 -0.6693  0.0047
 1114TIP3    H224758   1.328   4.548   3.532  1.8861  0.5629 -2.3193
 1115TIP3   OH224759   3.207   5.043  11.950 -0.0263 -0.2737 -0.2547
 1115TIP3    H124760   3.180   5.082  11.867 -0.4321 -2.3143 -1.1382
 1115TIP3    H224761   3.299   5.065  11.959 -0.4845  1.7561 -0.1663
 1116TIP3   OH224762   5.239   2.541   4.144  0.1067 -0.1166 -0.2148
 1116TIP3    H124763   5.278   2.590   4.216  0.0619 -1.0861  0.4828
 1116TIP3    H224764   5.219   2.608   4.078  3.3067  0.4215 -0.8128
 1117TIP3   OH224765   5.985   3.074   0.935  0.5234  0.3374  0.3350
 1117TIP3    H124766   5.941   3.075   0.849  0.9673  0.7242  0.1098
 1117TIP3    H224767   5.966   2.986   0.970  1.4152 -0.3091 -0.7217
 1118TIP3   OH224768   3.631   3.682   6.867 -0.1412  0.3545  0.4373
 1118TIP3    H124769   3.622   3.590   6.842  0.3556  0.4466 -0.0880
 1118TIP3    H224770   3.724   3.700   6.860 -0.1932  0.8065  0.8816
 1119TIP3   OH224771   3.920   4.753  12.992 -0.1824 -0.4815 -1.1158
 1119TIP3    H124772   4.004   4.798  12.980 -0.3438 -0.7713 -4.0663
 1119TIP3    H224773   3.855   4.823  12.990 -0.1181 -0.2676  1.0789
 1120TIP3   OH224774   3.680   3.404  17.219 -0.2657  0.1845  0.1456
 1120TIP3    H124775   3.747   3.353  17.172 -0.7860 -2.1755  1.7758
 1120TIP3    H224776   3.730   3.457  17.281  0.2248  0.8795 -0.8040
 1121TIP3   OH224777   6.310   6.051  15.130  0.5196 -0.0026  0.6987
 1121TIP3    H124778   6.329   6.132  15.180  2.0476  0.1723 -0.0908
 1121TIP3    H224779   6.216   6.055  15.113  0.5697  1.6760  0.5975
 1122TIP3   OH224780   4.980   0.880   6.565 -0.4997 -0.2302  0.5070
 1122TIP3    H124781   5.020   0.954   6.520  1.8028 -2.2265 -0.9609
 1122TIP3    H224782   4.895   0.869   6.522  0.7742 -0.7763 -2.0973
 1123TIP3   OH224783   0.107   3.479  11.602  0.7310 -0.2619 -0.5164
 1123TIP3    H124784   0.112   3.543  11.673 -0.3204 -0.6817 -0.0325
 1123TIP3    H224785   0.028   3.428  11.622 -0.7209  0.8457 -3.0001
 1124TIP3   OH224786   5.371   3.760   2.393 -0.2835  0.6262 -0.0878
 1124TIP3    H124787   5.309   3.831   2.379 -0.5545  0.3075 -0.5525
 1124TIP3    H224788   5.347   3.724   2.479 -2.5341 -1.2094 -1.3781
 1125TIP3   OH224789   1.966   4.652   0.330 -0.0622  0.0673 -0.2509
 1125TIP3    H124790   2.033   4.584   0.328  1.5319  1.5266  0.8837
 1125TIP3    H224791   1.975   4.692   0.417 -0.7648  1.8847 -0.9693
 1126TIP3   OH224792   1.534   4.848  17.075  0.3299 -0.1976 -0.3305
 1126TIP3    H124793   1.519   4.878  16.985  1.0287  0.8531 -0.1199
 1126TIP3    H224794   1.490   4.914  17.129  0.9903 -0.1176  0.1202
 1127TIP3   OH224795   0.598   4.657   0.236 -0.3056  0.4494  0.2731
 1127TIP3    H124796   0.535   4.586   0.222 -2.2071  2.0288  0.4596
 1127TIP3    H224797   0.630   4.642   0.325 -0.2344 -0.4784  0.1098
 1128TIP3   OH224798   5.395   3.693  15.445  0.4099 -0.4995 -0.1297
 1128TIP3    H124799   5.467   3.682  15.382  0.6385 -0.0576  0.0452
 1128TIP3    H224800   5.384   3.607  15.485  0.4710 -0.7056 -0.5534
 1129TIP3   OH224801   5.815   3.198   5.857 -0.0013 -0.2470  0.0357
 1129TIP3    H124802   5.721   3.203   5.839 -0.0667 -0.8047  0.2065
 1129TIP3    H224803   5.848   3.284   5.833 -0.7998  0.4758  1.4107
 1130TIP3   OH224804   1.991   1.159   5.082  0.3097  0.3194 -0.1240
 1130TIP3    H124805   1.897   1.145   5.081  0.2404  0.8063 -0.6818
 1130TIP3    H224806   2.025   1.088   5.137 -0.5425  1.2715  1.7211
 1131TIP3   OH224807   0.271   3.208  11.991 -0.1532 -0.0797 -0.0534
 1131TIP3    H124808   0.333   3.252  11.933 -0.3246 -0.3767 -0.4739
 1131TIP3    H224809   0.308   3.217  12.078 -0.7289  1.8736  0.0389
 1132TIP3   OH224810   4.768   4.633  17.349 -0.6423 -0.1369  0.0920
 1132TIP3    H124811   4.832   4.679  17.404 -0.7448  1.0713 -0.7685
 1132TIP3    H224812   4.821   4.588  17.283 -0.5817 -0.7373  0.5410
 1133TIP3   OH224813   3.303   2.043   4.241 -0.3603  0.2308  0.3813
 1133TIP3    H124814   3.359   2.111   4.204  0.4572 -0.1159  0.9716
 1133TIP3    H224815   3.271   2.080   4.323 -1.1821  0.5074 -0.0456
 1134TIP3   OH224816   3.197   2.968   0.364 -0.7686 -0.3746  0.1579
 1134TIP3    H124817   3.145   2.931   0.293 -1.8633  1.3037  0.0164
 1134TIP3    H224818   3.206   3.061   0.342  1.5392 -0.4213  0.6699
 1135TIP3   OH224819   3.951   0.276   1.638 -0.4430  0.1379 -0.3480
 1135TIP3    H124820   3.883   0.342   1.627 -1.1169 -0.5670 -0.4944
 1135TIP3    H224821   4.026   0.325   1.673 -1.2025  0.8320  0.3686
 1136TIP3   OH224822   4.260   0.648   1.331 -0.4406 -0.3136  0.3261
 1136TIP3    H124823   4.216   0.695   1.260 -0.3673 -1.1527 -0.2964
 1136TIP3    H224824   4.348   0.685   1.333 -0.8880  0.7363  0.9692
 1137TIP3   OH224825   2.741   3.925  17.116  0.3132 -0.1494 -0.4041
 1137TIP3    H124826   2.776   3.997  17.169 -0.0872 -0.1174 -0.1700
 1137TIP3    H224827   2.679   3.881  17.175  1.2727 -1.2939 -0.2119
 1138TIP3   OH224828   0.530   3.953  15.960 -0.4170  0.9852  0.0782
 1138TIP3    H124829   0.550   3.867  15.923 -1.3032  1.2745 -1.1699
 1138TIP3    H224830   0.438   3.948  15.985 -0.1926  1.2466  0.9919
 1139TIP3   OH224831   5.546   1.753  17.122 -0.1485 -0.3403 -1.4588
 1139TIP3    H124832   5.527   1.847  17.120  0.0630 -0.1892  1.0517
 1139TIP3    H224833   5.641   1.747  17.112  0.0222 -0.1506 -0.1266
 1140TIP3   OH224834   1.837   1.286   4.612  0.3952  0.1622 -0.2513
 1140TIP3    H124835   1.924   1.263   4.579  0.1174 -0.7882 -0.3315
 1140TIP3    H224836   1.822   1.227   4.685 -0.0994  0.4652 -0.1047
 1141TIP3   OH224837   6.111   4.044   3.535 -0.3200 -0.1884 -0.4908
 1141TIP3    H124838   6.114   3.970   3.474 -2.2470 -0.7615  0.0392
 1141TIP3    H224839   6.093   4.003   3.620  0.1479  0.7803  0.0850
 1142TIP3   OH224840   1.899   4.350  11.720  0.1109 -0.2084 -0.3535
 1142TIP3    H124841   1.840   4.413  11.677  1.9491  0.8150 -1.5161
 1142TIP3    H224842   1.946   4.308  11.648 -1.2519 -3.2453  0.3728
 1143TIP3   OH224843   5.713   0.684   2.219  0.0835  0.1242 -0.3755
 1143TIP3    H124844   5.803   0.664   2.192  0.1320  0.0873 -0.1914
 1143TIP3    H224845   5.719   0.694   2.314 -0.2663 -0.7326 -0.2523
 1144TIP3   OH224846   0.323   0.968  16.130 -0.1340 -0.0682  0.5795
 1144TIP3    H124847   0.339   0.903  16.062 -1.2035 -1.6844  1.7688
 1144TIP3    H224848   0.350   0.924  16.211  1.0194  1.7595  1.2393
 1145TIP3   OH224849   4.347   5.582  16.887 -0.4090  0.1849  0.2199
 1145TIP3    H124850   4.343   5.636  16.808  1.2210 -0.5323 -0.4010
 1145TIP3    H224851   4.270   5.525  16.881  0.3696 -0.7603 -1.5816
 1146TIP3   OH224852   5.204   0.970   3.396 -0.1986 -0.4562  0.3209
 1146TIP3    H124853   5.163   0.995   3.479 -3.1048  0.1464 -1.1823
 1146TIP3    H224854   5.149   0.899   3.363 -1.1420  1.4338 -2.5403
 1147TIP3   OH224855   6.572   3.313   3.159  0.4243 -0.3038  0.5501
 1147TIP3    H124856   6.534   3.398   3.181  0.8055 -0.1749  0.7193
 1147TIP3    H224857   6.549   3.299   3.067  1.6901  0.7046  0.0474
 1148TIP3   OH224858   3.661   1.134   3.019 -0.1371 -0.1916  0.1221
 1148TIP3    H124859   3.743   1.112   3.063  0.3184 -0.3120 -0.7662
 1148TIP3    H224860   3.683   1.208   2.963 -1.2461  1.4939  1.7895
 1149TIP3   OH224861   0.636   4.343  12.239 -0.1247 -0.1541  0.2155
 1149TIP3    H124862   0.729   4.335  12.216 -0.4832  0.5150 -1.6949
 1149TIP3    H224863   0.628   4.431  12.275  0.0518 -0.4057  0.8936
 1150TIP3   OH224864   3.864   3.604  16.417 -0.0435  0.1909 -0.8658
 1150TIP3    H124865   3.812   3.669  16.369  1.7922  1.2911 -1.4468
 1150TIP3    H224866   3.804   3.570  16.483 -1.2070  2.1683 -0.8272
 1151TIP3   OH224867   4.197   3.933  16.332 -0.0581 -0.0469  0.6252
 1151TIP3    H124868   4.137   3.863  16.305 -0.4787 -0.5530  2.7007
 1151TIP3    H224869   4.173   4.007  16.277 -1.4243 -0.7506  0.2226
 1152TIP3   OH224870   0.500   5.066  16.188  0.0747 -0.4963 -0.5957
 1152TIP3    H124871   0.507   4.985  16.238 -0.4166 -0.2895 -0.1913
 1152TIP3    H224872   0.449   5.043  16.111 -1.2732 -0.2650  0.2006
 1153TIP3   OH224873   2.670   1.924   1.481 -0.6637  0.0914 -0.4792
 1153TIP3    H124874   2.692   1.832   1.493 -0.0441  0.4225  1.2086
 1153TIP3    H224875   2.749   1.963   1.445 -1.4597 -0.2852 -2.8403
 1154TIP3   OH224876   1.563   5.919  15.334 -0.2133  0.7026 -0.3589
 1154TIP3    H124877   1.580   5.825  15.333  0.2567  0.7848 -0.5145
 1154TIP3    H224878   1.589   5.949  15.247 -2.4516  0.6351 -1.1014
 1155TIP3   OH224879   3.163   2.216   2.295 -0.2670 -0.0768 -0.4360
 1155TIP3    H124880   3.087   2.242   2.242  0.5386  0.2936 -1.4525
 1155TIP3    H224881   3.185   2.293   2.346  0.0679  0.1657 -0.9392
 1156TIP3   OH224882   0.328   6.100   4.673  0.0021 -0.8316  0.0443
 1156TIP3    H124883   0.258   6.116   4.736 -1.0308 -1.9918 -0.7793
 1156TIP3    H224884   0.292   6.130   4.589  1.7860  1.8447  0.0893
 1157TIP3   OH224885   4.033   6.254   0.284  0.7007 -0.1195 -0.3927
 1157TIP3    H124886   4.055   6.222   0.196  1.8281  1.1310 -0.5915
 1157TIP3    H224887   4.116   6.256   0.330  0.1669 -0.3984  0.6002
 1158TIP3   OH224888   3.051   4.299   2.465  0.3263  0.8142 -0.5274
 1158TIP3    H124889   3.146   4.292   2.456  0.4074  0.0317  0.7578
 1158TIP3    H224890   3.034   4.393   2.475  1.0641  0.8723  0.2161
 1159TIP3   OH224891   2.020   2.355  13.618 -0.0469 -0.0617 -0.3015
 1159TIP3    H124892   2.035   2.260  13.621 -1.3817 -0.2821  2.0796
 1159TIP3    H224893   2.020   2.382  13.710  0.2437  2.2808 -0.9184
 1160TIP3   OH224894   4.442   0.775  13.811 -0.2208  0.0805  0.2720
 1160TIP3    H124895   4.507   0.706  13.800 -0.0684  0.3114 -0.2881
 1160TIP3    H224896   4.359   0.728  13.820  0.1499 -0.2682  2.1838
 1161TIP3   OH224897   6.399   3.622   0.703  0.0586  0.1701 -0.0599
 1161TIP3    H124898   6.327   3.566   0.731 -0.0624 -0.1093 -0.9105
 1161TIP3    H224899   6.362   3.678   0.635  0.5635  0.2529 -0.2744
 1162TIP3   OH224900   2.950   4.150  16.675 -0.3278  0.3557 -0.1878
 1162TIP3    H124901   2.873   4.095  16.660  0.5633 -0.5455 -1.6672
 1162TIP3    H224902   2.981   4.125  16.762  0.2946 -1.8599 -0.9812
 1163TIP3   OH224903   5.186   1.959  11.914 -0.1522  0.4574  0.0348
 1163TIP3    H124904   5.132   1.930  11.986 -0.1911  1.1436  0.2935
 1163TIP3    H224905   5.275   1.964  11.950  0.0853 -0.6094 -0.3700
 1164TIP3   OH224906   1.564   5.297  12.191 -0.4183  0.0065 -0.0080
 1164TIP3    H124907   1.556   5.307  12.097  1.6279  2.8125 -0.0025
 1164TIP3    H224908   1.537   5.207  12.208 -2.5313 -0.0509 -2.9956
 1165TIP3   OH224909   4.974   2.949   1.278  0.3754  0.0001  0.3398
 1165TIP3    H124910   5.031   2.917   1.347  0.2940  2.2663  1.5702
 1165TIP3    H224911   5.033   2.974   1.207  0.4159 -2.9356 -0.7976
 1166TIP3   OH224912   3.545   1.449  16.179  0.5059  0.0368 -0.1142
 1166TIP3    H124913   3.560   1.429  16.087 -1.2097  0.1806 -0.4535
 1166TIP3    H224914   3.589   1.378  16.226 -0.1210 -1.0393 -1.1102
 1167TIP3   OH224915   0.414   2.795  15.280 -0.3297  0.1874 -0.0682
 1167TIP3    H124916   0.464   2.735  15.225 -0.6940  0.4973 -0.7477
 1167TIP3    H224917   0.480   2.849  15.323 -0.0081 -0.5707  0.4096
 1168TIP3   OH224918   3.500   5.967  13.510  0.2248  0.1340  0.1090
 1168TIP3    H124919   3.416   5.933  13.482 -0.5080  0.3311  1.9317
 1168TIP3    H224920   3.563   5.898  13.489 -0.6820 -0.8085  0.4066
 1169TIP3   OH224921   6.319   2.195   0.965  0.4535 -0.1578 -0.1655
 1169TIP3    H124922   6.403   2.204   0.919 -0.2760 -0.7921 -1.7204
 1169TIP3    H224923   6.290   2.285   0.980  1.7687  0.0914  1.1584
 1170TIP3   OH224924   1.497   3.849   0.714 -0.1270 -0.5747  0.1951
 1170TIP3    H124925   1.481   3.924   0.656 -1.1397 -0.7368  0.2360
 1170TIP3    H224926   1.562   3.796   0.667 -1.5675 -1.1486 -1.2555
 1171TIP3   OH224927   0.577   2.111   5.588 -0.4681  0.0483 -0.4739
 1171TIP3    H124928   0.615   2.169   5.654  0.0546  0.0455 -0.7674
 1171TIP3    H224929   0.534   2.170   5.526 -1.4155  0.0244  0.1423
 1172TIP3   OH224930   6.260   5.874  12.889  0.7614  0.2139 -0.3505
 1172TIP3    H124931   6.348   5.877  12.927  0.2329  0.3152  0.9108
 1172TIP3    H224932   6.246   5.781  12.867  0.6564 -0.0400  0.7516
 1173TIP3   OH224933   0.383   4.911  11.777 -0.5047  0.0495  1.2062
 1173TIP3    H124934   0.476   4.931  11.791 -0.9888  0.8239  3.8664
 1173TIP3    H224935   0.383   4.819  11.750  1.0538  0.1609  0.6764
 1174TIP3   OH224936   4.211   6.657  16.072  0.3051 -0.4614  0.5267
 1174TIP3    H124937   4.236   6.700  15.990  1.5991 -0.4966  0.8846
 1174TIP3    H224938   4.288   6.605  16.096  0.2625  0.2020  2.2030
 1175TIP3   OH224939   0.082   2.644  15.718  0.0355  0.1407  0.6699
 1175TIP3    H124940   0.168   2.646  15.677  0.2671  0.8490  1.1736
 1175TIP3    H224941   0.053   2.735  15.717 -0.1265  0.1131  1.7092
 1176TIP3   OH224942   3.091   6.292  12.439  0.0525 -0.4992 -0.0732
 1176TIP3    H124943   3.098   6.376  12.393 -3.3204 -0.1697 -0.1722
 1176TIP3    H224944   3.136   6.230  12.382  1.2574  0.9251 -0.7644
 1177TIP3   OH224945   2.887   5.047  12.483  0.0730  0.3996  0.0782
 1177TIP3    H124946   2.849   4.999  12.410  0.6117 -1.0083  0.6955
 1177TIP3    H224947   2.977   5.063  12.457  0.0473  0.5851  0.1031
 1178TIP3   OH224948   3.876   1.739   0.600  0.9071 -0.4573 -0.1506
 1178TIP3    H124949   3.920   1.816   0.636  1.4805 -0.8215 -0.0548
 1178TIP3    H224950   3.800   1.774   0.554  0.4717  0.0669  0.9297
 1179TIP3   OH224951   0.117   3.666   2.937  0.1328 -0.1676  0.2000
 1179TIP3    H124952   0.210   3.646   2.937  0.4824  1.3385  0.8039
 1179TIP3    H224953   0.097   3.687   2.846  0.0919 -1.5964 -0.1540
 1180TIP3   OH224954   4.048   1.235  14.764 -0.5141  0.2212  0.2545
 1180TIP3    H124955   3.984   1.298  14.731 -0.0779  0.0862 -0.8986
 1180TIP3    H224956   4.017   1.151  14.732 -0.2644  0.0366  0.4991
 1181TIP3   OH224957   2.005   4.747   1.485 -0.0009 -0.0709 -0.3162
 1181TIP3    H124958   2.003   4.843   1.490  0.9338 -0.0769  0.4274
 1181TIP3    H224959   1.956   4.718   1.562 -0.1826 -0.1942 -0.4779
 1182TIP3   OH224960   3.198   3.207  11.651  0.5101  0.5333  0.8586
 1182TIP3    H124961   3.195   3.299  11.623 -0.0268 -0.0817 -1.3636
 1182TIP3    H224962   3.127   3.199  11.715 -0.7249  1.2870 -0.3499
 1183TIP3   OH224963   3.545   2.191  16.564  0.1933  0.3566 -0.0555
 1183TIP3    H124964   3.586   2.110  16.537 -0.6832 -0.1120 -0.0095
 1183TIP3    H224965   3.491   2.218  16.489  0.8200  1.1365 -0.2416
 1184TIP3   OH224966   0.396   3.358  12.539 -0.1688  0.3103  0.4086
 1184TIP3    H124967   0.317   3.362  12.484 -0.6442  2.6405  1.1411
 1184TIP3    H224968   0.364   3.328  12.624 -0.4372  1.7742  0.8645
 1185TIP3   OH224969   0.348   0.383  16.651 -0.3558  0.4532 -0.3400
 1185TIP3    H124970   0.357   0.347  16.563 -0.9574 -0.5252 -0.0203
 1185TIP3    H224971   0.274   0.336  16.689  0.8394 -0.2755  1.2243
 1186TIP3   OH224972   0.150   4.163   2.282  0.1079  0.3932  0.0673
 1186TIP3    H124973   0.179   4.168   2.373 -0.8424  2.4906  0.3299
 1186TIP3    H224974   0.058   4.137   2.288 -0.6448  2.8115 -0.0701
 1187TIP3   OH224975   0.108   4.973  13.246 -0.2094  0.2693 -0.1299
 1187TIP3    H124976   0.187   4.920  13.255 -0.0843 -0.0612 -2.5384
 1187TIP3    H224977   0.048   4.937  13.311  0.6256 -1.3683 -0.2127
 1188TIP3   OH224978   2.482   0.106  15.756 -0.0554  0.5822 -0.0186
 1188TIP3    H124979   2.567   0.116  15.799  0.0248 -0.7137  0.1619
 1188TIP3    H224980   2.425   0.168  15.800  0.8654  1.7211 -0.3638
 1189TIP3   OH224981   1.495   0.846  17.308  0.0460  0.3154 -0.5269
 1189TIP3    H124982   1.510   0.939  17.294  1.6713  0.2551  0.5866
 1189TIP3    H224983   1.548   0.824  17.385 -1.1857 -1.2913 -0.0717
 1190TIP3   OH224984   4.302   2.384  13.355 -0.3756  0.2355 -0.1188
 1190TIP3    H124985   4.323   2.461  13.301  0.9998  0.7566  1.0946
 1190TIP3    H224986   4.385   2.337  13.363 -0.7632 -0.3221  0.7589
 1191TIP3   OH224987   1.782   1.296   2.936  0.4904 -0.1039 -0.5725
 1191TIP3    H124988   1.871   1.300   2.898  0.3305  0.8807 -0.8764
 1191TIP3    H224989   1.761   1.203   2.937  0.8949 -0.2429 -2.0326
 1192TIP3   OH224990   2.737   2.854   2.956  0.1297  0.2593 -0.8216
 1192TIP3    H124991   2.654   2.871   3.001 -0.1672  1.0411 -1.6351
 1192TIP3    H224992   2.738   2.759   2.946 -0.0426  0.1128  0.3417
 1193TIP3   OH224993   4.754   5.984  14.416 -0.0187 -0.3115 -0.2041
 1193TIP3    H124994   4.737   5.907  14.469  1.3128 -0.5568 -0.0921
 1193TIP3    H224995   4.688   6.048  14.444 -0.2426 -0.9216  0.7103
 1194TIP3   OH224996   6.609   1.334   5.504  0.6346 -0.1172  0.5868
 1194TIP3    H124997   6.550   1.410   5.498  1.4966  0.4573 -1.0406
 1194TIP3    H224998   6.563   1.265   5.457  0.8799  0.0994  0.0159
 1195TIP3   OH224999   1.189   2.520   0.538 -0.5549  0.1723 -0.3243
 1195TIP3    H125000   1.212   2.533   0.446  2.1623 -1.1940  0.0495
 1195TIP3    H225001   1.241   2.585   0.586 -1.8046  0.7514  0.2943
 1196TIP3   OH225002   1.807   5.075   0.579  0.1696  0.0767  0.3092
 1196TIP3    H125003   1.816   4.981   0.563  0.5618  0.1269  0.2265
 1196TIP3    H225004   1.726   5.100   0.534  0.3602 -0.1122 -0.1449
 1197TIP3   OH225005   4.075   5.651   0.510 -0.0825 -0.6362  0.3184
 1197TIP3    H125006   4.093   5.716   0.442  2.4651  0.4962  1.9481
 1197TIP3    H225007   3.996   5.684   0.553 -1.0029 -0.7074 -1.2433
 1198TIP3   OH225008   3.943   1.864  14.136  0.3000  0.7822  0.2526
 1198TIP3    H125009   3.927   1.958  14.126 -1.9406  0.5214  0.7721
 1198TIP3    H225010   3.968   1.834  14.048  0.5440  1.7668 -0.0209
 1199TIP3   OH225011   0.368   1.366  12.659 -0.0866 -0.3738 -0.3923
 1199TIP3    H125012   0.274   1.368  12.640 -0.1607  0.4394 -0.0048
 1199TIP3    H225013   0.376   1.413  12.743  0.7166 -0.0179 -0.6576
 1200TIP3   OH225014   6.134   0.727  13.496 -0.2784 -0.2950  0.3929
 1200TIP3    H125015   6.161   0.746  13.406 -0.7897  0.4142  0.3733
 1200TIP3    H225016   6.083   0.804  13.522  1.8775  0.6340  2.1501
 1201TIP3   OH225017   0.782   5.723  15.641 -0.2781  0.0049  0.2568
 1201TIP3    H125018   0.842   5.650  15.656  0.8261  0.4929 -1.4784
 1201TIP3    H225019   0.740   5.738  15.726  2.2215 -0.2166  1.6096
 1202TIP3   OH225020   3.901   1.648   2.734 -0.3636 -0.4149 -0.7700
 1202TIP3    H125021   3.821   1.639   2.787  0.2739  1.3709  0.5903
 1202TIP3    H225022   3.966   1.594   2.779  0.3826  1.6851  0.7982
 1203TIP3   OH225023   6.018   4.829  13.416  0.3070  0.5404  0.4171
 1203TIP3    H125024   5.978   4.836  13.329 -2.3257 -0.4772  1.4772
 1203TIP3    H225025   6.002   4.914  13.457 -0.6909  0.1775  0.7932
 1204TIP3   OH225026   5.977   0.837  16.092 -0.2592 -0.1652 -0.1472
 1204TIP3    H125027   5.962   0.899  16.021 -0.8507 -0.5098 -0.3354
 1204TIP3    H225028   5.890   0.821  16.128  0.3229  2.9215  3.1918
 1205TIP3   OH225029   6.539   2.212  16.941  0.0842  0.0928 -0.0106
 1205TIP3    H125030   6.550   2.198  17.035 -0.8276  0.5142  0.1669
 1205TIP3    H225031   6.591   2.142  16.900  1.9104  0.9423  0.7766
 1206TIP3   OH225032   4.202   2.385   0.954 -0.3780  0.1565 -0.1285
 1206TIP3    H125033   4.212   2.466   1.004  0.0050 -0.6983  1.2476
 1206TIP3    H225034   4.143   2.408   0.883 -1.6887  1.2250  1.2310
 1207TIP3   OH225035   1.856   3.048  17.311 -0.1267 -0.0394 -0.5408
 1207TIP3    H125036   1.891   3.010  17.230  1.8545 -1.4965  0.8758
 1207TIP3    H225037   1.896   2.995  17.380 -0.2578  2.3073  1.4592
 1208TIP3   OH225038   4.111   2.937  16.836  0.8673  0.5404 -0.1759
 1208TIP3    H125039   4.088   2.932  16.743  0.9157  0.5565 -0.1894
 1208TIP3    H225040   4.085   2.853  16.872 -0.2639  0.9745  0.0499
 1209TIP3   OH225041   3.529   3.137  13.558  0.0784 -0.1778 -0.2826
 1209TIP3    H125042   3.492   3.078  13.625 -0.1980 -0.0496 -0.3182
 1209TIP3    H225043   3.527   3.224  13.600 -0.9093  0.0530 -0.7573
 1210TIP3   OH225044   2.572   2.848   1.960  0.1325 -0.1625 -0.4327
 1210TIP3    H125045   2.482   2.818   1.971  0.1600  0.1069  0.6686
 1210TIP3    H225046   2.619   2.771   1.928 -0.5052 -0.2711 -1.1318
 1211TIP3   OH225047   6.090   3.424  14.423  0.5174  0.0282  0.3423
 1211TIP3    H125048   5.997   3.429  14.400  0.9011  1.3699 -1.0093
 1211TIP3    H225049   6.092   3.447  14.516 -0.4173  0.9913  0.1451
 1212TIP3   OH225050   3.824   3.989   2.385 -0.7747  0.9347 -0.3077
 1212TIP3    H125051   3.905   3.956   2.346 -0.1546  1.2482  0.6690
 1212TIP3    H225052   3.853   4.046   2.456 -1.8224 -0.1430  1.0660
 1213TIP3   OH225053   1.184   0.097   1.212  0.0710  0.0257 -0.0584
 1213TIP3    H125054   1.154   0.103   1.303  0.3616  0.7462 -0.0038
 1213TIP3    H225055   1.197   0.004   1.197 -2.6178 -0.4142 -0.2324
 1214TIP3   OH225056   5.348   5.365   4.643 -0.4487  0.0577 -0.0851
 1214TIP3    H125057   5.264   5.410   4.651 -1.0203 -0.6894 -1.5861
 1214TIP3    H225058   5.370   5.370   4.550  0.2833 -1.2940 -0.0139
 1215TIP3   OH225059   4.281   2.617   5.472 -0.1533  0.1939  0.3322
 1215TIP3    H125060   4.250   2.533   5.437 -0.6212 -0.0858  1.3834
 1215TIP3    H225061   4.274   2.608   5.567  1.0722  0.9424  0.5168
 1216TIP3   OH225062   3.174   1.978  14.632  0.0997 -0.6141 -0.1331
 1216TIP3    H125063   3.124   1.902  14.662 -0.2635  0.3075  1.7843
 1216TIP3    H225064   3.200   1.957  14.543 -0.7145 -2.6180  0.0602
 1217TIP3   OH225065   2.752   3.405  15.483 -0.5773  0.4267 -0.6057
 1217TIP3    H125066   2.662   3.430  15.501 -1.3596 -2.6242  0.3265
 1217TIP3    H225067   2.750   3.367  15.395 -0.2622  0.1824 -0.5134
 1218TIP3   OH225068   2.779   3.807  16.138  0.2700  0.1628 -0.5010
 1218TIP3    H125069   2.774   3.740  16.206 -0.2444 -0.2838 -0.9745
 1218TIP3    H225070   2.817   3.883  16.182 -0.3909 -0.0070  0.3725
 1219TIP3   OH225071   6.379   5.132  12.833 -0.6237  0.0970  0.3235
 1219TIP3    H125072   6.443   5.095  12.893 -0.4647  1.2597  0.9014
 1219TIP3    H225073   6.346   5.057  12.783  1.4590 -0.4789 -0.2627
 1220TIP3   OH225074   5.695   1.721  16.086 -0.5607 -0.1162  0.3700
 1220TIP3    H125075   5.640   1.782  16.037  0.5195  2.9476  2.6429
 1220TIP3    H225076   5.634   1.657  16.123 -1.7576 -0.4517 -1.9805
 1221TIP3   OH225077   0.037   6.153   0.365 -0.5757 -0.0277 -0.1070
 1221TIP3    H125078  -0.011   6.234   0.352  1.7765  1.2463 -1.3913
 1221TIP3    H225079   0.104   6.175   0.430 -1.0263 -1.4735  0.8971
 1222TIP3   OH225080   4.670   1.660   0.286 -0.3772  0.1380 -0.2276
 1222TIP3    H125081   4.636   1.666   0.375  1.6277  2.1426  0.5141
 1222TIP3    H225082   4.668   1.566   0.265  2.2312 -0.8862  3.2817
 1223TIP3   OH225083   0.631   4.915   1.152  0.1732 -0.4581  0.0709
 1223TIP3    H125084   0.711   4.968   1.155 -0.3187  0.4077 -1.1458
 1223TIP3    H225085   0.576   4.951   1.222  0.4435 -0.3689  0.2371
 1224TIP3   OH225086   3.448   1.585  12.697  0.6766  0.6111  0.5450
 1224TIP3    H125087   3.386   1.557  12.764  1.4321 -1.2055  0.5597
 1224TIP3    H225088   3.397   1.590  12.616  0.4389 -0.6223  0.6036
 1225TIP3   OH225089   4.763   3.210   2.171 -0.4754 -0.0111  0.2998
 1225TIP3    H125090   4.843   3.212   2.224  0.0738 -1.0719 -0.4360
 1225TIP3    H225091   4.731   3.300   2.172  2.0963  1.0442 -1.3722
 1226TIP3   OH225092   5.781   0.535  14.748 -0.1309  0.2979  0.2214
 1226TIP3    H125093   5.750   0.616  14.790  1.1062  1.4927 -1.0591
 1226TIP3    H225094   5.728   0.466  14.788  0.0626  1.4934  2.7285
 1227TIP3   OH225095   4.189   2.875  14.069 -0.0121  0.3421 -0.5269
 1227TIP3    H125096   4.182   2.937  13.997 -2.0690 -0.4355 -1.0675
 1227TIP3    H225097   4.114   2.895  14.126 -0.0895 -0.9007 -0.1391
 1228TIP3   OH225098   0.063   5.275  16.226  0.4130  0.0528  0.1843
 1228TIP3    H125099   0.133   5.305  16.284  0.7433 -0.8012  0.2346
 1228TIP3    H225100  -0.004   5.241  16.285 -0.7339  2.1741  0.2342
 1229TIP3   OH225101   5.209   2.981   0.790  0.2415  0.2658 -0.6075
 1229TIP3    H125102   5.166   2.944   0.713 -0.9535  0.8047 -0.2254
 1229TIP3    H225103   5.300   2.952   0.783 -0.4850 -2.2865 -0.6312
 1230TIP3   OH225104   3.781   0.180   5.766 -0.2248 -0.3189  0.2005
 1230TIP3    H125105   3.813   0.270   5.776 -2.2344  0.3049  1.7281
 1230TIP3    H225106   3.687   0.190   5.747 -0.2577 -2.0949 -0.7842
 1231TIP3   OH225107   2.938   6.324   6.058  0.2894 -0.4028 -0.1721
 1231TIP3    H125108   2.853   6.314   6.102  0.1603  2.6790  0.5231
 1231TIP3    H225109   3.001   6.293   6.122 -0.1470  0.6837  0.8386
 1232TIP3   OH225110   1.419   4.198  16.317  0.0223  0.2790 -0.5672
 1232TIP3    H125111   1.377   4.116  16.294  1.1879 -0.6217  0.3785
 1232TIP3    H225112   1.485   4.174  16.383  1.3066  1.7588 -1.2366
 1233TIP3   OH225113   3.830   6.409   0.173 -0.0128  0.5569 -0.3904
 1233TIP3    H125114   3.798   6.338   0.118  1.4866  0.9296 -1.7985
 1233TIP3    H225115   3.909   6.373   0.215 -1.1964  0.2237  1.7188
 1234TIP3   OH225116   0.505   5.598  10.953  0.1062 -0.2449 -0.2599
 1234TIP3    H125117   0.564   5.533  10.915 -0.6980 -0.0511 -1.9284
 1234TIP3    H225118   0.562   5.672  10.974  0.7467 -0.8002  0.0190
 1235TIP3   OH225119   5.428   4.330   6.942 -0.4449  0.4289  0.0335
 1235TIP3    H125120   5.412   4.363   6.854  1.0040 -0.7612 -0.7259
 1235TIP3    H225121   5.368   4.257   6.952 -0.2225  0.2127 -0.1956
 1236TIP3   OH225122   0.887   0.507   6.095  0.6626 -1.1290 -0.3343
 1236TIP3    H125123   0.828   0.443   6.135 -1.2605  0.9907  0.4712
 1236TIP3    H225124   0.869   0.501   6.001  0.7412 -1.9657 -0.3023
 1237TIP3   OH225125   5.055   2.660  16.444 -0.5024 -0.3524  0.1487
 1237TIP3    H125126   4.967   2.673  16.409 -1.3916  0.1065  2.3666
 1237TIP3    H225127   5.058   2.717  16.521  2.0370  0.2427 -0.3143
 1238TIP3   OH225128   3.477   5.588  14.861  0.5825 -0.0258  0.7640
 1238TIP3    H125129   3.447   5.672  14.826  2.5185  0.7856  0.9755
 1238TIP3    H225130   3.457   5.525  14.791 -0.0041  0.7463  0.2095
 1239TIP3   OH225131   4.382   1.810  13.501 -0.8339 -0.2953 -0.2219
 1239TIP3    H125132   4.453   1.801  13.438  1.2086  0.0454  1.8863
 1239TIP3    H225133   4.334   1.727  13.495  0.3707 -0.9701 -0.9756
 1240TIP3   OH225134   1.172   1.971   4.714 -0.1090 -0.2360 -0.4917
 1240TIP3    H125135   1.254   1.981   4.762 -0.0671  1.5544 -0.8712
 1240TIP3    H225136   1.188   1.898   4.654 -0.1875 -2.6168  2.1778
 1241TIP3   OH225137   3.000   3.921   0.716  0.1228  0.3550 -0.2122
 1241TIP3    H125138   3.001   3.892   0.808 -0.1206  1.3815  0.1291
 1241TIP3    H225139   3.087   3.956   0.701  0.5228 -0.8048 -0.7246
 1242TIP3   OH225140   0.141   1.641  17.333 -0.2539  0.1517 -0.5112
 1242TIP3    H125141   0.138   1.690  17.415  0.6182 -1.3065  0.4532
 1242TIP3    H225142   0.054   1.653  17.295 -1.4395 -0.8134  1.6801
 1243TIP3   OH225143   6.224   4.477   1.279 -0.0302 -0.4064  0.5305
 1243TIP3    H125144   6.228   4.462   1.184 -2.1998  3.9472 -0.4806
 1243TIP3    H225145   6.180   4.399   1.313  1.0638 -2.2430 -1.9000
 1244TIP3   OH225146   1.246   3.109   4.356 -0.7224  0.0364 -1.1387
 1244TIP3    H125147   1.257   3.118   4.451 -0.6493 -1.0081 -1.0336
 1244TIP3    H225148   1.327   3.143   4.319  0.0127 -1.1821 -0.7173
 1245TIP3   OH225149   2.902   3.679   5.800  0.1049  0.0929  0.0423
 1245TIP3    H125150   2.990   3.670   5.837  0.1731 -0.0517 -0.1540
 1245TIP3    H225151   2.845   3.691   5.876 -0.2200 -3.3197  0.4741
 1246TIP3   OH225152   2.693   0.533  11.244  0.3628 -0.0295 -0.1689
 1246TIP3    H125153   2.675   0.625  11.225  3.2878  0.5564 -0.5608
 1246TIP3    H225154   2.727   0.497  11.162 -0.0578 -1.2785  0.1821
 1247TIP3   OH225155   2.917   3.067  16.127 -0.3104 -0.1342  0.2120
 1247TIP3    H125156   2.947   3.040  16.040 -0.3633 -0.3179  0.2504
 1247TIP3    H225157   2.829   3.029  16.135 -0.0777 -0.6101  0.5740
 1248TIP3   OH225158   1.144   6.394   0.620 -0.3426  0.0373  0.2912
 1248TIP3    H125159   1.074   6.372   0.681 -0.7295  0.7180  0.1055
 1248TIP3    H225160   1.114   6.362   0.535 -0.2089 -0.1043  0.2967
 1249TIP3   OH225161   3.628   0.631   2.963 -0.3744 -0.2821  0.4196
 1249TIP3    H125162   3.582   0.694   2.908  1.7593  1.7159  0.7783
 1249TIP3    H225163   3.678   0.577   2.902 -0.5271 -0.2070  0.2271
 1250TIP3   OH225164   2.763   5.425   5.359  0.0918  0.3982 -0.4952
 1250TIP3    H125165   2.794   5.343   5.398 -1.5941  0.7916  1.8512
 1250TIP3    H225166   2.826   5.490   5.388 -0.9423  0.6210  1.4011
 1251TIP3   OH225167   6.373   1.838   0.939  0.3772  0.1001  0.5156
 1251TIP3    H125168   6.396   1.781   1.013  0.3053  0.9506  1.2137
 1251TIP3    H225169   6.284   1.811   0.915  0.4010 -0.1833  0.7409
 1252TIP3   OH225170   4.024   5.540  11.540  0.6392 -0.1152  0.1858
 1252TIP3    H125171   3.940   5.547  11.496  1.2703 -0.4249 -1.1101
 1252TIP3    H225172   4.057   5.630  11.544  0.7679 -0.1358 -0.3716
 1253TIP3   OH225173   2.919   4.254   2.727  0.1971 -0.4735 -0.4013
 1253TIP3    H125174   2.914   4.279   2.635  1.8646 -1.8331 -0.9082
 1253TIP3    H225175   2.835   4.213   2.745 -0.7431  1.1725 -0.8529
 1254TIP3   OH225176   2.388   4.240   0.712  0.3053 -0.0972 -0.3276
 1254TIP3    H125177   2.360   4.306   0.648 -2.2011 -0.2098  0.5811
 1254TIP3    H225178   2.478   4.219   0.685 -0.7465 -0.5414 -4.1694
 1255TIP3   OH225179   0.457   4.140  12.295  0.1522  0.1678  0.2849
 1255TIP3    H125180   0.516   4.213  12.272 -1.7445  1.3327 -1.1694
 1255TIP3    H225181   0.496   4.064  12.252  2.2539  0.2120  1.9425
 1256TIP3   OH225182   0.483   3.611  14.765 -0.7224  0.1679  0.1720
 1256TIP3    H125183   0.452   3.610  14.856 -0.6679 -1.2015  0.1994
 1256TIP3    H225184   0.536   3.532  14.758  2.6635  2.2846  0.0619
 1257TIP3   OH225185   4.322   2.788  14.549  0.1932 -0.1484 -0.9917
 1257TIP3    H125186   4.229   2.809  14.565  0.3018 -0.3706 -0.0329
 1257TIP3    H225187   4.352   2.859  14.492  0.4734  2.2554  1.9262
 1258TIP3   OH225188   4.813   3.886   3.297 -0.2261 -0.0183 -0.1702
 1258TIP3    H125189   4.785   3.922   3.213 -2.2904 -0.8208  0.1245
 1258TIP3    H225190   4.836   3.795   3.278  0.0414  0.0125 -0.0011
 1259TIP3   OH225191   0.769   6.364   6.082 -0.3313  0.1565  1.1897
 1259TIP3    H125192   0.680   6.396   6.097 -0.9844 -1.2744  0.5713
 1259TIP3    H225193   0.825   6.441   6.096 -1.5299  0.7765  2.9189
 1260TIP3   OH225194   3.897   3.696   6.776 -0.0780  0.4067  0.4425
 1260TIP3    H125195   3.981   3.693   6.822  0.7216 -0.9068 -1.0198
 1260TIP3    H225196   3.896   3.782   6.735  1.0373  0.0657 -0.3424
 1261TIP3   OH225197   3.117   1.238  12.766  0.3953 -0.6058 -0.1980
 1261TIP3    H125198   3.075   1.323  12.778  1.6582 -0.0555  0.4665
 1261TIP3    H225199   3.051   1.175  12.795 -0.8629  0.0727 -1.4657
 1262TIP3   OH225200   1.553   5.539   4.569  1.0560 -0.2144 -0.0520
 1262TIP3    H125201   1.642   5.550   4.603  1.3393 -0.9891 -0.5200
 1262TIP3    H225202   1.541   5.444   4.563  1.5633 -0.2141 -3.3813
 1263TIP3   OH225203   0.022   0.361   1.209 -0.2869  0.0098 -0.0353
 1263TIP3    H125204   0.094   0.415   1.241  1.7857 -2.7924  0.3760
 1263TIP3    H225205   0.025   0.370   1.114  0.4847  0.0971 -0.0098
 1264TIP3   OH225206   1.637   6.584  16.201  0.9011 -0.5958  0.1109
 1264TIP3    H125207   1.598   6.663  16.238  1.4191 -0.9864  1.5827
 1264TIP3    H225208   1.648   6.604  16.108  2.7625  1.8213  0.7290
 1265TIP3   OH225209   2.098   5.523  15.661  0.0976  0.0123 -0.2288
 1265TIP3    H125210   2.114   5.460  15.730  0.4399  0.4641  0.1108
 1265TIP3    H225211   2.003   5.534  15.661 -0.2440 -2.2176 -1.8481
 1266TIP3   OH225212   5.185   5.905   2.387  0.5371 -0.3413  0.1250
 1266TIP3    H125213   5.113   5.952   2.429  2.4654  1.9008  1.2116
 1266TIP3    H225214   5.208   5.835   2.448  1.1222  0.7824  1.2334
 1267TIP3   OH225215   0.266   5.414  13.768 -0.7352 -0.1601  0.0355
 1267TIP3    H125216   0.341   5.416  13.708  0.2883 -1.1138  1.2096
 1267TIP3    H225217   0.200   5.361  13.722  0.5595 -2.0911  0.2728
 1268TIP3   OH225218   5.457   0.719  12.073  0.5214  0.3138  0.1509
 1268TIP3    H125219   5.455   0.708  11.977 -0.0330  4.0461 -0.3898
 1268TIP3    H225220   5.364   0.721  12.098  0.6596 -1.6080  0.9948
 1269TIP3   OH225221   3.803   5.884   3.743  0.5397 -0.1148  0.8339
 1269TIP3    H125222   3.735   5.833   3.787  0.9908 -0.9577  0.5797
 1269TIP3    H225223   3.858   5.917   3.815  1.7511 -2.1638  0.9107
 1270TIP3   OH225224   3.941   5.768   4.967  0.4010  0.4123  0.1014
 1270TIP3    H125225   4.020   5.779   5.019  1.0975  0.5767 -0.9625
 1270TIP3    H225226   3.934   5.850   4.918 -2.2428  1.8398  2.5163
 1271TIP3   OH225227   0.879   2.852   2.440  0.0564  0.4626 -0.4708
 1271TIP3    H125228   0.902   2.929   2.491  1.1376  1.0406 -1.7700
 1271TIP3    H225229   0.819   2.884   2.372 -2.5310 -0.5390  1.1581
 1272TIP3   OH225230   0.870   2.928   6.024 -0.0382 -0.2459 -0.4555
 1272TIP3    H125231   0.966   2.925   6.027 -0.0741 -2.2409  0.5141
 1272TIP3    H225232   0.842   2.843   6.058 -2.1565 -0.1071 -1.6539
 1273TIP3   OH225233   1.530   2.824  14.681  0.4563  0.0830  0.1213
 1273TIP3    H125234   1.486   2.748  14.643  1.2142 -2.2068  3.4005
 1273TIP3    H225235   1.460   2.888  14.695 -0.4369 -0.4880 -1.5285
 1274TIP3   OH225236   1.293   1.488   1.470 -0.2818 -0.4507 -0.3059
 1274TIP3    H125237   1.225   1.543   1.430 -0.5696  1.0627  2.0215
 1274TIP3    H225238   1.375   1.526   1.439 -0.4778 -0.6652 -1.1176
 1275TIP3   OH225239   0.456   2.272  16.665  0.8360 -0.7855 -0.0862
 1275TIP3    H125240   0.526   2.241  16.607 -0.7872 -2.0141 -1.4877
 1275TIP3    H225241   0.375   2.249  16.620 -0.5206  1.4808  1.0233
 1276TIP3   OH225242   0.503   5.647  12.434  0.5517  0.1862 -0.5215
 1276TIP3    H125243   0.560   5.720  12.459  0.9587  0.7062 -2.7749
 1276TIP3    H225244   0.556   5.569  12.448  0.1116  0.2387  1.9239
 1277TIP3   OH225245   2.656   0.198   6.106  0.1220  0.2363  0.4178
 1277TIP3    H125246   2.617   0.284   6.111 -0.8964 -0.2362  0.8365
 1277TIP3    H225247   2.667   0.181   6.012  0.2725  0.7876  0.3348
 1278TIP3   OH225248   4.276   4.677  15.763  0.3047  0.1705 -0.0604
 1278TIP3    H125249   4.242   4.656  15.676 -0.4111 -2.7627  0.8295
 1278TIP3    H225250   4.204   4.722  15.807 -0.5977 -1.3225  0.0650
 1279TIP3   OH225251   6.641   1.508   3.866  0.1938  0.1561  0.0742
 1279TIP3    H125252   6.710   1.443   3.852 -0.2529 -0.4494  0.6402
 1279TIP3    H225253   6.662   1.578   3.804  1.3115 -0.0145  0.2356
 1280TIP3   OH225254   3.879   2.893  10.789  0.1694  0.2085  0.6180
 1280TIP3    H125255   3.967   2.876  10.822  1.6772  1.8805 -2.1221
 1280TIP3    H225256   3.893   2.935  10.704 -3.2541  2.1017  0.7949
 1281TIP3   OH225257   6.722   0.631  16.733 -0.9624  0.2907 -0.6023
 1281TIP3    H125258   6.806   0.665  16.763  0.4161 -2.2474 -1.2893
 1281TIP3    H225259   6.677   0.604  16.813  0.7948 -2.3164 -0.3759
 1282TIP3   OH225260   0.178   5.391  17.444 -0.1093  0.0600 -0.2306
 1282TIP3    H125261   0.260   5.398  17.492 -0.3509 -0.8807  0.3477
 1282TIP3    H225262   0.205   5.382  17.352  0.3818  0.9824 -0.1836
 1283TIP3   OH225263   2.493   5.752  17.436  0.3635  0.0575 -0.3030
 1283TIP3    H125264   2.516   5.804  17.359  0.4941  0.5660  0.0773
 1283TIP3    H225265   2.532   5.666  17.419  0.6997  0.2726 -0.6403
 1284TIP3   OH225266   1.971   4.311   2.869  0.3675  0.2306  0.3535
 1284TIP3    H125267   1.885   4.274   2.890  1.2696 -1.0394  2.0501
 1284TIP3    H225268   1.965   4.402   2.899 -0.2024 -0.0166  1.0326
 1285TIP3   OH225269   5.035   1.664  13.149  0.4853  0.3455  0.2501
 1285TIP3    H125270   5.062   1.605  13.079  0.5288  0.7848 -0.1092
 1285TIP3    H225271   4.999   1.607  13.216 -0.2571 -0.0263 -0.4517
 1286TIP3   OH225272   5.229   5.909  16.019 -0.2576  0.5478  0.0250
 1286TIP3    H125273   5.255   5.930  15.929 -1.5921 -0.6738 -0.7026
 1286TIP3    H225274   5.287   5.961  16.074  0.9757  0.8979 -1.5358
 1287TIP3   OH225275   1.190   6.127  12.112  0.1286 -0.2332  0.0280
 1287TIP3    H125276   1.165   6.047  12.067  0.4674  0.0188 -0.6264
 1287TIP3    H225277   1.194   6.193  12.043 -2.7240  0.9922  0.8879
 1288TIP3   OH225278   3.251   4.620   1.004 -0.2101 -1.0981  0.9994
 1288TIP3    H125279   3.200   4.576   0.937  1.0337 -3.0101  1.2267
 1288TIP3    H225280   3.287   4.697   0.961 -1.0952 -1.1869  0.0813
 1289TIP3   OH225281   3.284   1.784   0.325 -0.0354 -0.1204  0.0584
 1289TIP3    H125282   3.260   1.872   0.295  1.2555  0.4420  0.6258
 1289TIP3    H225283   3.261   1.783   0.418  0.9188 -0.0177  0.3003
 1290TIP3   OH225284   2.482   1.551   6.152 -0.0964 -0.1674 -0.2949
 1290TIP3    H125285   2.443   1.478   6.201  0.5739 -1.0344 -1.0413
 1290TIP3    H225286   2.571   1.523   6.134  0.9911  1.8590  1.5257
 1291TIP3   OH225287   4.348   4.669  12.778 -0.4959 -0.9219 -0.4479
 1291TIP3    H125288   4.405   4.689  12.852  0.6976 -2.7861 -0.7971
 1291TIP3    H225289   4.314   4.581  12.796 -2.0493 -0.4908 -1.0267
 1292TIP3   OH225290   4.328   3.496   3.081  0.2992 -0.1014 -0.6742
 1292TIP3    H125291   4.417   3.465   3.062  0.3745  0.0632 -0.5930
 1292TIP3    H225292   4.272   3.446   3.021  0.8122  2.5616 -3.6720
 1293TIP3   OH225293   4.481   4.831   6.092 -0.0230  0.4277  0.0608
 1293TIP3    H125294   4.410   4.776   6.126  0.1072 -0.4459 -1.0263
 1293TIP3    H225295   4.436   4.906   6.052 -0.2506  0.6100  0.6423
 1294TIP3   OH225296   6.416   3.424  14.094 -0.1207  0.1558  0.5125
 1294TIP3    H125297   6.396   3.339  14.132  3.5198 -0.8676  0.4430
 1294TIP3    H225298   6.446   3.477  14.167 -0.4296  0.7382  0.2279
 1295TIP3   OH225299   4.060   6.550  14.359 -0.0202 -0.0502 -0.1531
 1295TIP3    H125300   4.023   6.572  14.274 -2.4554 -1.6497  0.3929
 1295TIP3    H225301   4.043   6.628  14.413 -1.3105 -0.1848 -0.3322
 1296TIP3   OH225302   3.467   0.992  12.381  0.1364 -0.0677  0.1103
 1296TIP3    H125303   3.456   1.084  12.406  1.8835  0.3605 -0.5290
 1296TIP3    H225304   3.521   0.955  12.451  0.4790 -0.2836 -0.2666
 1297TIP3   OH225305   5.101   2.758  13.037  0.0429 -0.1679 -0.0343
 1297TIP3    H125306   5.094   2.745  12.943 -0.6338  2.7024 -0.4724
 1297TIP3    H225307   5.011   2.750  13.069  0.1147 -0.0407  0.2057
 1298TIP3   OH225308   4.456   4.903  15.787  0.6491  0.5276 -0.1288
 1298TIP3    H125309   4.430   4.813  15.767  1.7148 -0.3596  2.0728
 1298TIP3    H225310   4.430   4.953  15.710 -2.3092 -1.1909 -0.4091
 1299TIP3   OH225311   4.977   6.735  15.371 -0.0686 -0.0790  0.0359
 1299TIP3    H125312   5.031   6.697  15.440  0.7720  0.2939 -0.3946
 1299TIP3    H225313   5.027   6.719  15.290 -0.1244  1.1173 -0.2594
 1300TIP3   OH225314   3.934   3.910   1.544 -0.4039 -0.4114 -0.3631
 1300TIP3    H125315   3.937   3.876   1.454 -1.6677  0.1940 -0.6538
 1300TIP3    H225316   3.987   3.990   1.542  0.5644 -1.0354 -0.2629
 1301TIP3   OH225317   1.056   4.471  15.926  0.2886  0.4791  0.0364
 1301TIP3    H125318   1.106   4.527  15.867  0.5751  0.7645  0.5441
 1301TIP3    H225319   1.120   4.412  15.965  0.5035  1.7449  1.7299
 1302TIP3   OH225320   4.331   6.073   4.453 -0.2267  0.2280 -0.3421
 1302TIP3    H125321   4.243   6.036   4.462  0.1833 -1.2826 -2.0556
 1302TIP3    H225322   4.318   6.168   4.457 -1.6130  0.0157  1.7330
 1303TIP3   OH225323   3.235   6.014  12.597  0.0694 -0.0696  0.2491
 1303TIP3    H125324   3.236   5.996  12.503  2.1178  0.1828  0.1778
 1303TIP3    H225325   3.152   5.978  12.627 -0.6860 -0.0631 -1.6667
 1304TIP3   OH225326   3.910   3.961   6.634 -0.0093 -0.8135  0.1819
 1304TIP3    H125327   3.894   3.974   6.541  1.3213 -1.1130 -0.1033
 1304TIP3    H225328   3.904   4.049   6.672 -2.2336 -0.8821  0.1257
 1305TIP3   OH225329   2.464   6.520  16.517  0.1218 -0.2260  0.6460
 1305TIP3    H125330   2.376   6.500  16.547 -0.0719 -0.9738 -0.3443
 1305TIP3    H225331   2.488   6.445  16.463  0.5904  0.8477 -0.7105
 1306TIP3   OH225332   0.584   4.875   2.891  0.4296 -0.0839  0.0231
 1306TIP3    H125333   0.570   4.913   2.978  1.9367 -0.5845  0.5038
 1306TIP3    H225334   0.574   4.949   2.831 -0.4271  0.3026  0.6168
 1307TIP3   OH225335   1.839   2.741  15.771  0.2421 -0.1858  0.0668
 1307TIP3    H125336   1.870   2.744  15.680  0.7176 -0.7001  0.2032
 1307TIP3    H225337   1.920   2.745  15.823 -0.0539  0.6967  0.4877
 1308TIP3   OH225338   0.505   4.449   4.702 -0.0282 -0.0362  0.6109
 1308TIP3    H125339   0.524   4.396   4.625 -1.4223 -0.1318  0.3115
 1308TIP3    H225340   0.412   4.436   4.718 -0.2821  1.8267  0.8852
 1309TIP3   OH225341   4.078   2.182  17.251  0.8713 -0.1753  0.1948
 1309TIP3    H125342   3.987   2.210  17.266  0.5150 -1.0010 -0.3558
 1309TIP3    H225343   4.099   2.127  17.326  1.5304  1.3787  1.2142
 1310TIP3   OH225344   1.298   3.890  11.806  0.7185 -0.0029  0.1503
 1310TIP3    H125345   1.306   3.846  11.890 -0.6385  1.4036  1.0878
 1310TIP3    H225346   1.383   3.932  11.792  1.5455 -1.7041 -0.0773
 1311TIP3   OH225347   0.894   3.250  12.388 -0.2073 -0.2812 -0.0291
 1311TIP3    H125348   0.836   3.182  12.424  0.7773 -0.8166  0.5896
 1311TIP3    H225349   0.845   3.331  12.399 -1.3865 -0.8563 -0.7197
 1312TIP3   OH225350   3.038   5.259   5.424 -0.7100 -0.8645 -0.2562
 1312TIP3    H125351   3.073   5.301   5.345 -0.9051 -0.3468 -0.0731
 1312TIP3    H225352   3.114   5.219   5.466 -0.4177 -0.1876 -0.1286
 1313TIP3   OH225353   2.683   0.346  16.866  0.0426 -0.5077 -0.0516
 1313TIP3    H125354   2.599   0.309  16.893 -0.1151 -0.6589 -0.7203
 1313TIP3    H225355   2.710   0.292  16.791  0.6744 -0.3804  0.0795
 1314TIP3   OH225356   0.561   3.604  13.994  0.4070  0.0920  0.1308
 1314TIP3    H125357   0.613   3.684  13.993  0.8530 -0.1633 -2.1993
 1314TIP3    H225358   0.610   3.542  13.939 -1.5049 -0.6977 -0.7748
 1315TIP3   OH225359   0.291   5.724   1.275  0.2321 -0.1504  0.2162
 1315TIP3    H125360   0.340   5.793   1.319  2.0501 -1.4308  0.3511
 1315TIP3    H225361   0.267   5.663   1.345 -1.1200  0.1833  0.0656
 1316TIP3   OH225362   3.063   1.972  10.998 -0.2224 -0.0744 -0.9110
 1316TIP3    H125363   3.068   1.928  11.083  1.0615  0.4168 -0.7002
 1316TIP3    H225364   3.145   2.021  10.993 -0.9095  0.9942 -1.8477
 1317TIP3   OH225365   0.474   5.358  13.049  0.2891  0.2574 -0.4929
 1317TIP3    H125366   0.439   5.273  13.077  0.6557  0.3711  0.3372
 1317TIP3    H225367   0.397   5.406  13.018 -0.2919  0.4048  1.0511
 1318TIP3   OH225368   1.838   2.630  12.688  0.1780  0.4525  0.2216
 1318TIP3    H125369   1.842   2.636  12.592  0.7945 -0.2877  0.1943
 1318TIP3    H225370   1.913   2.680  12.718  0.3755  0.1263  0.2840
 1319TIP3   OH225371   3.272   5.175   5.554 -0.3194 -0.9088  0.2923
 1319TIP3    H125372   3.352   5.168   5.502  0.2940 -0.6606  1.1898
 1319TIP3    H225373   3.277   5.102   5.615 -0.9154 -1.0516  0.1732
 1320TIP3   OH225374   3.329   2.797  15.471 -0.1941  0.2288  0.0491
 1320TIP3    H125375   3.360   2.872  15.420  2.9782 -0.9562  0.0097
 1320TIP3    H225376   3.334   2.723  15.410  1.3476 -0.7910  1.3630
 1321TIP3   OH225377   4.487   1.553  12.487  0.5215  0.0620  0.7397
 1321TIP3    H125378   4.452   1.464  12.487  0.0716  0.1903  2.5259
 1321TIP3    H225379   4.568   1.548  12.437 -0.3661 -0.9650 -0.6496
 1322TIP3   OH225380   5.233   0.629   0.468  0.3297 -0.0301 -0.0925
 1322TIP3    H125381   5.280   0.610   0.387 -1.2181 -0.1243 -1.0103
 1322TIP3    H225382   5.222   0.543   0.509 -1.2727 -0.3976 -1.1832
 1323TIP3   OH225383   3.692   4.114   0.874  0.2642  0.2251  0.0227
 1323TIP3    H125384   3.758   4.146   0.811 -0.0071  1.7897  0.4913
 1323TIP3    H225385   3.699   4.174   0.948 -0.8459 -0.3401  0.6023
 1324TIP3   OH225386   1.599   6.090   5.471  0.1603  0.3157  0.4432
 1324TIP3    H125387   1.663   6.151   5.435  0.0596  0.6312  0.7877
 1324TIP3    H225388   1.515   6.124   5.440  0.1334  0.1174  0.3002
 1325TIP3   OH225389   5.897   0.323   0.811  0.2475  0.1562 -0.2028
 1325TIP3    H125390   5.895   0.344   0.905 -0.9068 -1.0745  0.0853
 1325TIP3    H225391   5.988   0.336   0.786  0.7713 -0.2954  1.3166
 1326TIP3   OH225392   0.710   0.764  15.781 -0.3999  0.3158 -0.0748
 1326TIP3    H125393   0.710   0.826  15.854  0.3690 -0.7407  0.8466
 1326TIP3    H225394   0.619   0.733  15.777 -0.4804  0.4876  0.3411
 1327TIP3   OH225395   6.091   4.944  12.870  0.3841 -0.1862 -0.2908
 1327TIP3    H125396   6.165   4.884  12.864  0.9479  0.4910 -0.2113
 1327TIP3    H225397   6.014   4.887  12.877  1.0103 -0.9029  1.0955
 1328TIP3   OH225398   1.783   4.605  15.806 -0.1320  0.0906  0.9369
 1328TIP3    H125399   1.830   4.586  15.887  1.6608  0.7890  0.1278
 1328TIP3    H225400   1.747   4.520  15.779  0.8654 -0.5358  1.5055
 1329TIP3   OH225401   6.491   5.564   1.407 -0.4091 -0.3796  0.0703
 1329TIP3    H125402   6.411   5.521   1.439  0.8066 -1.6896  1.5197
 1329TIP3    H225403   6.514   5.625   1.476  0.3011 -0.6377  0.0670
 1330TIP3   OH225404   4.545   1.842  16.137  0.1802 -0.2623 -0.6169
 1330TIP3    H125405   4.594   1.837  16.056  2.2137 -0.7341  0.5706
 1330TIP3    H225406   4.545   1.753  16.172  1.9221  0.3996  1.2850
 1331TIP3   OH225407   3.756   4.224  14.366  0.0830 -0.3043  0.2647
 1331TIP3    H125408   3.843   4.264  14.359  0.9435 -2.2995 -1.4657
 1331TIP3    H225409   3.696   4.298  14.363  1.6692  1.0626  0.3702
 1332TIP3   OH225410   5.386   4.479  11.620  0.1051 -0.3948  0.3989
 1332TIP3    H125411   5.393   4.383  11.616 -2.7849 -0.6974  0.5893
 1332TIP3    H225412   5.417   4.508  11.535 -0.2361 -1.6277 -0.1741
 1333TIP3   OH225413   1.394   3.115  12.645  0.2125  0.6042 -0.1231
 1333TIP3    H125414   1.312   3.133  12.692 -0.7183 -1.0896 -0.9927
 1333TIP3    H225415   1.375   3.137  12.554  0.2387 -1.1094 -0.5686
 1334TIP3   OH225416   6.326   5.293  13.893 -0.3133 -0.6255 -0.0430
 1334TIP3    H125417   6.383   5.355  13.939  0.3700 -1.3037  0.0479
 1334TIP3    H225418   6.277   5.249  13.962 -0.0560 -0.8946 -0.0267
 1335TIP3   OH225419   1.449   5.250   2.098 -0.3104  0.0015  0.3808
 1335TIP3    H125420   1.416   5.340   2.101  0.1894  0.2537 -0.9159
 1335TIP3    H225421   1.506   5.248   2.020 -1.2769 -1.7631 -0.3350
 1336TIP3   OH225422   0.856   2.180   5.227  0.6420  0.0137  0.0847
 1336TIP3    H125423   0.893   2.095   5.251  2.6326  0.4238 -1.2612
 1336TIP3    H225424   0.814   2.164   5.143  1.2150  0.3712 -0.2813
 1337TIP3   OH225425   0.163   5.490  16.716  0.0317  0.1039  0.2628
 1337TIP3    H125426   0.204   5.464  16.633  2.0328  0.0531  1.2105
 1337TIP3    H225427   0.169   5.411  16.770  2.6406  1.2551  1.8520
 1338TIP3   OH225428   5.537   4.368  12.413 -0.5925 -0.0983 -0.3544
 1338TIP3    H125429   5.456   4.383  12.365 -1.2837 -0.8961  0.5327
 1338TIP3    H225430   5.604   4.413  12.362 -2.1337  4.1765  0.9423
 1339TIP3   OH225431   2.648   0.218   1.629 -0.6823 -0.6941  0.4462
 1339TIP3    H125432   2.581   0.274   1.667 -1.1877 -1.3486  0.5296
 1339TIP3    H225433   2.691   0.177   1.704  0.2591  0.2221  0.4228
 1340TIP3   OH225434   6.273   2.767   0.985  0.1837  0.5968  0.0399
 1340TIP3    H125435   6.341   2.765   0.918 -1.0368  1.4553 -1.2931
 1340TIP3    H225436   6.262   2.859   1.006 -0.8801  0.5268 -0.1340
 1341TIP3   OH225437   3.574   2.242  13.091 -0.6194  0.3634  0.2752
 1341TIP3    H125438   3.480   2.244  13.111 -0.3313  0.6354  1.7499
 1341TIP3    H225439   3.615   2.214  13.174  0.4370 -2.1300 -0.9653
 1342TIP3   OH225440   6.536   1.930  12.923  0.0990  0.5514 -0.1330
 1342TIP3    H125441   6.515   1.840  12.949 -1.4511  1.2381  1.2001
 1342TIP3    H225442   6.455   1.964  12.886  0.4444  1.6183  0.0589
 1343TIP3   OH225443   0.603   3.006   0.417  0.5399 -0.3592  0.1048
 1343TIP3    H125444   0.513   3.003   0.448  0.5154  1.3054  0.2561
 1343TIP3    H225445   0.656   2.997   0.497  0.5074 -0.8085  0.0764
 1344TIP3   OH225446   3.285   4.691   5.485  0.1516 -0.1681 -1.0871
 1344TIP3    H125447   3.331   4.650   5.412 -0.6180  0.1451 -1.7638
 1344TIP3    H225448   3.196   4.658   5.479  0.0747 -0.1407 -0.2776
 1345TIP3   OH225449   3.580   5.404  12.740 -0.1151 -0.5077 -0.0111
 1345TIP3    H125450   3.579   5.347  12.663 -1.8215 -0.2279 -0.2432
 1345TIP3    H225451   3.539   5.353  12.809 -1.3882  0.2578 -0.1448
 1346TIP3   OH225452   6.668   3.933  17.069  0.5625 -0.8641  0.4482
 1346TIP3    H125453   6.602   3.888  17.017 -0.2949 -1.9671  2.3792
 1346TIP3    H225454   6.678   4.018  17.025 -3.0958 -0.1090  0.6973
 1347TIP3   OH225455   4.874   2.145  11.920  0.1124 -0.0189 -0.2098
 1347TIP3    H125456   4.894   2.127  12.012 -0.5234 -1.6093 -0.3508
 1347TIP3    H225457   4.813   2.219  11.923 -0.7915 -0.7710  0.7285
 1348TIP3   OH225458   2.188   5.924  16.655  0.3739 -0.3299 -0.6566
 1348TIP3    H125459   2.228   5.997  16.608  0.5456  0.2373  0.3344
 1348TIP3    H225460   2.261   5.881  16.700  0.0133  0.2882  0.5930
 1349TIP3   OH225461   1.715   0.892   4.234  0.9604 -0.1097  0.0616
 1349TIP3    H125462   1.778   0.953   4.273  0.2999 -0.5717  2.0141
 1349TIP3    H225463   1.762   0.809   4.228  1.1193  0.0057 -0.2862
 1350TIP3   OH225464   1.110   3.595  14.743 -0.5853  0.1308  0.1334
 1350TIP3    H125465   1.098   3.525  14.807  1.6485 -1.2843 -0.8586
 1350TIP3    H225466   1.035   3.587  14.684  0.1926 -2.2666 -0.6407
 1351TIP3   OH225467   2.193   3.185   0.051  0.2356  0.0046 -0.4740
 1351TIP3    H125468   2.272   3.238   0.040 -0.5723  1.8351  1.5989
 1351TIP3    H225469   2.212   3.129   0.126 -0.1378 -0.1329 -0.4778
 1352TIP3   OH225470   4.651   4.472   0.843  0.5377  0.3588  0.2425
 1352TIP3    H125471   4.732   4.454   0.796 -0.2168 -1.3869 -0.4802
 1352TIP3    H225472   4.626   4.560   0.816  0.1792 -0.5275 -2.6697
 1353TIP3   OH225473   3.025   3.235  15.033  0.0219 -0.3020 -0.0475
 1353TIP3    H125474   2.945   3.268  15.074  0.7225 -0.2623  1.3603
 1353TIP3    H225475   3.028   3.143  15.058  0.4874 -0.2599  0.0628
 1354TIP3   OH225476   4.313   1.338  14.911  0.1340  0.1955 -0.2462
 1354TIP3    H125477   4.228   1.313  14.873  0.2857 -0.7976  0.0588
 1354TIP3    H225478   4.375   1.274  14.876  0.5328  0.1466  0.5320
 1355TIP3   OH225479   6.084   5.686   3.827 -0.0746 -0.0203 -0.0192
 1355TIP3    H125480   6.051   5.713   3.913 -2.0415  0.3943 -0.8526
 1355TIP3    H225481   6.088   5.767   3.776 -1.5526 -0.5992 -1.1240
 1356TIP3   OH225482   1.748   5.894   0.866  0.2332 -0.1839  0.1147
 1356TIP3    H125483   1.764   5.951   0.790  2.4115 -1.2904 -0.3396
 1356TIP3    H225484   1.774   5.807   0.836 -0.9302 -1.0413  1.4929
 1357TIP3   OH225485   5.100   6.615  12.541 -0.3476 -0.1370 -0.3252
 1357TIP3    H125486   5.081   6.686  12.602 -0.4067  0.4749 -1.0351
 1357TIP3    H225487   5.107   6.658  12.456  1.9850 -0.6508 -0.4622
 1358TIP3   OH225488   1.309   6.692   6.555 -0.1260  0.2702 -0.0906
 1358TIP3    H125489   1.230   6.698   6.502 -1.5105 -0.8259  1.7293
 1358TIP3    H225490   1.278   6.668   6.642  1.9499  2.8389  1.5149
 1359TIP3   OH225491   4.925   4.009   2.807  0.3273 -0.1952 -0.1247
 1359TIP3    H125492   4.959   3.919   2.806  0.3108 -0.2069  0.3165
 1359TIP3    H225493   5.001   4.064   2.823  0.3068 -0.1438 -0.2029
 1360TIP3   OH225494   3.390   5.966   1.779 -0.3945 -0.0139 -0.4382
 1360TIP3    H125495   3.322   6.027   1.750  0.6072  0.9716 -0.7729
 1360TIP3    H225496   3.341   5.889   1.809 -1.7523  1.3093  0.9320
 1361TIP3   OH225497   2.694   0.644  17.228 -0.4502  0.2684 -0.0847
 1361TIP3    H125498   2.770   0.602  17.188 -0.4756  0.7875 -0.6993
 1361TIP3    H225499   2.700   0.623  17.321 -0.6613 -1.3887 -0.4202
 1362TIP3   OH225500   0.210   1.935   6.610  0.5776 -0.0106 -0.4684
 1362TIP3    H125501   0.155   1.925   6.688 -0.3403 -0.4614 -1.1645
 1362TIP3    H225502   0.211   2.029   6.593  1.4915  0.1950  0.5739
 1363TIP3   OH225503   5.865   4.040  16.035  0.2444 -0.4193  0.7331
 1363TIP3    H125504   5.811   3.962  16.022  0.6766 -0.6866  0.5136
 1363TIP3    H225505   5.805   4.105  16.073 -0.9570  0.1852 -1.9555
 1364TIP3   OH225506   5.503   5.744   4.503 -0.4304 -0.6396  0.1900
 1364TIP3    H125507   5.429   5.788   4.544 -0.1879 -0.1606  0.1224
 1364TIP3    H225508   5.568   5.813   4.491 -0.3673 -0.8464 -0.6875
 1365TIP3   OH225509   5.593   2.375   2.166  0.4746 -0.0866  0.0124
 1365TIP3    H125510   5.670   2.353   2.114  0.2481 -1.0853  0.0879
 1365TIP3    H225511   5.629   2.414   2.246  0.8897 -0.3160 -0.0597
 1366TIP3   OH225512   2.680   3.875  15.724 -0.1240  0.0496  0.4743
 1366TIP3    H125513   2.685   3.935  15.798 -0.0240  1.0528 -0.3334
 1366TIP3    H225514   2.744   3.806  15.745  3.0197  2.4127 -0.5142
 1367TIP3   OH225515   5.921   2.605  14.976 -0.1721 -0.1037  0.1745
 1367TIP3    H125516   5.999   2.604  15.031 -1.5059 -0.5518  2.1930
 1367TIP3    H225517   5.870   2.680  15.007 -0.7948 -0.1370 -0.7232
 1368TIP3   OH225518   3.486   5.100  16.525  0.1465  0.6045  0.0435
 1368TIP3    H125519   3.566   5.054  16.549 -0.5750 -0.7400 -0.0353
 1368TIP3    H225520   3.515   5.170  16.467  1.2334 -0.0447 -0.2282
 1369TIP3   OH225521   5.272   1.569  16.295  0.2719 -0.1398  0.0910
 1369TIP3    H125522   5.190   1.539  16.256  0.4289 -0.1848 -0.2038
 1369TIP3    H225523   5.269   1.664  16.287  0.8365 -0.2065 -1.1143
 1370TIP3   OH225524   2.965   1.325  14.022  0.3626 -0.5025 -0.2332
 1370TIP3    H125525   2.966   1.319  14.118  2.1653 -1.0951 -0.2587
 1370TIP3    H225526   3.042   1.275  13.994 -0.4432 -0.8196 -2.0314
 1371TIP3   OH225527   0.587   1.941  12.450 -0.1193  0.1288 -0.0430
 1371TIP3    H125528   0.562   1.887  12.375  1.2888  0.5706 -0.8604
 1371TIP3    H225529   0.516   1.928  12.513 -1.4337 -0.0955 -1.5118
 1372TIP3   OH225530   1.788   0.361   0.661 -0.2426 -0.2892 -0.3090
 1372TIP3    H125531   1.866   0.305   0.658  0.3531  0.4137  1.3548
 1372TIP3    H225532   1.720   0.309   0.617  0.2420 -2.4286  1.3047
 1373TIP3   OH225533   2.877   6.745   2.056 -0.3279 -0.3967  0.2494
 1373TIP3    H125534   2.882   6.682   2.128  0.4493 -0.6188  0.0101
 1373TIP3    H225535   2.837   6.697   1.984  0.4648 -0.6902 -0.0021
 1374TIP3   OH225536   5.289   6.044   5.137  0.5591 -0.1454  0.5111
 1374TIP3    H125537   5.206   6.086   5.160  0.8775  0.9540 -0.2417
 1374TIP3    H225538   5.265   5.953   5.116 -0.3844  0.0450  0.7108
 1375TIP3   OH225539   6.379   1.231   1.024  0.4065 -0.5679  0.2363
 1375TIP3    H125540   6.314   1.174   0.982 -1.2857 -0.5908  2.6417
 1375TIP3    H225541   6.377   1.312   0.973 -0.9951 -0.8512 -0.2096
 1376TIP3   OH225542   4.847   1.667  15.398  0.6625  0.3306  0.1049
 1376TIP3    H125543   4.919   1.605  15.405  2.2891  1.9352 -1.2239
 1376TIP3    H225544   4.879   1.745  15.443 -1.2006  0.3681  1.4789
 1377TIP3   OH225545   2.328   1.917   2.559  0.1148  0.6666  0.5812
 1377TIP3    H125546   2.343   1.989   2.497 -0.7877 -0.2729 -0.7912
 1377TIP3    H225547   2.248   1.874   2.527  0.5119 -0.8242  1.4807
 1378TIP3   OH225548   1.913   4.719   0.638 -0.2092  0.0758 -0.2084
 1378TIP3    H125549   2.003   4.750   0.630 -0.3212  1.2774  2.3481
 1378TIP3    H225550   1.913   4.664   0.717 -1.6084 -0.2866 -0.4218
 1379TIP3   OH225551   0.372   1.586  12.177 -0.1493 -0.3837  0.4976
 1379TIP3    H125552   0.342   1.674  12.155  0.9544 -0.4588 -1.5246
 1379TIP3    H225553   0.357   1.535  12.097  3.1141 -0.9682  0.1212
 1380TIP3   OH225554   4.490   5.181  11.826  0.2563  0.0029 -0.1085
 1380TIP3    H125555   4.509   5.229  11.907  1.1176  0.3848 -0.5138
 1380TIP3    H225556   4.397   5.162  11.830  0.6330 -1.7330  1.9021
 1381TIP3   OH225557   5.635   5.370   3.596  0.2236  0.0942 -0.4692
 1381TIP3    H125558   5.605   5.342   3.683  0.5538  1.0218 -0.0384
 1381TIP3    H225559   5.556   5.372   3.543 -0.6557  2.8762  0.7459
 1382TIP3   OH225560   0.001   2.868  16.550  0.2256 -0.1834  0.1150
 1382TIP3    H125561   0.051   2.787  16.558 -2.8371 -2.1993  0.6792
 1382TIP3    H225562  -0.027   2.870  16.458 -0.5958 -0.3977  0.3481
 1383TIP3   OH225563   2.210   5.588  13.715 -0.0815 -0.1792  0.2265
 1383TIP3    H125564   2.232   5.617  13.626 -0.9967  1.3807  0.4754
 1383TIP3    H225565   2.153   5.512  13.701  0.6258 -0.5950 -0.4935
 1384TIP3   OH225566   3.980   0.576   6.565  0.3854  0.2015 -0.4853
 1384TIP3    H125567   4.048   0.511   6.583  0.6527  0.8265  0.9176
 1384TIP3    H225568   3.918   0.566   6.638  0.2507  1.2845 -0.4398
 1385TIP3   OH225569   2.973   1.004  16.512  0.4973 -0.1686  0.6008
 1385TIP3    H125570   2.879   1.014  16.497  0.6385  0.2436 -0.0249
 1385TIP3    H225571   3.010   0.993  16.425  0.9011 -1.5362  0.9181
 1386TIP3   OH225572   6.119   5.999  17.098 -0.6924 -0.0562  0.4048
 1386TIP3    H125573   6.214   6.006  17.090 -0.6821 -0.6748 -0.0754
 1386TIP3    H225574   6.094   5.932  17.034 -1.5624  0.7974 -0.1789
 1387TIP3   OH225575   1.134   0.937   1.435  0.4227 -0.2817  0.1920
 1387TIP3    H125576   1.136   0.843   1.420 -1.8832 -0.4982  0.8412
 1387TIP3    H225577   1.051   0.966   1.397  0.5655  1.3086  0.9793
 1388TIP3   OH225578   4.562   2.618   0.543 -0.5886  0.2878  0.3598
 1388TIP3    H125579   4.482   2.659   0.509 -1.0701 -1.7174 -1.0532
 1388TIP3    H225580   4.632   2.654   0.488 -0.5975  1.3619  1.0166
 1389TIP3   OH225581   4.836   6.704   1.664  0.2330  0.1377  0.0033
 1389TIP3    H125582   4.840   6.786   1.615  0.1216  0.1870  0.0760
 1389TIP3    H225583   4.789   6.726   1.745  0.8765  0.1778  0.3755
 1390TIP3   OH225584   1.306   2.911   0.396  0.0511 -0.5131 -0.1410
 1390TIP3    H125585   1.326   2.874   0.483  1.2435 -0.9200 -0.5695
 1390TIP3    H225586   1.308   3.006   0.410 -0.5329 -0.5702  0.4273
 1391TIP3   OH225587   1.121   4.521  15.077  0.3245  0.3432  0.0602
 1391TIP3    H125588   1.044   4.523  15.019 -0.6052 -2.7287  1.0292
 1391TIP3    H225589   1.162   4.607  15.063 -2.9712  1.9756 -0.8617
 1392TIP3   OH225590   6.008   3.740  12.089  0.2272 -0.1250  0.4212
 1392TIP3    H125591   5.948   3.665  12.092  0.4510 -0.4422 -1.7912
 1392TIP3    H225592   6.095   3.700  12.092  0.3573  0.1820  0.9534
 1393TIP3   OH225593   5.596   0.417  14.541  0.0570 -0.2546  0.3356
 1393TIP3    H125594   5.685   0.437  14.570  0.6162 -2.7387  0.5724
 1393TIP3    H225595   5.539   0.454  14.608  0.8765  1.4249  0.1398
 1394TIP3   OH225596   2.212   4.453  17.021 -0.3306  0.0504 -0.4886
 1394TIP3    H125597   2.151   4.382  17.045  1.2738 -1.7645 -1.4745
 1394TIP3    H225598   2.180   4.484  16.937  0.3484 -1.2617 -1.2651
 1395TIP3   OH225599   5.675   1.182  12.221 -0.5208 -0.2021 -0.5248
 1395TIP3    H125600   5.743   1.138  12.271 -0.2287  0.8594  0.0576
 1395TIP3    H225601   5.718   1.207  12.139  0.5519  2.4554  0.7248
 1396TIP3   OH225602   5.509   6.490   5.219 -0.0574 -0.4873  0.6455
 1396TIP3    H125603   5.569   6.445   5.279  0.4558 -1.3617 -0.4831
 1396TIP3    H225604   5.567   6.532   5.155 -0.4725  2.3889  2.0020
 1397TIP3   OH225605   1.588   2.997   5.353 -0.5473 -0.1462 -0.1578
 1397TIP3    H125606   1.541   3.077   5.333  3.2246  2.1986 -0.7358
 1397TIP3    H225607   1.639   2.979   5.274  2.1732 -0.3109  1.5024
 1398TIP3   OH225608   3.332   4.716   3.716 -0.2243  0.3314  0.7629
 1398TIP3    H125609   3.313   4.807   3.691  1.7855  0.5100 -0.2771
 1398TIP3    H225610   3.411   4.693   3.667 -0.7609 -2.0507  0.8904
 1399TIP3   OH225611   4.752   5.747   3.660  0.1129  0.1147  0.0198
 1399TIP3    H125612   4.686   5.732   3.727 -0.7958 -0.3308 -0.9448
 1399TIP3    H225613   4.831   5.704   3.693  0.7263  2.7606  2.3583
 1400TIP3   OH225614   5.105   1.929  13.202  0.0432 -0.7244 -0.4367
 1400TIP3    H125615   5.081   1.846  13.161 -1.0627 -0.6845  0.0967
 1400TIP3    H225616   5.193   1.948  13.168  0.3104 -2.1023 -0.5639
 1401TIP3   OH225617   6.125   2.268   5.350 -0.5284 -0.6520  0.3311
 1401TIP3    H125618   6.100   2.300   5.437 -0.6939 -0.6181  0.2706
 1401TIP3    H225619   6.175   2.188   5.368 -2.4670 -1.9154  0.3846
 1402TIP3   OH225620   4.629   0.842  14.257  0.0117 -0.5021  0.2159
 1402TIP3    H125621   4.537   0.816  14.256  0.2069 -1.2058 -1.1973
 1402TIP3    H225622   4.657   0.834  14.166  1.5041 -0.3773  0.6454
 1403TIP3   OH225623   4.530   2.254  14.179 -0.0021 -0.0247 -0.3069
 1403TIP3    H125624   4.547   2.189  14.111 -3.5272 -3.0874  1.4095
 1403TIP3    H225625   4.570   2.217  14.258 -2.0663 -0.2117  0.7049
 1404TIP3   OH225626   5.816   3.822  16.371 -0.0148  0.5742 -0.4292
 1404TIP3    H125627   5.814   3.916  16.386 -2.9071  0.2946  1.7458
 1404TIP3    H225628   5.907   3.797  16.387  0.7671  2.9094 -0.8215
 1405TIP3   OH225629   6.437   1.027  13.238 -0.5258  0.1287  0.0734
 1405TIP3    H125630   6.527   1.034  13.205 -0.0195  0.0121  1.3522
 1405TIP3    H225631   6.448   1.003  13.330 -1.8386  1.2589  0.5573
 1406TIP3   OH225632   4.009   1.334   2.371 -0.4740  0.2651 -0.0130
 1406TIP3    H125633   4.088   1.377   2.403  0.4723 -1.3637 -0.0439
 1406TIP3    H225634   4.035   1.295   2.287 -1.1233 -0.8119  0.2718
 1407TIP3   OH225635   3.358   1.321   4.903 -0.0928  0.2252  0.0264
 1407TIP3    H125636   3.285   1.266   4.930  0.7744 -3.1371 -3.5644
 1407TIP3    H225637   3.436   1.272   4.929  0.8237  1.4073 -0.3821
 1408TIP3   OH225638   6.196   2.450   4.127  0.4886 -0.6086  0.2195
 1408TIP3    H125639   6.238   2.457   4.042  0.1767 -1.6265 -0.0198
 1408TIP3    H225640   6.121   2.510   4.122  1.0055  0.0499  0.1236
 1409TIP3   OH225641   6.120   1.843  16.880  0.2320 -0.0100 -0.1379
 1409TIP3    H125642   6.111   1.930  16.920 -0.4517  0.0831 -0.4829
 1409TIP3    H225643   6.101   1.858  16.787  0.5312 -0.4555 -0.2708
 1410TIP3   OH225644   5.925   3.072   4.530  0.3381  0.3163 -0.9850
 1410TIP3    H125645   5.829   3.071   4.532  0.3481 -0.5874  0.9214
 1410TIP3    H225646   5.948   3.165   4.522 -0.7286  0.7663  0.6065
 1411TIP3   OH225647   3.139   3.706  14.220  0.0993  0.4592  0.0475
 1411TIP3    H125648   3.127   3.646  14.294 -2.6394  1.4106  0.5012
 1411TIP3    H225649   3.087   3.669  14.150  0.2500  1.1181 -0.4187
 1412TIP3   OH225650   1.747   5.504  13.017  0.0998  0.2038 -0.0995
 1412TIP3    H125651   1.756   5.454  12.936 -1.7568  0.9250 -0.8272
 1412TIP3    H225652   1.768   5.594  12.992 -0.8611  0.4965  0.0976
 1413TIP3   OH225653   6.637   2.275  11.852  0.9685 -0.3157 -0.3435
 1413TIP3    H125654   6.697   2.220  11.802 -0.7997 -1.2634 -1.5330
 1413TIP3    H225655   6.569   2.300  11.789 -0.6517 -0.4742  1.2648
 1414TIP3   OH225656   5.494   3.449  14.723  0.2638  0.1189  0.3436
 1414TIP3    H125657   5.579   3.480  14.691 -0.5719  1.5162 -0.6278
 1414TIP3    H225658   5.430   3.503  14.677 -1.1488 -0.6435  1.3432
 1415TIP3   OH225659   2.042   3.604  14.240  0.0370  0.7002 -0.1987
 1415TIP3    H125660   2.105   3.650  14.295  2.4483 -0.9531 -1.3615
 1415TIP3    H225661   1.993   3.674  14.196  0.0165  2.0466  1.8276
 1416TIP3   OH225662   0.098   3.270   2.163  0.5248 -0.0928  0.3139
 1416TIP3    H125663   0.064   3.300   2.247  0.0835 -0.5346  0.2958
 1416TIP3    H225664   0.050   3.189   2.145  1.2433 -0.4668  0.0551
 1417TIP3   OH225665   2.080   6.559   1.582 -0.4346 -0.0992  0.0451
 1417TIP3    H125666   2.127   6.479   1.557  0.2727 -0.0702  1.2198
 1417TIP3    H225667   2.137   6.601   1.646 -1.4722  0.6129  0.5181
 1418TIP3   OH225668   1.492   2.004  17.137 -0.0012 -0.5300 -0.6620
 1418TIP3    H125669   1.405   2.035  17.113 -0.8813 -1.2198  1.3668
 1418TIP3    H225670   1.552   2.063  17.092 -1.3623 -1.7781 -4.4408
 1419TIP3   OH225671   6.688   6.040  15.950 -0.7724 -0.4813 -0.0238
 1419TIP3    H125672   6.768   5.991  15.934  0.5256  2.0038 -2.0918
 1419TIP3    H225673   6.693   6.067  16.041  1.4130  0.5352 -0.3673
 1420TIP3   OH225674   0.562   4.243   4.540 -0.1155  0.4409 -0.5156
 1420TIP3    H125675   0.523   4.170   4.492 -2.1621  0.3300  1.1589
 1420TIP3    H225676   0.588   4.204   4.624  1.4941  1.0441 -0.7013
 1421TIP3   OH225677   1.036   2.690   4.290  0.1736  0.4438  0.3295
 1421TIP3    H125678   0.969   2.642   4.240  0.6155  0.0739  0.0833
 1421TIP3    H225679   1.064   2.627   4.357  3.1594 -0.9546 -2.0208
 1422TIP3   OH225680   4.948   2.097  14.519 -0.2993 -0.4555 -0.2015
 1422TIP3    H125681   4.953   2.118  14.426  0.6381  0.4543  0.0268
 1422TIP3    H225682   4.894   2.167  14.557 -0.0695 -0.4110  0.0466
 1423TIP3   OH225683   1.759   2.195   5.244  0.3394 -0.0203  0.0808
 1423TIP3    H125684   1.705   2.212   5.167 -1.4622  2.3027  1.7459
 1423TIP3    H225685   1.738   2.104   5.267  0.5344 -0.6027 -1.7982
 1424TIP3   OH225686   1.412   1.020  17.044  0.0882  0.1151 -0.5998
 1424TIP3    H125687   1.367   1.042  16.962 -1.2910 -0.9116 -0.1663
 1424TIP3    H225688   1.483   0.962  17.018  0.8612  1.3264 -1.2493
 1425TIP3   OH225689   1.188   3.053  15.741 -0.0061 -0.5738 -0.3173
 1425TIP3    H125690   1.252   3.001  15.790  0.2932 -0.7297 -0.8671
 1425TIP3    H225691   1.107   3.002  15.747 -0.0800 -0.3851  0.3614
 1426TIP3   OH225692   3.742   5.220  16.827  0.3983  0.0156 -0.1754
 1426TIP3    H125693   3.669   5.163  16.849  1.6797 -1.0254  1.5919
 1426TIP3    H225694   3.771   5.257  16.910  3.0618 -1.1130 -0.4803
 1427TIP3   OH225695   2.995   6.238  14.625 -0.7742  0.6363 -0.1276
 1427TIP3    H125696   2.934   6.174  14.663 -1.4168  1.4056  0.1449
 1427TIP3    H225697   2.939   6.298  14.576  0.0478 -0.6197 -2.8020
 1428TIP3   OH225698   6.002   1.321  16.856  0.0037  0.2643 -0.6315
 1428TIP3    H125699   6.048   1.405  16.861  0.9119 -0.2266 -0.5665
 1428TIP3    H225700   6.001   1.299  16.763  0.1039  0.1622 -0.6091
 1429TIP3   OH225701   4.120   5.989   5.171 -0.1336 -0.0181 -0.5009
 1429TIP3    H125702   4.138   5.897   5.188  3.1217  0.9971  3.0887
 1429TIP3    H225703   4.068   6.018   5.246 -0.8266  1.1502 -1.3974
 1430TIP3   OH225704   2.423   1.587  17.241 -0.2306 -0.7365 -0.0821
 1430TIP3    H125705   2.492   1.652  17.247 -0.5265 -0.3649 -0.6763
 1430TIP3    H225706   2.370   1.614  17.166 -0.0455 -1.9530 -0.6813
 1431TIP3   OH225707   3.288   6.479  16.726  0.3433 -0.0225  0.0701
 1431TIP3    H125708   3.285   6.575  16.733  0.5689  0.1308 -1.5373
 1431TIP3    H225709   3.320   6.450  16.812  1.0676  1.3894  0.3175
 1432TIP3   OH225710   5.466   3.986  13.979 -0.3437 -0.5572 -0.0608
 1432TIP3    H125711   5.501   3.922  13.916 -0.7311 -0.1675 -0.6815
 1432TIP3    H225712   5.498   3.955  14.064  1.1135 -0.4738 -0.5463
 1433TIP3   OH225713   6.165   0.604  15.741  0.2239  0.4053  0.3449
 1433TIP3    H125714   6.138   0.696  15.736 -1.2888  0.1161  2.1629
 1433TIP3    H225715   6.176   0.588  15.835  0.1815 -1.3580  0.0693
 1434TIP3   OH225716   5.785   1.938  16.829 -0.2255  0.3117 -0.1636
 1434TIP3    H125717   5.721   1.914  16.761  1.4131 -1.1931 -1.2672
 1434TIP3    H225718   5.865   1.892  16.803  0.6000  0.0727  2.5770
 1435TIP3   OH225719   2.612   2.968  12.083  0.1233 -0.4239  0.1686
 1435TIP3    H125720   2.599   2.895  12.144  0.9478 -0.7512 -0.0407
 1435TIP3    H225721   2.534   2.967  12.028 -0.9058  0.2248  1.5571
 1436TIP3   OH225722   5.633   0.761   4.922  0.0765 -0.0787  0.1201
 1436TIP3    H125723   5.687   0.830   4.961 -1.2308  0.1192  1.7089
 1436TIP3    H225724   5.544   0.795   4.926 -0.1925 -0.1842 -2.9249
 1437TIP3   OH225725   0.247   5.649   4.208 -0.0686  0.4724 -0.2979
 1437TIP3    H125726   0.260   5.572   4.263  1.4216  0.3008 -0.8479
 1437TIP3    H225727   0.173   5.695   4.248  0.9094  0.3329  1.8213
 1438TIP3   OH225728   1.519   0.539  12.049 -0.3210 -0.4568  0.0489
 1438TIP3    H125729   1.590   0.491  12.093 -1.2933 -1.3144  0.7301
 1438TIP3    H225730   1.531   0.630  12.078 -0.0183 -0.7445  0.8708
 1439TIP3   OH225731   0.894   0.035  12.919 -0.2944  0.7026 -0.1717
 1439TIP3    H125732   0.882  -0.058  12.941  1.8131  0.4160 -0.0326
 1439TIP3    H225733   0.902   0.079  13.004 -1.0774  0.9901 -0.2418
 1440TIP3   OH225734   0.576   1.412  13.265  0.4547 -0.8600  0.5201
 1440TIP3    H125735   0.487   1.380  13.245  1.0291 -1.4936 -1.2232
 1440TIP3    H225736   0.621   1.335  13.300  0.4531 -0.6619  0.9583
 1441TIP3   OH225737   0.577   3.337  14.775  0.0893 -0.4491  0.1571
 1441TIP3    H125738   0.600   3.273  14.708  0.2384 -0.9344  0.6625
 1441TIP3    H225739   0.487   3.314  14.799 -0.1975  0.1362 -0.3382
 1442TIP3   OH225740   4.546   6.570   0.033  0.3116  0.5226 -0.1796
 1442TIP3    H125741   4.491   6.637  -0.008 -1.7917 -0.4317  0.9402
 1442TIP3    H225742   4.548   6.593   0.125  1.0564  0.0123 -0.0611
 1443TIP3   OH225743   6.583   1.735   1.676  0.0196  0.0022 -0.4590
 1443TIP3    H125744   6.656   1.715   1.616  2.0085 -0.0277  1.8111
 1443TIP3    H225745   6.570   1.654   1.725  0.5043  0.8469  1.1521
 1444TIP3   OH225746   6.747   3.720  15.728 -0.1421  0.2262  0.5315
 1444TIP3    H125747   6.681   3.653  15.744  1.0919 -1.3414 -0.6062
 1444TIP3    H225748   6.806   3.714  15.803  0.6567 -0.8822 -0.1499
 1445TIP3   OH225749   2.168   4.635  15.273  0.1843 -0.2128 -0.3315
 1445TIP3    H125750   2.180   4.617  15.366 -0.5753  2.2562  0.3239
 1445TIP3    H225751   2.247   4.683  15.248 -0.1640  0.1977 -0.6479
 1446TIP3   OH225752   5.634   1.797   5.676  0.6767 -0.2512  0.6965
 1446TIP3    H125753   5.647   1.813   5.770  1.5651  2.8078  0.1485
 1446TIP3    H225754   5.540   1.810   5.663  0.4980 -0.9969  1.1980
 1447TIP3   OH225755   3.925   2.072   3.352  0.3400  0.1064 -0.0150
 1447TIP3    H125756   4.002   2.023   3.381 -0.3968 -0.2861  1.4002
 1447TIP3    H225757   3.891   2.022   3.278 -0.1864 -1.3901  1.1650
 1448TIP3   OH225758   1.487   5.631   6.193  0.0113  0.4622 -0.2636
 1448TIP3    H125759   1.473   5.537   6.195 -0.8309  0.5546 -0.9691
 1448TIP3    H225760   1.477   5.655   6.101 -1.8224  1.4884  0.1401
 1449TIP3   OH225761   1.981   2.443  17.040 -0.5731  0.5141  0.4404
 1449TIP3    H125762   1.987   2.494  16.960 -0.9213  0.9301  0.6794
 1449TIP3    H225763   2.063   2.394  17.044 -1.3622 -1.0964 -1.2373
 1450TIP3   OH225764   1.057   0.083  11.874 -0.1181 -0.3527  0.6620
 1450TIP3    H125765   1.021   0.013  11.820  1.4327 -0.1325 -0.7048
 1450TIP3    H225766   1.122   0.040  11.930  0.9593 -0.0106 -0.2994
 1451TIP3   OH225767   6.087   0.314  16.796 -0.2425  0.3237 -0.0997
 1451TIP3    H125768   6.050   0.239  16.749 -1.4583 -0.0682  1.3978
 1451TIP3    H225769   6.054   0.305  16.885  0.0309  2.3475  0.2611
 1452TIP3   OH225770   2.111   3.949   2.623  0.1295  0.7492 -0.0395
 1452TIP3    H125771   2.181   3.912   2.568  0.5744  1.0659  0.3038
 1452TIP3    H225772   2.069   4.015   2.568 -1.3276 -0.9183 -1.0248
 1453TIP3   OH225773   5.326   3.433   2.278 -0.4255 -0.3220  0.2664
 1453TIP3    H125774   5.359   3.353   2.237  2.2542  1.9508 -2.5365
 1453TIP3    H225775   5.289   3.483   2.205 -2.0966  0.9970  1.9411
 1454TIP3   OH225776   0.085   1.663   4.037  0.0189 -0.7108  0.5716
 1454TIP3    H125777   0.158   1.650   4.098 -1.1200 -0.4203  2.0473
 1454TIP3    H225778   0.084   1.584   3.983  1.1071 -0.9400  0.8612
 1455TIP3   OH225779   0.757   4.303   2.808 -0.1234  0.0703 -0.3208
 1455TIP3    H125780   0.665   4.277   2.797  0.1168 -0.8573 -0.1875
 1455TIP3    H225781   0.789   4.313   2.719  0.5575 -2.9585 -0.5190
 1456TIP3   OH225782   4.541   0.136  15.650  0.6577  0.2443  0.3003
 1456TIP3    H125783   4.550   0.150  15.745 -2.0252 -2.3627  1.0998
 1456TIP3    H225784   4.543   0.041  15.639 -1.1188  0.3750 -1.9508
 1457TIP3   OH225785   0.475   5.009   2.666  0.1739 -0.1514 -0.6503
 1457TIP3    H125786   0.457   5.101   2.682  0.8291 -0.2200  0.5640
 1457TIP3    H225787   0.551   5.008   2.608  0.3395  0.0632 -0.4339
 1458TIP3   OH225788   2.434   6.353  12.068  0.1794  0.1735 -0.0098
 1458TIP3    H125789   2.416   6.447  12.066  0.6805  0.2676 -1.1199
 1458TIP3    H225790   2.418   6.324  11.978 -0.0273 -0.8184  0.3388
 1459TIP3   OH225791   2.369   3.020   4.935 -0.1871 -0.9590  0.7202
 1459TIP3    H125792   2.290   3.039   4.986 -0.5387  0.1942 -0.2150
 1459TIP3    H225793   2.415   2.954   4.987 -0.5248  0.1355  2.5197
 1460TIP3   OH225794   0.966   2.783  12.980  0.2496  0.5437  0.1480
 1460TIP3    H125795   0.995   2.744  13.063 -0.9485  0.0873  0.3676
 1460TIP3    H225796   0.871   2.784  12.986  0.1320  0.0846 -1.4243
 1461TIP3   OH225797   5.167   4.265  13.532 -0.6839  0.2375  0.4622
 1461TIP3    H125798   5.078   4.248  13.502 -0.9399  0.0573  1.3120
 1461TIP3    H225799   5.157   4.322  13.608 -0.0867 -0.0205  0.7408
 1462TIP3   OH225800   5.436   2.914   5.363 -0.1859 -0.5693  0.3645
 1462TIP3    H125801   5.383   2.866   5.427  0.8922 -0.6797  1.1931
 1462TIP3    H225802   5.428   2.862   5.283 -2.5656  0.2411  0.0050
 1463TIP3   OH225803   1.297   1.232  15.501  0.2837  0.3923 -0.3136
 1463TIP3    H125804   1.261   1.165  15.443 -1.6162  2.3991 -1.6434
 1463TIP3    H225805   1.223   1.257  15.556  1.0433  1.1302  0.3919
 1464TIP3   OH225806   1.502   3.459   1.407 -0.6668  0.2297 -0.1708
 1464TIP3    H125807   1.460   3.525   1.464 -0.3064 -0.1431  0.5455
 1464TIP3    H225808   1.486   3.376   1.451 -1.0185 -0.1525 -1.0145
 1465TIP3   OH225809   1.375   5.775  12.739 -0.1252  0.8946 -0.0664
 1465TIP3    H125810   1.337   5.698  12.781  2.8345 -1.4066 -1.2012
 1465TIP3    H225811   1.462   5.746  12.711  1.1864  4.7161 -0.5327
 1466TIP3   OH225812   5.209   0.343   3.857 -1.0678  0.6002  0.5972
 1466TIP3    H125813   5.234   0.411   3.795 -1.1743 -0.9970 -1.2969
 1466TIP3    H225814   5.286   0.287   3.863 -1.4453  0.1175  1.0375
 1467TIP3   OH225815   3.153   1.567   4.859  0.1425 -0.3505 -0.4851
 1467TIP3    H125816   3.060   1.557   4.838 -0.3483 -0.4147  1.5403
 1467TIP3    H225817   3.170   1.500   4.925  1.1778  0.7884  0.4425
 1468TIP3   OH225818   0.817   6.003  15.255  0.1168 -0.4785  0.9395
 1468TIP3    H125819   0.801   5.917  15.216 -0.6353  0.1697 -0.2682
 1468TIP3    H225820   0.829   5.985  15.348 -1.5489 -1.7489  0.9614
 1469TIP3   OH225821   2.440   6.650  11.212 -0.3296 -0.4843 -0.3654
 1469TIP3    H125822   2.446   6.563  11.172 -0.6206 -0.5622 -0.2497
 1469TIP3    H225823   2.455   6.711  11.140  1.0366 -0.6322 -0.2264
 1470TIP3   OH225824   5.540   2.756   1.138 -0.1300  0.2787 -0.1177
 1470TIP3    H125825   5.536   2.668   1.101  0.3877  1.0177 -2.0752
 1470TIP3    H225826   5.579   2.744   1.224  0.4911 -1.3337 -0.5844
 1471TIP3   OH225827   4.716   5.592   3.070  0.4255 -0.0806  0.1265
 1471TIP3    H125828   4.738   5.538   2.995 -3.0801  0.6434 -1.6426
 1471TIP3    H225829   4.724   5.682   3.039  3.0355  0.4572  2.0394
 1472TIP3   OH225830   1.637   0.674   3.669  0.1148 -0.1629  0.0864
 1472TIP3    H125831   1.642   0.723   3.587  0.2009 -1.6807 -0.8439
 1472TIP3    H225832   1.581   0.728   3.725 -0.4802  0.5939 -1.1877
 1473TIP3   OH225833   6.575   2.679   1.367  0.3924  0.0858  0.0644
 1473TIP3    H125834   6.650   2.680   1.308  0.2322 -1.8266 -0.2385
 1473TIP3    H225835   6.605   2.724   1.446  1.1439  1.2180 -0.8435
 1474TIP3   OH225836   6.645   3.854  13.166  0.1804  0.4944 -0.4823
 1474TIP3    H125837   6.688   3.771  13.187  1.7546  1.4259  0.1423
 1474TIP3    H225838   6.561   3.849  13.211 -0.2226 -1.1912 -1.3410
 1475TIP3   OH225839   0.129   3.984  11.122 -0.8483 -0.0554  0.3453
 1475TIP3    H125840   0.051   4.004  11.070 -0.7418 -0.1426  0.1475
 1475TIP3    H225841   0.102   3.998  11.212 -1.0389  0.0993  0.2676
 1476TIP3   OH225842   4.729   0.822  13.607 -0.4690  0.1711 -0.2988
 1476TIP3    H125843   4.806   0.799  13.556 -0.3158 -0.4027  0.1797
 1476TIP3    H225844   4.764   0.860  13.688 -0.6731 -0.5909  0.1522
 1477TIP3   OH225845   4.691   1.758   6.170  0.1732 -0.4696 -0.1233
 1477TIP3    H125846   4.666   1.674   6.208 -1.3060  0.6014  1.4270
 1477TIP3    H225847   4.753   1.796   6.233  1.2952 -0.6182 -1.1027
 1478TIP3   OH225848   4.499   2.418  17.326  0.1433  0.3570 -0.1814
 1478TIP3    H125849   4.457   2.456  17.403 -2.1439  0.1042 -1.2239
 1478TIP3    H225850   4.454   2.459  17.252  0.9742 -0.8022 -1.3598
 1479TIP3   OH225851   2.195   6.440  16.580 -0.4458 -0.4904  0.0301
 1479TIP3    H125852   2.141   6.510  16.618 -1.2294 -1.1483  0.1629
 1479TIP3    H225853   2.152   6.419  16.497 -1.1205 -1.8376  0.6886
 1480TIP3   OH225854   4.902   5.433  10.877  0.2939  0.5294 -0.1167
 1480TIP3    H125855   4.990   5.427  10.839  0.4411 -0.5782  0.3819
 1480TIP3    H225856   4.877   5.342  10.895 -0.4747  0.9143  0.8415
 1481TIP3   OH225857   6.365   5.890  14.200 -0.8052  0.3641 -0.1962
 1481TIP3    H125858   6.358   5.889  14.104  1.0844 -1.0530 -0.3766
 1481TIP3    H225859   6.297   5.951  14.228 -0.9961  1.3019 -2.4743
 1482TIP3   OH225860   4.225   1.298   4.683 -0.5856 -0.5223 -0.2739
 1482TIP3    H125861   4.195   1.383   4.714 -0.0665 -0.0676 -0.9910
 1482TIP3    H225862   4.308   1.316   4.640  0.2384 -1.5962  0.7747
 1483TIP3   OH225863   4.650   5.194  16.612 -0.1492 -0.2754  0.6450
 1483TIP3    H125864   4.669   5.192  16.518  0.0281  0.8321  0.6435
 1483TIP3    H225865   4.557   5.216  16.617 -0.1347 -0.2361  0.7348
 1484TIP3   OH225866   4.716   2.180   4.212  0.1266 -0.0928 -0.0422
 1484TIP3    H125867   4.782   2.239   4.249 -0.4020  0.9922 -0.7835
 1484TIP3    H225868   4.724   2.100   4.264  1.3851  0.3486  0.4894
 1485TIP3   OH225869   6.657   0.014   0.434  0.6675  0.2579 -0.5975
 1485TIP3    H125870   6.684   0.105   0.418  0.9546  0.2756 -0.0420
 1485TIP3    H225871   6.725  -0.021   0.491  0.1602 -0.0781 -0.1942
 1486TIP3   OH225872   6.553   0.776  15.878  0.4483  0.6080  1.3365
 1486TIP3    H125873   6.532   0.753  15.968  0.1040 -0.4277  0.9970
 1486TIP3    H225874   6.605   0.702  15.846  0.0222  0.6659  0.4878
 1487TIP3   OH225875   3.557   1.972  14.604  0.3944 -0.4051  0.6648
 1487TIP3    H125876   3.543   1.971  14.698  1.6019  1.6016  0.9120
 1487TIP3    H225877   3.595   2.058  14.586 -0.4283 -0.4793 -1.7515
 1488TIP3   OH225878   4.712   1.611  13.121  0.5138 -0.2003  0.3450
 1488TIP3    H125879   4.698   1.546  13.190 -2.3929 -1.0739 -0.9276
 1488TIP3    H225880   4.781   1.573  13.066 -0.7739 -2.0676 -0.0887
 1489TIP3   OH225881   1.437   3.504  11.422 -0.0978 -0.2246 -0.5246
 1489TIP3    H125882   1.470   3.424  11.381 -0.5055 -0.7049  0.0682
 1489TIP3    H225883   1.356   3.524  11.374 -2.0276 -2.2587  1.6314
 1490TIP3   OH225884   5.248   3.164   0.998 -0.6467 -0.6164 -0.2457
 1490TIP3    H125885   5.330   3.204   0.971 -0.4397 -0.7373  0.1976
 1490TIP3    H225886   5.222   3.109   0.924 -0.8727  0.2373 -0.8125
 1491TIP3   OH225887   5.899   2.329   4.292 -0.0962  0.0623  0.6025
 1491TIP3    H125888   5.892   2.392   4.220 -1.5633  0.7319  1.2783
 1491TIP3    H225889   5.974   2.359   4.344  0.3980  0.1106 -0.1329
 1492TIP3   OH225890   0.198   1.821  12.285 -0.2529 -0.1919 -0.2764
 1492TIP3    H125891   0.214   1.882  12.356  1.4759 -0.9282  0.0153
 1492TIP3    H225892   0.238   1.861  12.208 -0.0315 -0.4771 -0.3124
 1493TIP3   OH225893   0.233   0.122   5.685  0.2326  0.0825  0.0570
 1493TIP3    H125894   0.201   0.032   5.676 -0.6771  0.3930  0.0790
 1493TIP3    H225895   0.155   0.173   5.703  0.7581  0.8716  0.1349
 1494TIP3   OH225896   4.534   1.483   0.552  0.0185  0.5672  0.2297
 1494TIP3    H125897   4.563   1.572   0.574  0.7849 -0.0972  2.1259
 1494TIP3    H225898   4.481   1.457   0.627 -0.8579 -0.2992 -0.6765
 1495TIP3   OH225899   6.273   5.430  12.523 -0.0033 -0.6628 -0.9238
 1495TIP3    H125900   6.183   5.398  12.516 -0.6137  0.8544 -0.5271
 1495TIP3    H225901   6.265   5.526  12.519  1.5816 -0.4872 -0.7532
 1496TIP3   OH225902   6.545   4.192  16.186 -0.6667 -0.1237  0.0273
 1496TIP3    H125903   6.506   4.241  16.114  2.3182  1.0198 -0.9917
 1496TIP3    H225904   6.572   4.259  16.249 -0.3491 -0.8331  0.6639
 1497TIP3   OH225905   4.516   3.591  12.847 -0.4496  0.3373 -0.1249
 1497TIP3    H125906   4.499   3.499  12.863 -0.3442  0.1236 -1.1585
 1497TIP3    H225907   4.566   3.593  12.765  0.3150  1.2590  0.3416
 1498TIP3   OH225908   0.497   4.517  12.784 -0.5152 -0.6105  0.6718
 1498TIP3    H125909   0.429   4.579  12.810 -0.0502 -0.0140  0.5061
 1498TIP3    H225910   0.490   4.445  12.847 -1.6442 -0.8145  0.3242
 1499TIP3   OH225911   1.740   6.172   5.154  0.0001 -0.1800 -0.0662
 1499TIP3    H125912   1.819   6.124   5.178 -0.4899 -1.2319 -0.5096
 1499TIP3    H225913   1.742   6.250   5.209 -0.4306 -1.8813  2.5892
 1500TIP3   OH225914   4.130   4.621  17.001  0.2114  0.5799 -0.0656
 1500TIP3    H125915   4.163   4.693  17.055  0.3691  1.3798 -1.2034
 1500TIP3    H225916   4.208   4.578  16.968  0.1099  0.2800  0.0788
 1501TIP3   OH225917   3.377   1.375   5.851  0.1195 -0.6434 -0.1820
 1501TIP3    H125918   3.451   1.379   5.791  0.8282 -1.8287  0.5649
 1501TIP3    H225919   3.412   1.331   5.929 -0.5106  1.6411  1.4849
 1502TIP3   OH225920   5.473   1.425  14.017  0.2873 -0.1813 -0.4751
 1502TIP3    H125921   5.494   1.351  13.960 -3.4378 -1.7804 -0.1115
 1502TIP3    H225922   5.501   1.396  14.104  1.2371  0.0165 -0.7059
 1503TIP3   OH225923   0.665   3.014  16.867 -0.1049 -0.3829  0.3700
 1503TIP3    H125924   0.620   3.044  16.788 -0.4834  1.0220  1.0897
 1503TIP3    H225925   0.596   2.974  16.920 -0.2522  0.4620  0.8374
 1504TIP3   OH225926   0.775   2.731  16.005  0.0161 -0.1895  0.2865
 1504TIP3    H125927   0.750   2.748  16.096  0.6270 -0.9588  0.6116
 1504TIP3    H225928   0.870   2.738  16.004  0.0021 -0.0054 -0.3357
 1505TIP3   OH225929   4.400   6.648   3.433  0.1088  0.4412 -0.5080
 1505TIP3    H125930   4.474   6.708   3.439 -0.9113  2.1412 -3.0273
 1505TIP3    H225931   4.439   6.566   3.399  0.8583  1.4336 -2.2039
 1506TIP3   OH225932   3.478   2.103  16.802 -0.3606 -0.4770 -0.6351
 1506TIP3    H125933   3.491   2.013  16.772  3.3216  0.2015 -1.5779
 1506TIP3    H225934   3.501   2.157  16.727  1.6204  1.2033  1.0515
 1507TIP3   OH225935   0.912   3.760  12.132  0.1849  0.3899 -0.5094
 1507TIP3    H125936   0.882   3.798  12.050  0.1524  4.5971  1.2294
 1507TIP3    H225937   1.006   3.746  12.119  0.1157  0.6845 -1.3711
 1508TIP3   OH225938   6.210   4.731  16.812 -0.4044 -0.2518  0.3627
 1508TIP3    H125939   6.286   4.713  16.757 -0.5941 -0.5135  0.1834
 1508TIP3    H225940   6.237   4.805  16.867 -0.9492  1.4831 -1.5955
 1509TIP3   OH225941   1.647   6.403  14.031  0.0592 -0.0290  0.0311
 1509TIP3    H125942   1.710   6.445  13.972  0.8657  0.0763  0.9445
 1509TIP3    H225943   1.609   6.476  14.081  0.6034 -0.2655  0.8011
 1510TIP3   OH225944   6.014   6.237  15.331  0.1168  0.1056  0.2471
 1510TIP3    H125945   6.018   6.150  15.371 -0.6198  0.9021  2.1667
 1510TIP3    H225946   5.954   6.226  15.257 -0.6248 -0.8451  0.9578
 1511TIP3   OH225947   3.930   5.657   2.181 -0.1978 -0.1002 -0.0965
 1511TIP3    H125948   3.846   5.657   2.135  0.0650 -0.4000 -0.5796
 1511TIP3    H225949   3.934   5.572   2.225  0.2661 -0.4770 -0.8460
 1512TIP3   OH225950   0.601   2.271   1.942 -0.3403  0.8827  0.2914
 1512TIP3    H125951   0.552   2.190   1.957 -0.0131  0.5164 -0.5560
 1512TIP3    H225952   0.534   2.336   1.920 -0.8421  1.4239  3.0067
 1513TIP3   OH225953   3.739   2.877  14.208  0.2990 -0.3214  0.2817
 1513TIP3    H125954   3.757   2.784  14.190  1.4746  0.0030 -0.2838
 1513TIP3    H225955   3.806   2.902  14.272  1.4601  0.7263 -1.2974
 1514TIP3   OH225956   1.650   4.039  13.391  0.5197 -0.1209 -0.0804
 1514TIP3    H125957   1.607   3.989  13.322  0.3525 -0.0430 -0.0343
 1514TIP3    H225958   1.622   3.997  13.472 -0.8725  0.9618  0.0547
 1515TIP3   OH225959   5.813   3.070   1.295  0.1468 -0.4470  0.4029
 1515TIP3    H125960   5.906   3.047   1.300  0.3713  0.5346  0.8802
 1515TIP3    H225961   5.791   3.103   1.382 -0.2344  0.8543 -0.1582
 1516TIP3   OH225962   2.267   4.353   5.239  0.4023  0.2078  0.1858
 1516TIP3    H125963   2.358   4.380   5.227 -0.0635  1.6954 -0.2064
 1516TIP3    H225964   2.233   4.345   5.150 -0.0810  0.4993  0.3427
 1517TIP3   OH225965   4.137   4.532  11.197 -0.4364  0.2431 -0.2910
 1517TIP3    H125966   4.066   4.533  11.261  0.0531 -1.2918  0.3245
 1517TIP3    H225967   4.147   4.440  11.174  2.9444  0.0065  1.4793
 1518TIP3   OH225968   1.239   5.915   1.307  0.1694  0.1527 -0.1612
 1518TIP3    H125969   1.211   5.824   1.294  2.5200 -0.6003 -0.3653
 1518TIP3    H225970   1.269   5.943   1.220  1.6892  0.2965  0.3935
 1519TIP3   OH225971   5.896   3.822   5.575 -0.0482 -0.1044  0.6289
 1519TIP3    H125972   5.920   3.915   5.575 -0.9527  0.1452  0.8190
 1519TIP3    H225973   5.952   3.783   5.642  0.9639  0.1231 -0.0680
 1520TIP3   OH225974   3.454   0.827  14.853 -0.2666  0.4868  0.5046
 1520TIP3    H125975   3.473   0.802  14.943  0.3819 -1.4519 -0.1263
 1520TIP3    H225976   3.373   0.782  14.831 -0.2330  0.6616  0.0002
 1521TIP3   OH225977   1.030   1.914  13.940 -0.3410  0.0414  0.5031
 1521TIP3    H125978   1.120   1.882  13.930 -0.3687  0.1238 -0.0650
 1521TIP3    H225979   1.016   1.919  14.034 -0.3255 -1.5983  0.6233
 1522TIP3   OH225980   5.716   5.614  14.657 -0.1864 -0.2660 -0.8096
 1522TIP3    H125981   5.798   5.629  14.704  0.2213 -1.2639 -1.1656
 1522TIP3    H225982   5.683   5.701  14.637 -0.8791  0.2572  2.1505
 1523TIP3   OH225983   0.228   3.230   4.317  0.2179  0.3204 -0.5242
 1523TIP3    H125984   0.155   3.193   4.367  0.9669  0.2856  0.5794
 1523TIP3    H225985   0.200   3.319   4.297 -1.2746 -0.5346 -2.5418
 1524TIP3   OH225986   1.625   0.951   6.389  0.3751 -0.3528 -1.0582
 1524TIP3    H125987   1.669   0.955   6.304 -0.4071 -0.0057 -1.4634
 1524TIP3    H225988   1.686   0.992   6.450  0.6554  0.0289 -1.5870
 1525TIP3   OH225989   0.593   2.821   5.701  0.0330 -0.2369 -0.5282
 1525TIP3    H125990   0.529   2.754   5.727 -1.1305 -1.0138 -4.6882
 1525TIP3    H225991   0.587   2.887   5.770 -1.4419 -2.6312  1.8877
 1526TIP3   OH225992   2.039   6.704  12.400  0.1617  0.1568 -0.0032
 1526TIP3    H125993   2.065   6.646  12.328 -0.2524 -0.6923  0.5179
 1526TIP3    H225994   2.087   6.785  12.384  4.2992 -1.6948  1.6084
 1527TIP3   OH225995   4.315   6.249   4.140 -0.2147  0.3192  0.0569
 1527TIP3    H125996   4.317   6.176   4.203  0.2851  0.6924  0.4839
 1527TIP3    H225997   4.333   6.208   4.056  2.7903  0.2451  0.6137
 1528TIP3   OH225998   1.062   5.494   2.247 -0.7727  0.0648 -0.2238
 1528TIP3    H125999   0.980   5.447   2.260 -0.4139 -0.9784 -1.5214
 1528TIP3    H226000   1.113   5.475   2.325 -1.7622  0.7514  0.6103
 1529TIP3   OH226001   2.223   5.783   5.284 -0.5397 -0.0812 -0.1785
 1529TIP3    H126002   2.234   5.705   5.338  0.8134  0.0820 -0.1957
 1529TIP3    H226003   2.231   5.752   5.194  0.4335  0.1327 -0.1721
 1530TIP3   OH226004   6.321   4.062  11.479 -0.2238 -0.3907  0.2275
 1530TIP3    H126005   6.260   4.002  11.436 -0.8821  1.2114 -1.1605
 1530TIP3    H226006   6.267   4.134  11.510  0.4588 -0.7508  2.5071
 1531TIP3   OH226007   2.207   1.248   2.671 -0.1080 -0.0828  0.7481
 1531TIP3    H126008   2.256   1.310   2.618  0.0839  0.4854  1.5778
 1531TIP3    H226009   2.240   1.162   2.645  1.4625  0.2907  1.4021
 1532TIP3   OH226010   0.176   0.360  15.870 -0.1510  0.3001  0.7797
 1532TIP3    H126011   0.259   0.345  15.916  0.3238  0.9232  0.1514
 1532TIP3    H226012   0.201   0.368  15.778 -0.7042  2.0419  0.7503
 1533TIP3   OH226013   2.841   6.044   4.905  0.5862 -0.2362 -0.4412
 1533TIP3    H126014   2.746   6.042   4.907  0.5594  0.5775 -0.4161
 1533TIP3    H226015   2.868   5.992   4.981  0.1413  0.2262  0.0502
 1534TIP3   OH226016   2.616   2.275  12.771  0.2342  0.0660 -0.5716
 1534TIP3    H126017   2.545   2.211  12.768  1.3556 -1.4381  1.7644
 1534TIP3    H226018   2.573   2.360  12.767 -1.7870 -0.7819  1.3332
 1535TIP3   OH226019   2.466   2.108   5.753 -0.5295  0.1560 -0.1469
 1535TIP3    H126020   2.439   2.019   5.732  2.8482 -0.6626 -1.6933
 1535TIP3    H226021   2.440   2.159   5.676 -0.0129 -0.0625 -0.4650
 1536TIP3   OH226022   2.359   5.880  13.276  0.2186 -0.1388  0.0165
 1536TIP3    H126023   2.401   5.894  13.360 -0.6515  1.1741  0.2619
 1536TIP3    H226024   2.294   5.811  13.293  1.5557 -1.4969 -0.1496
 1537TIP3   OH226025   2.866   5.925  13.632 -0.1619  0.7964  0.2742
 1537TIP3    H126026   2.908   6.010  13.645 -1.7857  1.7228 -0.2785
 1537TIP3    H226027   2.794   5.924  13.696 -0.6748  0.1981 -0.3017
 1538TIP3   OH226028   4.585   0.080  17.364 -0.1438 -0.8098  0.7272
 1538TIP3    H126029   4.499   0.115  17.343 -0.2540 -0.8585  1.0906
 1538TIP3    H226030   4.600   0.012  17.299  0.5468  0.6423 -0.6914
 1539TIP3   OH226031   4.203   3.947  12.503  0.4098 -0.4500  0.0702
 1539TIP3    H126032   4.228   3.988  12.420  0.3186  0.6202  0.5516
 1539TIP3    H226033   4.278   3.961  12.560 -0.5687  1.3427  1.0219
 1540TIP3   OH226034   2.068   1.796   2.531 -0.8272 -0.3499  0.2302
 1540TIP3    H126035   2.048   1.841   2.613 -2.2067 -0.9380  0.2387
 1540TIP3    H226036   2.052   1.704   2.549  0.1828 -0.6583 -0.3254
 1541TIP3   OH226037   6.172   6.110  14.549  0.2465 -0.1120 -0.3582
 1541TIP3    H126038   6.084   6.099  14.587  1.2245 -0.5128  1.9607
 1541TIP3    H226039   6.231   6.070  14.613  2.2454  1.2412 -1.2586
 1542TIP3   OH226040   5.979   0.741  15.518  0.0482  0.3890  0.0809
 1542TIP3    H126041   6.057   0.777  15.474 -0.7044 -0.1871 -1.8344
 1542TIP3    H226042   5.946   0.814  15.571  2.3011  0.4137  1.5843
 1543TIP3   OH226043   0.017   5.621  15.081 -0.1659 -0.8872  1.1947
 1543TIP3    H126044   0.038   5.710  15.110  1.0152 -0.5248 -0.6031
 1543TIP3    H226045  -0.042   5.588  15.148  1.0956  0.4506  3.0795
 1544TIP3   OH226046   0.519   1.524  17.036  0.2511  0.6537  0.4444
 1544TIP3    H126047   0.549   1.551  16.950 -0.6900  0.7514  0.1335
 1544TIP3    H226048   0.453   1.590  17.061 -1.3288 -0.7274  0.1200
 1545TIP3   OH226049   2.858   4.669  11.862  0.3767  0.1757  0.1776
 1545TIP3    H126050   2.790   4.640  11.802  0.7407  0.0928 -0.1975
 1545TIP3    H226051   2.812   4.686  11.944  0.1178 -1.3391  0.3820
 1546TIP3   OH226052   5.115   5.822  14.343 -0.3081 -0.2612 -0.0959
 1546TIP3    H126053   5.179   5.878  14.388 -1.2061 -0.5519  1.6372
 1546TIP3    H226054   5.121   5.847  14.251  0.7739  1.2260  0.3475
 1547TIP3   OH226055   4.873   0.470   1.003 -0.4343  0.0451  0.2629
 1547TIP3    H126056   4.923   0.490   0.924  0.7231 -1.1163  0.6582
 1547TIP3    H226057   4.932   0.495   1.075 -1.3879  0.9024  0.7715
 1548TIP3   OH226058   0.091   0.491  14.259 -0.3621 -0.3643 -0.0495
 1548TIP3    H126059   0.037   0.415  14.241  0.1099 -0.9628  0.9547
 1548TIP3    H226060   0.181   0.459  14.251 -0.1467  0.4126 -0.8964
 1549TIP3   OH226061   5.724   3.135  11.558 -0.0475  0.1329 -1.2292
 1549TIP3    H126062   5.714   3.041  11.548 -1.0538 -0.6132  3.8646
 1549TIP3    H226063   5.818   3.148  11.576 -0.2685 -0.4049  0.5522
 1550TIP3   OH226064   2.553   1.803   6.338  0.5057 -0.2968  0.5718
 1550TIP3    H126065   2.527   1.712   6.356  2.4811 -1.0806 -0.2776
 1550TIP3    H226066   2.558   1.808   6.243  0.1550  0.8022  0.6003
 1551TIP3   OH226067   3.433   4.195  14.490  0.0444  0.2145 -0.2265
 1551TIP3    H126068   3.494   4.161  14.555 -0.4418 -0.0202  0.1100
 1551TIP3    H226069   3.471   4.169  14.406  1.5270  1.9116 -0.1405
 1552TIP3   OH226070   4.059   3.297  14.214  0.4762  0.5144 -0.4709
 1552TIP3    H126071   4.047   3.239  14.289 -0.0424 -2.4252 -2.6468
 1552TIP3    H226072   3.983   3.280  14.158  0.1608  3.5705 -1.1774
 1553TIP3   OH226073   0.593   3.015  15.222  0.2002  0.3171  0.3017
 1553TIP3    H126074   0.676   3.030  15.176  0.7602  0.6382  1.4063
 1553TIP3    H226075   0.534   3.082  15.187  0.1578 -0.3559 -1.0205
 1554TIP3   OH226076   4.092   5.099  12.215  0.6323  0.1646 -0.2025
 1554TIP3    H126077   4.120   5.187  12.189  2.2450  0.1600  1.2634
 1554TIP3    H226078   4.075   5.107  12.309  1.4769 -1.2113  0.0939
 1555TIP3   OH226079   0.366   5.109  11.504 -0.3283 -0.2462 -0.4408
 1555TIP3    H126080   0.306   5.042  11.475 -0.9837  0.5467 -0.9567
 1555TIP3    H226081   0.451   5.065  11.510 -0.8613 -1.2518 -0.1780
 1556TIP3   OH226082   4.653   5.449   4.591 -0.3542 -0.2398 -0.3526
 1556TIP3    H126083   4.697   5.380   4.541  0.3192 -0.4786  0.5562
 1556TIP3    H226084   4.713   5.524   4.585 -0.4655 -0.1421 -0.2384
 1557TIP3   OH226085   4.885   2.177  12.228 -0.0782 -0.0483  0.0495
 1557TIP3    H126086   4.804   2.217  12.258 -0.4245  0.4992 -1.5176
 1557TIP3    H226087   4.952   2.243  12.246 -0.1601 -0.0328  0.3008
 1558TIP3   OH226088   2.613   3.757   5.587 -1.0525 -0.3472 -0.0283
 1558TIP3    H126089   2.596   3.761   5.681  0.7087  1.6603  0.2921
 1558TIP3    H226090   2.596   3.846   5.556 -0.5768 -0.7013 -1.4063
 1559TIP3   OH226091   4.296   1.169   0.513 -0.2169  0.1775 -0.2768
 1559TIP3    H126092   4.382   1.130   0.527 -0.8298 -1.1753 -0.1745
 1559TIP3    H226093   4.292   1.241   0.577  0.4387 -0.3957  0.4211
 1560TIP3   OH226094   0.155   1.783   4.650 -0.0274  0.2406 -0.1611
 1560TIP3    H126095   0.209   1.729   4.708  0.0562  0.9971  0.4779
 1560TIP3    H226096   0.106   1.840   4.709  1.4728  2.3765 -0.8839
 1561TIP3   OH226097   6.004   2.212   3.409  0.3967  0.2542  0.7466
 1561TIP3    H126098   6.044   2.216   3.496  0.4291  0.9552  0.7028
 1561TIP3    H226099   6.044   2.135   3.368  2.2998  1.3568  0.4168
 1562TIP3   OH226100   0.861   6.285  12.814 -0.1082 -0.0144 -0.1743
 1562TIP3    H126101   0.920   6.258  12.884  1.7042 -0.4320 -1.7523
 1562TIP3    H226102   0.774   6.259  12.844  0.4515  0.6857  2.2781
 1563TIP3   OH226103   3.455   0.191   0.677 -0.1494  0.0286 -0.5333
 1563TIP3    H126104   3.473   0.137   0.600 -1.4989 -2.0619  0.5319
 1563TIP3    H226105   3.510   0.155   0.746 -1.5493 -0.4767  0.3671
 1564TIP3   OH226106   4.855   3.656  14.802  0.3201 -0.2207 -0.3183
 1564TIP3    H126107   4.844   3.741  14.845  2.3080 -0.6318  1.1795
 1564TIP3    H226108   4.836   3.592  14.871 -0.8416 -1.0079 -1.3389
 1565TIP3   OH226109   0.233   5.225   3.842  0.9062 -0.0761 -0.2174
 1565TIP3    H126110   0.216   5.293   3.907 -1.6586  0.6147 -1.4993
 1565TIP3    H226111   0.258   5.149   3.894 -2.6748 -0.0767  1.8659
 1566TIP3   OH226112   5.268   1.073  17.325  0.3150  0.5436  0.4765
 1566TIP3    H126113   5.306   1.123  17.397 -0.7983  1.7164  0.2810
 1566TIP3    H226114   5.235   1.139  17.265  1.4842 -0.4051 -1.2927
 1567TIP3   OH226115   5.373   4.569   0.989 -0.2601  0.1523 -0.0001
 1567TIP3    H126116   5.296   4.531   1.033 -0.8848  0.6756 -0.6094
 1567TIP3    H226117   5.339   4.601   0.905  0.3968  1.3679  0.1679
 1568TIP3   OH226118   5.347   5.623  16.433  0.5407  0.0272  0.6141
 1568TIP3    H126119   5.260   5.633  16.394  1.1931  0.3172 -0.8376
 1568TIP3    H226120   5.333   5.636  16.527 -1.0457 -0.3872  0.4664
 1569TIP3   OH226121   4.661   5.802  11.842  0.0066 -0.2366 -0.2625
 1569TIP3    H126122   4.611   5.850  11.776  1.0062  1.1368 -0.0596
 1569TIP3    H226123   4.734   5.763  11.794 -1.3851 -2.5658 -0.6303
 1570TIP3   OH226124   3.144   4.501   0.034  0.2246  0.6508 -0.9048
 1570TIP3    H126125   3.163   4.594   0.048 -1.2440  0.8992 -0.3669
 1570TIP3    H226126   3.121   4.468   0.121 -0.9812  0.2114 -1.3798
 1571TIP3   OH226127   6.060   5.725  17.142 -0.1992  0.4145 -0.3750
 1571TIP3    H126128   6.001   5.666  17.095 -0.8661  0.5179  0.3060
 1571TIP3    H226129   6.003   5.772  17.203  0.6384  0.2673  0.5462
 1572TIP3   OH226130   4.212   1.656   6.060 -0.2751  0.4901 -0.1971
 1572TIP3    H126131   4.183   1.742   6.089  1.4863  0.4774  1.8527
 1572TIP3    H226132   4.298   1.671   6.022 -0.5867 -0.1889 -1.2131
 1573TIP3   OH226133   4.072   5.744  14.360 -0.1156  0.2790 -0.8782
 1573TIP3    H126134   3.979   5.737  14.337 -0.2547 -0.4080 -0.1477
 1573TIP3    H226135   4.072   5.784  14.447  0.2462 -0.1540 -0.6758
 1574TIP3   OH226136   6.270   5.348   4.844 -0.2884  0.1409 -0.3966
 1574TIP3    H126137   6.210   5.393   4.785 -0.8056  0.1562  0.1332
 1574TIP3    H226138   6.352   5.341   4.795 -0.6548  0.3277 -1.0348
 1575TIP3   OH226139   4.372   1.651   1.655  0.2937 -0.3023 -0.1440
 1575TIP3    H126140   4.418   1.646   1.571 -0.0127 -0.6281 -0.2942
 1575TIP3    H226141   4.280   1.663   1.631  0.2228 -0.2631  0.1456
 1576TIP3   OH226142   1.837   3.396   2.659 -0.2850 -0.5867 -0.4113
 1576TIP3    H126143   1.887   3.456   2.604  0.2341 -2.5619 -2.2425
 1576TIP3    H226144   1.753   3.385   2.613 -3.1039  3.3932  3.0688
 1577TIP3   OH226145   1.781   4.677   4.242 -0.5265 -0.4082 -0.0870
 1577TIP3    H126146   1.792   4.689   4.336  0.9262  2.5027 -0.5262
 1577TIP3    H226147   1.702   4.727   4.221 -0.3261 -0.2872 -0.5576
 1578TIP3   OH226148   6.058   2.455   0.636  0.0528  0.3674  0.4911
 1578TIP3    H126149   6.018   2.476   0.720  0.0188  1.1870  0.2784
 1578TIP3    H226150   6.016   2.515   0.574 -0.9732 -1.1813 -0.3852
 1579TIP3   OH226151   2.031   4.366   6.081 -0.0739  0.3784  0.4611
 1579TIP3    H126152   2.065   4.432   6.021  1.9279  0.0336  1.1449
 1579TIP3    H226153   2.070   4.284   6.051 -0.9050 -0.1764  0.8541
 1580TIP3   OH226154   4.847   1.490  15.188 -0.7399 -0.1347 -0.7503
 1580TIP3    H126155   4.803   1.551  15.247 -0.1407  0.1899 -0.6298
 1580TIP3    H226156   4.912   1.447  15.243  0.3952  0.7693 -1.3370
 1581TIP3   OH226157   3.268   1.217   2.746  0.8605 -0.1915  0.3132
 1581TIP3    H126158   3.224   1.198   2.829 -3.1523  0.1474 -1.4929
 1581TIP3    H226159   3.278   1.131   2.705 -1.3077 -0.0935 -0.5884
 1582TIP3   OH226160   1.995   4.691   1.170 -0.4928  0.0274 -0.0202
 1582TIP3    H126161   1.934   4.716   1.240 -0.5523 -2.6089  1.0087
 1582TIP3    H226162   2.082   4.703   1.209 -0.4826 -0.0314 -0.0245
 1583TIP3   OH226163   5.975   3.632   1.303  0.2148  0.1414 -0.6493
 1583TIP3    H126164   5.942   3.667   1.221  0.3426  0.5709 -0.5175
 1583TIP3    H226165   5.979   3.537   1.289 -3.3048 -0.2881  0.0573
 1584TIP3   OH226166   6.558   6.538  14.278 -0.0507 -0.4787 -0.1844
 1584TIP3    H126167   6.566   6.576  14.191  0.5969 -0.3746 -0.0831
 1584TIP3    H226168   6.648   6.531  14.310 -0.1430 -2.1552 -0.2220
 1585TIP3   OH226169   6.672   4.067  12.359 -0.2495 -0.1559 -0.2745
 1585TIP3    H126170   6.739   4.012  12.317 -1.1582 -1.0746 -0.5467
 1585TIP3    H226171   6.598   4.065  12.298 -0.8171  0.2054  0.3972
 1586TIP3   OH226172   3.696   4.986  11.045 -0.1216  0.1895 -0.3563
 1586TIP3    H126173   3.606   5.017  11.036 -0.1728  0.0135 -0.4651
 1586TIP3    H226174   3.690   4.914  11.107  0.1364  0.9820  0.6083
 1587TIP3   OH226175   1.403   3.402  11.716  0.1896  0.2200  0.3353
 1587TIP3    H126176   1.392   3.308  11.727 -0.1178  0.0025 -1.5053
 1587TIP3    H226177   1.423   3.413  11.623 -0.7839  2.0479  0.2953
 1588TIP3   OH226178   0.785   2.455  17.309  0.1002 -0.0277 -0.4972
 1588TIP3    H126179   0.741   2.497  17.383  1.0007 -0.2929  0.2013
 1588TIP3    H226180   0.872   2.434  17.341  0.3649 -0.5424 -1.5034
 1589TIP3   OH226181   0.922   1.582  13.982 -0.0882  0.8032 -0.3615
 1589TIP3    H126182   0.956   1.623  13.902 -0.3112 -0.6816 -1.2465
 1589TIP3    H226183   0.979   1.614  14.052  1.3164  0.6034 -1.3893
 1590TIP3   OH226184   4.303   3.410   0.052 -0.0691 -0.4706  0.1198
 1590TIP3    H126185   4.251   3.470   0.105  0.8261  0.5967 -0.1498
 1590TIP3    H226186   4.318   3.457  -0.030 -1.2798 -2.0148 -1.0507
 1591TIP3   OH226187   2.969   5.191  15.672 -0.4254 -0.3292 -0.2782
 1591TIP3    H126188   2.893   5.134  15.661  0.0308 -1.0324  0.1670
 1591TIP3    H226189   3.037   5.149  15.620  0.3875 -1.1115  1.3404
 1592TIP3   OH226190   1.804   0.225   1.483  0.0174 -0.3987  0.1182
 1592TIP3    H126191   1.831   0.182   1.402 -2.6607  0.8547 -1.5999
 1592TIP3    H226192   1.775   0.154   1.540 -0.8742 -1.1303 -1.2112
 1593TIP3   OH226193   2.972   6.613  17.055  0.0282 -0.6076  0.4656
 1593TIP3    H126194   2.952   6.693  17.104  1.6506  0.8125 -1.0361
 1593TIP3    H226195   3.031   6.564  17.112  0.5765  0.2203  0.6327
 1594TIP3   OH226196   2.261   0.843  11.719  0.4461  0.1220 -0.2045
 1594TIP3    H126197   2.348   0.808  11.697  2.4239  3.8765  0.7790
 1594TIP3    H226198   2.260   0.844  11.815 -1.1015 -0.6695 -0.1907
 1595TIP3   OH226199   1.359   4.639  16.090  0.2579  0.2011  0.1408
 1595TIP3    H126200   1.276   4.680  16.111  0.6408  0.5072  1.0957
 1595TIP3    H226201   1.390   4.603  16.173  1.3649  0.6169 -0.0797
 1596TIP3   OH226202   0.666   2.918   4.787 -0.3436 -0.7744  0.3728
 1596TIP3    H126203   0.735   2.971   4.747  0.0791 -1.5075  0.1103
 1596TIP3    H226204   0.671   2.940   4.880  2.3804 -3.0948  0.9001
 1597TIP3   OH226205   2.010   2.092   3.390  0.2009  0.0097  0.1716
 1597TIP3    H126206   1.952   2.157   3.350 -0.9831 -1.3864 -0.4577
 1597TIP3    H226207   1.955   2.046   3.454  1.1197 -0.1380  0.8817
 1598TIP3   OH226208   1.060   4.891  11.480  0.6166 -0.4685  0.4965
 1598TIP3    H126209   1.064   4.970  11.426  1.3252 -1.6471 -1.2529
 1598TIP3    H226210   1.149   4.856  11.477  0.2124 -1.5527  0.9090
 1599TIP3   OH226211   3.991   2.598  12.661 -0.2255  0.0133 -0.2426
 1599TIP3    H126212   4.004   2.692  12.674  1.6112 -0.3387  0.8689
 1599TIP3    H226213   4.076   2.567  12.627 -1.5280 -0.8993 -2.9685
 1600TIP3   OH226214   2.882   5.006  15.362 -0.6105  0.5038 -0.4453
 1600TIP3    H126215   2.933   5.086  15.362 -0.7374  0.5997  0.5953
 1600TIP3    H226216   2.901   4.964  15.278  2.1955 -0.1225  0.4030
 1601TIP3   OH226217   4.876   3.245  14.648  0.1525  0.4690  0.4652
 1601TIP3    H126218   4.907   3.160  14.617 -0.2981  0.6089 -0.3684
 1601TIP3    H226219   4.859   3.295  14.569  0.6361  1.4282  0.9449
 1602TIP3   OH226220   2.437   1.002   5.499  0.2397 -0.0498  0.2170
 1602TIP3    H126221   2.489   0.938   5.451  3.2174  2.2769  0.0538
 1602TIP3    H226222   2.463   1.087   5.462 -0.5476  1.5264  3.0032
 1603TIP3   OH226223   1.298   3.936   3.761  0.3768  0.2357 -0.2186
 1603TIP3    H126224   1.361   4.007   3.765  0.0547  0.5665 -0.8590
 1603TIP3    H226225   1.347   3.859   3.789  1.1842  0.4065 -1.1160
 1604TIP3   OH226226   6.599   3.133  14.764 -0.0589  0.2821  0.6083
 1604TIP3    H126227   6.640   3.114  14.849 -1.1716  0.7405  1.2696
 1604TIP3    H226228   6.610   3.228  14.753 -1.0069  0.4313  0.8474
 1605TIP3   OH226229   4.440   3.493   0.509  0.2114 -0.9322 -0.5641
 1605TIP3    H126230   4.401   3.410   0.533  0.8073 -1.0861 -0.1177
 1605TIP3    H226231   4.370   3.557   0.519 -0.2446 -1.3738 -0.9036
 1606TIP3   OH226232   3.316   2.926   3.200 -0.4107  0.1898  0.6702
 1606TIP3    H126233   3.355   3.014   3.199  1.4754 -0.5954 -1.4422
 1606TIP3    H226234   3.383   2.870   3.239  0.2995 -1.0065 -2.0553
 1607TIP3   OH226235   5.250   5.153  10.996  0.1788 -0.3521 -0.6261
 1607TIP3    H126236   5.177   5.108  10.953 -0.2913  0.5873 -0.8575
 1607TIP3    H226237   5.212   5.236  11.025  0.7492 -0.5487  0.7201
 1608TIP3   OH226238   3.889   3.296  16.908 -0.0872  0.4692  0.4466
 1608TIP3    H126239   3.863   3.274  16.819  0.5356  1.9254 -0.1289
 1608TIP3    H226240   3.906   3.211  16.950  1.2212 -0.2141 -1.3151
 1609TIP3   OH226241   1.985   2.811   6.145  0.6320  0.5313  0.0701
 1609TIP3    H126242   1.904   2.787   6.100  1.3068 -0.5368 -0.6292
 1609TIP3    H226243   2.022   2.728   6.175  1.2596  1.0387  0.7371
 1610TIP3   OH226244   4.371   4.175  12.830 -0.0639 -0.1470 -0.1352
 1610TIP3    H126245   4.316   4.107  12.870  0.2462 -0.4049 -0.1432
 1610TIP3    H226246   4.403   4.135  12.750 -0.4742  0.2784 -0.5179
 1611TIP3   OH226247   4.179   0.541   1.028  0.0433 -0.1024 -1.1478
 1611TIP3    H126248   4.181   0.450   0.998  0.8574 -0.1879 -0.8773
 1611TIP3    H226249   4.250   0.546   1.093  2.1017  1.4676 -3.3454
 1612TIP3   OH226250   4.095   2.813   5.918 -0.3061 -0.8713 -0.4764
 1612TIP3    H126251   4.145   2.807   5.999  0.5341 -1.2369 -1.0141
 1612TIP3    H226252   4.110   2.903   5.887 -0.8830 -0.6284 -0.0799
 1613TIP3   OH226253   3.696   4.923  12.974 -0.1598  0.2291  0.4322
 1613TIP3    H126254   3.703   4.944  13.067 -0.6746 -0.0558  0.5376
 1613TIP3    H226255   3.729   5.001  12.930  1.5058 -0.1960  0.8643
 1614TIP3   OH226256   3.098   1.210   3.307 -0.5330  0.3787  0.4066
 1614TIP3    H126257   3.069   1.300   3.320 -2.4074 -0.1097 -0.0547
 1614TIP3    H226258   3.119   1.205   3.214 -1.8572 -0.0108  0.1107
 1615TIP3   OH226259   4.350   2.121  11.464 -0.4796  0.3269 -0.0216
 1615TIP3    H126260   4.329   2.075  11.382 -0.1423  0.2099 -0.0454
 1615TIP3    H226261   4.408   2.192  11.436  0.8115 -0.5582  0.2698
 1616TIP3   OH226262   0.115   2.031   0.243  0.0756  0.3535  0.2017
 1616TIP3    H126263   0.186   2.094   0.256 -3.0863  4.3267  0.0971
 1616TIP3    H226264   0.101   2.030   0.148  0.5389 -1.2022  0.1169
 1617TIP3   OH226265   1.001   4.817  11.835  0.0873 -0.4891  0.2789
 1617TIP3    H126266   0.940   4.833  11.907 -0.0630  1.6793 -0.2561
 1617TIP3    H226267   0.946   4.816  11.756  0.6162  0.6670 -0.1290
 1618TIP3   OH226268   1.346   1.748  16.992  0.4475 -0.6228 -0.4354
 1618TIP3    H126269   1.407   1.817  16.964  0.9711 -0.9597 -0.1407
 1618TIP3    H226270   1.340   1.759  17.087 -0.2383 -0.3611 -0.5060
 1619TIP3   OH226271   3.335   5.774  11.187 -0.5100 -0.2091 -0.3907
 1619TIP3    H126272   3.388   5.750  11.263 -0.5398  2.1606  0.4450
 1619TIP3    H226273   3.392   5.830  11.135 -1.3347  0.2951 -0.7698
 1620TIP3   OH226274   5.354   6.688  15.586  0.3545  0.6980 -0.2430
 1620TIP3    H126275   5.444   6.657  15.593  1.6055  3.8573 -0.7122
 1620TIP3    H226276   5.359   6.781  15.608 -2.8156  0.9952 -0.3211
 1621TIP3   OH226277   5.915   3.590   4.912 -0.9782 -0.0685 -0.3126
 1621TIP3    H126278   5.839   3.539   4.884 -1.8085  1.1628 -0.3429
 1621TIP3    H226279   5.895   3.680   4.887  1.0202  0.1229 -1.4161
 1622TIP3   OH226280   0.841   3.456  16.890 -0.1173 -0.4676  0.0083
 1622TIP3    H126281   0.843   3.373  16.938 -0.9866  1.2233  3.3194
 1622TIP3    H226282   0.926   3.496  16.908 -0.3232  0.0591 -0.1893
 1623TIP3   OH226283   4.126   4.219   3.529  0.1537  0.2700 -0.0572
 1623TIP3    H126284   4.201   4.275   3.545  0.4100  0.0169 -0.3528
 1623TIP3    H226285   4.163   4.138   3.493 -0.1848 -0.2149  0.6651
 1624TIP3   OH226286   3.040   5.251  13.382 -0.2874  0.2054 -0.4059
 1624TIP3    H126287   2.995   5.243  13.466  0.7446  0.5179  0.1965
 1624TIP3    H226288   3.002   5.329  13.342 -0.8790 -0.0201 -0.2952
 1625TIP3   OH226289   0.325   1.607   2.292 -0.4803  0.3487  0.1013
 1625TIP3    H126290   0.327   1.635   2.384  0.6881 -0.5288  0.3650
 1625TIP3    H226291   0.386   1.533   2.288 -2.3331 -1.1998 -0.8788
 1626TIP3   OH226292   4.097   1.183   2.109  0.5082 -0.5018  0.7156
 1626TIP3    H126293   4.122   1.101   2.151  0.3511 -0.9208  0.0145
 1626TIP3    H226294   4.121   1.171   2.017  0.9092  0.4231  0.6925
 1627TIP3   OH226295   5.818   2.047   1.542 -0.2961  0.2300  0.3595
 1627TIP3    H126296   5.851   2.118   1.597 -1.2931  0.9957  0.0179
 1627TIP3    H226297   5.895   1.997   1.517  0.5314  1.6067  0.0481
 1628TIP3   OH226298   2.075   6.483   5.519 -0.2430 -0.0366 -0.0851
 1628TIP3    H126299   2.017   6.423   5.564  0.2155  0.2415  0.9052
 1628TIP3    H226300   2.084   6.558   5.578  0.5940  0.2141 -0.5019
 1629TIP3   OH226301   0.718   2.642  14.495 -0.4064  0.0192  0.3099
 1629TIP3    H126302   0.658   2.681  14.432 -0.0103  0.9700  0.5016
 1629TIP3    H226303   0.665   2.576  14.541 -1.2168  0.6111  0.2542
 1630TIP3   OH226304   1.774   4.168   5.377 -0.1420 -0.0287  0.2643
 1630TIP3    H126305   1.831   4.178   5.453 -1.5918 -1.4290  1.6166
 1630TIP3    H226306   1.687   4.189   5.409 -0.6005  0.8664 -1.4363
 1631TIP3   OH226307   4.365   4.730   0.523  0.0637  0.1231  0.0786
 1631TIP3    H126308   4.396   4.808   0.568 -0.6262  0.0012  0.7844
 1631TIP3    H226309   4.444   4.678   0.508  0.3703  0.4034  0.6907
 1632TIP3   OH226310   1.706   1.868   5.617  0.1975 -0.6284  0.0721
 1632TIP3    H126311   1.649   1.927   5.568  2.0377  1.2497  0.0296
 1632TIP3    H226312   1.662   1.783   5.614 -2.4200  0.6343 -0.1443
 1633TIP3   OH226313   2.968   1.127   0.459  0.4804 -0.0680 -0.0328
 1633TIP3    H126314   3.022   1.205   0.447  0.4215  0.0295  0.3359
 1633TIP3    H226315   2.977   1.106   0.552  1.6543 -1.3331 -0.3989
 1634TIP3   OH226316   4.426   5.590  11.292  0.3145  0.4235 -0.1340
 1634TIP3    H126317   4.511   5.623  11.262 -0.2505  2.3050  0.1653
 1634TIP3    H226318   4.368   5.602  11.217  0.5230 -2.0023 -0.7562
 1635TIP3   OH226319   1.399   1.885  12.524  0.0292 -0.1687 -0.2589
 1635TIP3    H126320   1.350   1.964  12.503 -1.0337 -0.6301  0.3832
 1635TIP3    H226321   1.480   1.892  12.474 -0.2355  1.1218 -0.5261
 1636TIP3   OH226322   3.022   0.306   2.734 -0.6243 -0.3479  0.2191
 1636TIP3    H126323   3.091   0.270   2.789 -0.6178  0.3297  0.6763
 1636TIP3    H226324   2.976   0.367   2.791  0.6414  1.9340 -1.0336
 1637TIP3   OH226325   0.242   1.323   2.532 -0.8440 -0.7418  0.1086
 1637TIP3    H126326   0.160   1.370   2.520  0.4459  1.6581  0.0161
 1637TIP3    H226327   0.256   1.277   2.450 -1.0553  0.6142 -0.7159
 1638TIP3   OH226328   5.416   4.175   4.061 -0.3121  0.3756  0.1198
 1638TIP3    H126329   5.378   4.093   4.090 -0.2151  0.6360  0.9938
 1638TIP3    H226330   5.343   4.224   4.022 -0.6869  0.5058  0.9791
 1639TIP3   OH226331   0.760   1.999   4.273 -0.3871  0.4670  0.2034
 1639TIP3    H126332   0.695   1.966   4.211  0.9053 -0.6266 -0.6277
 1639TIP3    H226333   0.709   2.025   4.350 -1.9347  0.9676 -0.9419
 1640TIP3   OH226334   3.192   4.042   2.632 -0.5287  0.4809  0.2931
 1640TIP3    H126335   3.231   4.107   2.573 -0.3389  0.5236  0.4624
 1640TIP3    H226336   3.109   4.081   2.659 -0.1854  0.8829  0.7908
 1641TIP3   OH226337   5.723   2.867   5.632 -0.1500 -0.4257  0.1729
 1641TIP3    H126338   5.792   2.872   5.699 -0.1946  0.8913  0.1545
 1641TIP3    H226339   5.649   2.915   5.671 -0.4480 -0.3234 -0.5041
 1642TIP3   OH226340   5.578   4.722  12.739 -0.3840  0.5445 -0.1278
 1642TIP3    H126341   5.633   4.721  12.660  1.1451  0.5308  0.8990
 1642TIP3    H226342   5.570   4.630  12.764  1.7926  0.7054  1.4548
 1643TIP3   OH226343   2.173   4.874  12.260 -0.6776 -0.1597 -0.1961
 1643TIP3    H126344   2.222   4.883  12.178  1.7636 -0.6492  1.1136
 1643TIP3    H226345   2.110   4.804  12.243  0.5014 -0.9785 -1.3569
 1644TIP3   OH226346   3.103   5.961   3.510  0.3148 -0.1008 -0.6686
 1644TIP3    H126347   3.100   6.026   3.580 -0.3690  0.3517 -1.1052
 1644TIP3    H226348   3.195   5.937   3.503  0.2157 -1.2880  1.3994
 1645TIP3   OH226349   6.528   5.764   0.649 -0.4332  0.5346 -0.4260
 1645TIP3    H126350   6.479   5.682   0.654  0.6628 -0.1759 -1.0003
 1645TIP3    H226351   6.464   5.828   0.618 -1.0220 -0.3420 -1.0806
 1646TIP3   OH226352   2.745   4.986  14.905  0.4043 -0.8529  0.0598
 1646TIP3    H126353   2.669   4.957  14.853  0.8824  0.3059 -1.3389
 1646TIP3    H226354   2.820   4.975  14.846  1.1572 -0.6642  0.9520
 1647TIP3   OH226355   5.702   5.146   2.054 -0.3582 -0.4222  0.1668
 1647TIP3    H126356   5.616   5.118   2.086  0.4118 -2.1309  0.8520
 1647TIP3    H226357   5.683   5.188   1.969 -1.9848  0.4802  0.9144
 1648TIP3   OH226358   0.846   2.377   6.176  0.0884  0.0533  0.7428
 1648TIP3    H126359   0.878   2.296   6.215  0.1730  0.6779  2.0290
 1648TIP3    H226360   0.900   2.446   6.217  0.4885  0.7189 -0.8252
 1649TIP3   OH226361   3.991   0.823  12.063 -0.5254 -0.0456 -1.1090
 1649TIP3    H126362   4.071   0.773  12.047 -0.2343  0.2335 -0.5718
 1649TIP3    H226363   4.022   0.912  12.081 -0.8398 -0.2188  0.4589
 1650TIP3   OH226364   5.126   4.696  11.562 -0.5580  0.1543  0.5863
 1650TIP3    H126365   5.211   4.721  11.525 -0.2304 -1.3418  0.2649
 1650TIP3    H226366   5.131   4.601  11.570 -1.5472  0.2156  2.2311
 1651TIP3   OH226367   1.357   0.283   1.869 -0.4374 -0.1278 -0.4320
 1651TIP3    H126368   1.267   0.310   1.886 -0.5994 -0.5882 -0.5579
 1651TIP3    H226369   1.366   0.199   1.915  0.5804  0.9187  1.4153
 1652TIP3   OH226370   1.616   5.409  15.622 -0.4738  0.0242 -0.5234
 1652TIP3    H126371   1.542   5.390  15.680  1.0620 -1.8286  0.9274
 1652TIP3    H226372   1.610   5.342  15.553  0.2603 -0.6015  0.0131
 1653TIP3   OH226373   1.584   1.443   2.134  0.6963 -0.2209 -0.3243
 1653TIP3    H126374   1.657   1.431   2.075  2.4635 -0.1389  1.7179
 1653TIP3    H226375   1.562   1.354   2.163 -0.7776 -0.3563 -1.7262
 1654TIP3   OH226376   2.755   2.188  11.662  0.3110 -0.4108 -0.2519
 1654TIP3    H126377   2.840   2.161  11.629 -0.0675 -0.4179 -1.2671
 1654TIP3    H226378   2.717   2.240  11.591  0.0082  0.7196  0.7036
 1655TIP3   OH226379   3.589   4.307   1.806 -0.2803  0.1787 -0.2114
 1655TIP3    H126380   3.665   4.354   1.840 -0.0600 -0.5972  0.4019
 1655TIP3    H226381   3.599   4.312   1.711  1.8843 -1.9554 -0.1884
 1656TIP3   OH226382   5.097   4.729   2.114  0.6467 -0.2170 -0.1263
 1656TIP3    H126383   5.161   4.677   2.065  1.2839 -0.4523  0.9247
 1656TIP3    H226384   5.103   4.696   2.203  0.3743  1.0111  0.3622
 1657TIP3   OH226385   2.655   1.580  15.003 -0.3363 -0.5838  0.3050
 1657TIP3    H126386   2.666   1.542  14.916  1.2346  0.5324 -0.0359
 1657TIP3    H226387   2.577   1.634  14.997 -0.1758 -0.4305 -0.4507
 1658TIP3   OH226388   0.519   3.539   5.632  0.1472  0.2222  0.3246
 1658TIP3    H126389   0.469   3.472   5.679  1.2401 -0.3995  0.6359
 1658TIP3    H226390   0.493   3.529   5.541  0.7593 -1.0580  0.2738
 1659TIP3   OH226391   6.172   3.008   3.580 -0.2363  0.0018  0.3756
 1659TIP3    H126392   6.126   2.953   3.644  0.2577  3.1194  3.7475
 1659TIP3    H226393   6.210   2.946   3.518 -0.9573 -3.3506  2.9770
 1660TIP3   OH226394   2.492   3.384  12.356  0.5394  0.4502 -0.4892
 1660TIP3    H126395   2.458   3.472  12.338 -0.1323  0.6308  1.4912
 1660TIP3    H226396   2.431   3.347  12.419  0.4837 -1.7053 -1.7413
 1661TIP3   OH226397   2.806   3.632  15.760  0.0206 -0.2417  0.7767
 1661TIP3    H126398   2.892   3.624  15.718 -0.9479 -1.4050 -1.1596
 1661TIP3    H226399   2.783   3.542  15.784 -0.5483  0.0963  1.5574
 1662TIP3   OH226400   2.870   2.291  14.907 -1.3195 -0.0192 -0.3851
 1662TIP3    H126401   2.882   2.240  14.827 -0.6754 -0.2535 -0.1442
 1662TIP3    H226402   2.776   2.306  14.912 -1.4031 -0.3219 -0.9888
 1663TIP3   OH226403   0.725   5.378  15.685  0.1468  0.1333 -0.0661
 1663TIP3    H126404   0.697   5.373  15.594 -1.4498  0.9338  0.3417
 1663TIP3    H226405   0.688   5.299  15.725 -1.4874  1.1014  0.4348
 1664TIP3   OH226406   4.828   0.215  14.042 -0.4220  0.0181  0.1457
 1664TIP3    H126407   4.910   0.263  14.049 -0.2055 -0.3146 -0.1028
 1664TIP3    H226408   4.771   0.254  14.109 -0.7979  1.6602 -1.0741
 1665TIP3   OH226409   1.068   2.365   5.195  0.3587 -0.2655 -0.5870
 1665TIP3    H126410   1.053   2.409   5.279 -1.6028  1.2197 -1.6380
 1665TIP3    H226411   1.002   2.296   5.192  0.2499 -0.1432 -1.0257
 1666TIP3   OH226412   6.248   3.361  16.961  0.1800 -0.3390  0.0980
 1666TIP3    H126413   6.344   3.371  16.959  0.3886 -1.4167 -3.5891
 1666TIP3    H226414   6.234   3.269  16.938 -1.7745 -0.1216  0.3141
 1667TIP3   OH226415   3.761   3.766  17.116 -0.3539  0.4104  0.0755
 1667TIP3    H126416   3.703   3.706  17.163  0.3063  0.3278  0.8146
 1667TIP3    H226417   3.763   3.845  17.170 -0.7936  0.8994 -0.6158
 1668TIP3   OH226418   4.581   2.097  12.003  0.2904  0.5440  0.1180
 1668TIP3    H126419   4.627   2.099  11.919  0.7889  1.0849  0.3938
 1668TIP3    H226420   4.500   2.146  11.987  0.7782  1.3935  0.1636
 1669TIP3   OH226421   6.714   1.701   6.714  0.8113 -0.1519 -0.3882
 1669TIP3    H126422   6.768   1.630   6.677  2.5744 -0.0493  1.8250
 1669TIP3    H226423   6.685   1.750   6.637 -0.3206 -3.0735 -2.0200
 1670TIP3   OH226424   4.986   4.065   0.859  0.1799  0.2195 -0.5001
 1670TIP3    H126425   5.068   4.047   0.814 -0.0284 -0.7069 -0.5331
 1670TIP3    H226426   4.989   4.010   0.937  0.2461  1.3089  0.2992
 1671TIP3   OH226427   0.194   2.282   5.660 -0.4561  0.3304 -0.4208
 1671TIP3    H126428   0.105   2.246   5.661 -0.1574 -0.4270  0.0281
 1671TIP3    H226429   0.249   2.210   5.690  0.3251  0.7629 -0.7812
 1672TIP3   OH226430   2.628   6.584   0.160  0.2250  0.0325 -0.4585
 1672TIP3    H126431   2.599   6.493   0.152  0.1046  0.2040 -2.2229
 1672TIP3    H226432   2.604   6.625   0.077 -0.8967  2.0499  0.7788
 1673TIP3   OH226433   0.949   2.246  11.385 -0.0889 -0.1812  0.2696
 1673TIP3    H126434   0.857   2.253  11.358 -0.8542 -1.5318  2.2282
 1673TIP3    H226435   0.974   2.156  11.363  0.5895  0.0057  0.2534
 1674TIP3   OH226436   1.277   4.322  16.969  0.1965  0.0764 -0.2407
 1674TIP3    H126437   1.314   4.408  16.988 -0.0083 -0.2640  2.1051
 1674TIP3    H226438   1.215   4.337  16.898 -0.0494  1.9522  0.3190
 1675TIP3   OH226439   2.096   0.114  15.843 -0.0420 -0.5246  0.0479
 1675TIP3    H126440   2.150   0.043  15.880 -0.7614 -1.1337 -0.0524
 1675TIP3    H226441   2.152   0.192  15.850  0.6481 -1.0370  0.4438
 1676TIP3   OH226442   5.481   0.524   6.005 -0.0359 -0.0692 -0.2283
 1676TIP3    H126443   5.463   0.463   5.933 -0.3187 -0.1084 -0.1231
 1676TIP3    H226444   5.433   0.603   5.982  0.7637  0.3066 -0.6337
 1677TIP3   OH226445   1.881   4.382   3.444 -0.6404  0.8837  0.3665
 1677TIP3    H126446   1.842   4.317   3.386  1.3001  1.1026 -1.3181
 1677TIP3    H226447   1.832   4.375   3.526 -1.9326 -1.1137 -0.5183
 1678TIP3   OH226448   1.906   5.809  15.579  0.1443 -0.2369 -0.6898
 1678TIP3    H126449   1.830   5.867  15.589  0.3209  0.0771 -1.1281
 1678TIP3    H226450   1.980   5.862  15.607  0.1876 -0.6083 -0.0750
 1679TIP3   OH226451   1.790   4.728   4.824 -0.5474 -0.3748 -0.7526
 1679TIP3    H126452   1.874   4.688   4.801  0.1447  1.3492 -1.3434
 1679TIP3    H226453   1.784   4.718   4.919  0.3622 -0.4523 -0.6965
 1680TIP3   OH226454   4.894   3.353  17.001 -0.3440 -0.0041  0.2149
 1680TIP3    H126455   4.958   3.291  17.034 -0.6299  0.3658  1.5428
 1680TIP3    H226456   4.831   3.363  17.073 -0.2114  1.9234  0.1248
 1681TIP3   OH226457   4.208   2.070   3.969  0.6437 -0.2106 -0.4480
 1681TIP3    H126458   4.120   2.068   4.008  0.5474 -0.1893 -0.6620
 1681TIP3    H226459   4.264   2.029   4.034  0.9608  2.1541  0.8899
 1682TIP3   OH226460   2.565   1.357   1.708  0.5331  0.3461  0.1552
 1682TIP3    H126461   2.538   1.448   1.716  0.8191  0.5315 -0.7551
 1682TIP3    H226462   2.661   1.361   1.706  0.5522  0.2824 -1.9789
 1683TIP3   OH226463   6.421   1.166   2.090 -0.0212  0.0155 -0.5121
 1683TIP3    H126464   6.421   1.218   2.171  0.5018 -0.5247 -0.1621
 1683TIP3    H226465   6.328   1.156   2.068 -0.1381  1.0498 -0.5587
 1684TIP3   OH226466   5.830   1.439   6.245  0.2213 -1.0897  0.4603
 1684TIP3    H126467   5.860   1.463   6.332  0.8685 -2.4040  0.6219
 1684TIP3    H226468   5.736   1.459   6.246  0.5088  0.3295  0.9246
 1685TIP3   OH226469   3.970   3.268   0.046  0.2539  0.2012 -0.3011
 1685TIP3    H126470   3.982   3.357   0.013 -0.5787  0.7693  0.8631
 1685TIP3    H226471   3.881   3.267   0.083 -0.1558 -1.4205 -1.2188
 1686TIP3   OH226472   4.409   2.698  14.799 -0.1781 -0.3269 -0.0734
 1686TIP3    H126473   4.399   2.610  14.765 -0.4197 -0.0452 -0.7511
 1686TIP3    H226474   4.359   2.753  14.738  0.1897  0.3068  0.1892
 1687TIP3   OH226475   6.498   6.528  16.998  0.3504 -0.1013 -0.6188
 1687TIP3    H126476   6.515   6.621  17.017  0.4567 -0.4000  0.9131
 1687TIP3    H226477   6.407   6.526  16.969 -0.2473  0.2962  1.0980
 1688TIP3   OH226478   4.313   4.807  17.138 -0.4910  0.7902  0.0988
 1688TIP3    H126479   4.355   4.893  17.147  1.9280 -0.3730  0.9791
 1688TIP3    H226480   4.257   4.800  17.215 -2.0158  2.1682 -0.8130
 1689TIP3   OH226481   2.035   3.112   1.838 -0.4834  0.3952 -0.1313
 1689TIP3    H126482   2.010   3.162   1.916 -0.8228  0.1679 -0.0924
 1689TIP3    H226483   2.029   3.021   1.865  2.2769  0.3099  0.4832
 1690TIP3   OH226484   0.870   1.297   0.942  0.0694  0.7250 -0.0627
 1690TIP3    H126485   0.851   1.305   0.848  1.7349  2.2507 -0.3211
 1690TIP3    H226486   0.945   1.237   0.946  0.2300  0.9494  0.2684
 1691TIP3   OH226487   0.873   2.511  15.086  0.0526  0.1254  0.3850
 1691TIP3    H126488   0.798   2.550  15.131  1.0283  0.6196  1.6752
 1691TIP3    H226489   0.924   2.586  15.055  0.8460 -0.1477  0.9868
 1692TIP3   OH226490   5.399   5.185  14.993 -0.4682 -0.8255  0.5900
 1692TIP3    H126491   5.354   5.101  15.004  2.7714 -2.7317  0.6556
 1692TIP3    H226492   5.474   5.166  14.937  0.8557  1.8455  1.2458
 1693TIP3   OH226493   3.756   6.651  13.859  0.3082 -0.3211 -0.3738
 1693TIP3    H126494   3.669   6.620  13.834  0.4492 -1.0602  0.0123
 1693TIP3    H226495   3.739   6.716  13.928  0.0463 -0.1775 -0.5707
 1694TIP3   OH226496   0.829   4.911  15.528  0.3606  0.6680  0.7647
 1694TIP3    H126497   0.902   4.893  15.469  0.7781  0.9472  1.1886
 1694TIP3    H226498   0.796   4.825  15.552 -0.6795  0.5452 -0.9175
 1695TIP3   OH226499   5.981   2.827   5.145 -0.5688  0.2867 -0.0678
 1695TIP3    H126500   6.029   2.849   5.065 -1.3483  1.7285 -0.1802
 1695TIP3    H226501   5.908   2.772   5.114 -0.3161  0.0337 -0.2134
 1696TIP3   OH226502   3.676   5.109   5.847  0.2310 -0.5415 -0.0401
 1696TIP3    H126503   3.664   5.029   5.796 -2.4963 -0.5679  0.4537
 1696TIP3    H226504   3.730   5.083   5.921  1.8132 -1.1844 -1.3650
 1697TIP3   OH226505   4.362   1.988  13.908  0.8751 -0.0905  0.2173
 1697TIP3    H126506   4.401   1.984  13.821 -0.9135  0.3325 -0.6446
 1697TIP3    H226507   4.436   1.979  13.968  2.0165 -1.5097 -1.3335
 1698TIP3   OH226508   3.479   3.109  12.908 -0.0455 -0.5456  0.1827
 1698TIP3    H126509   3.438   3.070  12.985 -1.5293 -0.1874 -0.3788
 1698TIP3    H226510   3.421   3.085  12.836 -1.5048  3.1193 -0.1306
 1699TIP3   OH226511   2.241   6.054  15.941 -0.2725  0.3501  0.1898
 1699TIP3    H126512   2.306   6.080  15.876 -2.1115  2.4499 -0.9274
 1699TIP3    H226513   2.278   6.085  16.024  1.4878 -1.2022  0.0731
 1700TIP3   OH226514   5.431   3.026  11.880  0.2872  0.0579 -0.3103
 1700TIP3    H126515   5.486   2.957  11.842 -1.2831 -1.0209 -0.6955
 1700TIP3    H226516   5.428   3.094  11.813  1.9168  0.5942  0.1045
 1701TIP3   OH226517   1.632   0.792  13.154  0.1583 -0.2584  0.4455
 1701TIP3    H126518   1.550   0.748  13.175 -0.0764  1.3028  3.4569
 1701TIP3    H226519   1.610   0.850  13.081 -0.6690 -1.8206 -0.5778
 1702TIP3   OH226520   0.024   3.788   5.161  0.1820  0.3700  0.0162
 1702TIP3    H126521   0.086   3.723   5.127 -0.3533  0.7472 -1.7868
 1702TIP3    H226522   0.080   3.854   5.202  0.7181 -1.3949  2.3525
 1703TIP3   OH226523   6.209   4.605  11.768 -0.0464 -0.1365  0.2973
 1703TIP3    H126524   6.259   4.661  11.709 -0.6611  0.1063  0.0060
 1703TIP3    H226525   6.272   4.537  11.795  0.1033 -0.5447 -1.0235
 1704TIP3   OH226526   6.733   0.755  14.294  0.3455  1.0863  0.7749
 1704TIP3    H126527   6.665   0.745  14.227 -0.2043  1.6923  1.2315
 1704TIP3    H226528   6.758   0.666  14.316 -0.4915  0.8410  0.7789
 1705TIP3   OH226529   0.313   0.213   0.340 -0.4256 -0.1767  0.0211
 1705TIP3    H126530   0.358   0.291   0.307  0.5877  0.3266  2.3556
 1705TIP3    H226531   0.284   0.166   0.262  0.7411  1.5063 -1.4869
 1706TIP3   OH226532   6.501   3.109  12.817 -0.4910  0.3275  0.0848
 1706TIP3    H126533   6.442   3.068  12.881 -0.6944  0.1724 -0.2006
 1706TIP3    H226534   6.457   3.097  12.733 -0.6385  1.3123  0.0201
 1707TIP3   OH226535   1.599   1.708  10.548 -0.1347 -0.2572 -0.3439
 1707TIP3    H126536   1.533   1.764  10.590 -0.2668 -0.2626 -0.5428
 1707TIP3    H226537   1.590   1.727  10.455 -0.1852 -0.6195 -0.4120
 1708TIP3   OH226538   6.332   5.574  11.266 -0.4721  0.2343 -0.1948
 1708TIP3    H126539   6.242   5.547  11.246 -0.6676  0.4413  0.3808
 1708TIP3    H226540   6.328   5.669  11.274 -0.2025  0.2456 -0.1659
 1709TIP3   OH226541   2.557   6.092   5.781 -0.6963 -0.4992 -0.4246
 1709TIP3    H126542   2.515   6.007   5.784 -1.1943 -0.2604 -0.5220
 1709TIP3    H226543   2.619   6.086   5.708 -1.2556 -0.5411 -0.8994
 1710TIP3   OH226544   6.176   3.821   3.350  0.5765  0.3583  0.1021
 1710TIP3    H126545   6.192   3.772   3.270  1.3849 -0.5099  0.7772
 1710TIP3    H226546   6.241   3.788   3.412 -0.3490  0.6570  1.2699
 1711TIP3   OH226547   4.336   2.795   4.842 -0.1266  0.5634  0.3729
 1711TIP3    H126548   4.290   2.778   4.924 -0.1179  0.7212  0.4116
 1711TIP3    H226549   4.408   2.854   4.866 -1.3664  2.3388 -0.0667
 1712TIP3   OH226550   5.331   1.604  17.183 -0.3760  0.5347 -0.1134
 1712TIP3    H126551   5.396   1.658  17.138  0.3502 -1.0012 -0.9871
 1712TIP3    H226552   5.332   1.521  17.135 -1.0302 -0.4691  1.5270
 1713TIP3   OH226553   4.313   0.347   2.887  0.3969  0.7079  0.3632
 1713TIP3    H126554   4.255   0.314   2.818  0.2456  4.0252 -1.2994
 1713TIP3    H226555   4.395   0.366   2.842  0.6160  2.0256  1.2576
 1714TIP3   OH226556   1.022   0.300  17.251 -0.4027  0.4398 -0.4126
 1714TIP3    H126557   0.997   0.244  17.178  0.6034  1.3460 -1.4876
 1714TIP3    H226558   1.049   0.383  17.211 -0.4996  1.2185  1.0323
 1715TIP3   OH226559   0.148   2.944  14.591 -0.0975 -0.4205 -0.0671
 1715TIP3    H126560   0.182   2.932  14.503 -0.8016  2.3805 -0.8195
 1715TIP3    H226561   0.086   2.873  14.603  1.2790 -1.8633 -1.1114
 1716TIP3   OH226562   5.706   3.697   5.417 -0.2056  0.2275 -0.2872
 1716TIP3    H126563   5.777   3.722   5.476 -0.0189  0.7898 -0.7476
 1716TIP3    H226564   5.731   3.611   5.384  0.8835  0.9478 -1.4036
 1717TIP3   OH226565   4.541   2.367  12.131  0.0760 -0.3160 -0.2541
 1717TIP3    H126566   4.495   2.393  12.051 -0.6259 -0.5934  0.0496
 1717TIP3    H226567   4.567   2.276  12.115 -0.5375 -0.5510  0.0276
 1718TIP3   OH226568   1.785   4.741  15.363  1.0131 -0.3136 -0.4164
 1718TIP3    H126569   1.863   4.790  15.387  1.1873 -0.9179  0.3085
 1718TIP3    H226570   1.799   4.715  15.272  1.1177  0.5823 -0.6588
 1719TIP3   OH226571   6.339   3.763   0.157  0.0349 -0.0867 -0.1943
 1719TIP3    H126572   6.274   3.756   0.087 -0.7499  0.9172  0.4069
 1719TIP3    H226573   6.305   3.706   0.226 -0.4660  0.7654  0.2884
 1720TIP3   OH226574   3.271   6.420   0.816  0.0380 -0.4410  0.1217
 1720TIP3    H126575   3.317   6.348   0.773  0.0477  0.4217 -1.3779
 1720TIP3    H226576   3.340   6.480   0.842 -0.0685 -0.2722  0.0171
 1721TIP3   OH226577   5.355   0.635   3.873  0.2254  0.1421 -0.1624
 1721TIP3    H126578   5.424   0.569   3.867  0.9463  0.8927 -0.2237
 1721TIP3    H226579   5.289   0.595   3.930  1.0725 -0.2518  0.5695
 1722TIP3   OH226580   3.714   1.131  15.664 -0.0960 -0.4262 -0.5043
 1722TIP3    H126581   3.650   1.074  15.620  1.7089 -0.9089 -2.6932
 1722TIP3    H226582   3.677   1.219  15.656 -0.0819 -0.5494 -2.6982
 1723TIP3   OH226583   0.492   3.343  11.904 -0.1540  0.5260 -0.3672
 1723TIP3    H126584   0.578   3.332  11.944 -0.8220 -0.6166  0.8330
 1723TIP3    H226585   0.511   3.380  11.818  1.4151  1.9188  0.5144
 1724TIP3   OH226586   5.117   5.926   1.375  0.1685  0.0130  0.3725
 1724TIP3    H126587   5.131   5.841   1.333  0.8738  0.8274 -1.1104
 1724TIP3    H226588   5.133   5.910   1.468  0.8058 -1.3493  0.0500
 1725TIP3   OH226589   1.165   0.325  16.947  0.3381  0.9119  0.1779
 1725TIP3    H126590   1.119   0.248  16.982  0.0073  0.5447 -1.0000
 1725TIP3    H226591   1.256   0.297  16.939  0.7792  1.5657  2.3070
 1726TIP3   OH226592   0.784   4.203  16.158 -0.0926  0.5586  0.5356
 1726TIP3    H126593   0.817   4.144  16.089 -1.0404 -0.2883  0.7759
 1726TIP3    H226594   0.720   4.258  16.113  1.8008  2.4335 -0.0044
 1727TIP3   OH226595   1.875   2.486  11.452 -0.0603  0.3993  0.3993
 1727TIP3    H126596   1.796   2.464  11.403  0.9434 -1.6204 -0.4363
 1727TIP3    H226597   1.845   2.498  11.542 -1.7224  2.7586 -0.3630
 1728TIP3   OH226598   4.988   3.848  14.373  0.1680  0.2846 -0.2331
 1728TIP3    H126599   5.050   3.782  14.402  0.3667  0.3471 -0.5150
 1728TIP3    H226600   4.998   3.920  14.436 -1.2797 -0.6378  1.1215
 1729TIP3   OH226601   5.756   4.524  12.285 -0.5338 -0.1589  0.4354
 1729TIP3    H126602   5.716   4.578  12.217 -0.8998 -0.0057  0.7653
 1729TIP3    H226603   5.845   4.507  12.254 -0.3354  0.8393  0.4484
 1730TIP3   OH226604   5.829   4.671   3.285  0.4991 -0.9562  0.3631
 1730TIP3    H126605   5.816   4.600   3.223 -2.4796  0.8895 -1.3969
 1730TIP3    H226606   5.796   4.636   3.368 -2.2746 -1.3020 -0.7760
 1731TIP3   OH226607   6.081   1.429   0.887  0.2019  0.9124  0.2556
 1731TIP3    H126608   6.084   1.343   0.846  0.0502  0.7511  0.5797
 1731TIP3    H226609   6.173   1.456   0.894  0.2580  0.7134  0.2865
 1732TIP3   OH226610   3.097   0.789  16.213 -0.6505  0.9984 -0.1626
 1732TIP3    H126611   3.167   0.769  16.151 -1.5604  1.9628 -1.5575
 1732TIP3    H226612   3.139   0.786  16.299  0.8545  0.5306 -0.8880
 1733TIP3   OH226613   1.912   6.596  13.393  0.0909 -0.1754  0.8840
 1733TIP3    H126614   1.881   6.643  13.470  0.2930 -2.6075  2.5598
 1733TIP3    H226615   1.842   6.534  13.373  0.9798 -1.0986  0.5312
 1734TIP3   OH226616   0.308   1.569   5.570  0.2805  0.0369  0.3770
 1734TIP3    H126617   0.307   1.536   5.479  0.6156 -2.1731  1.1073
 1734TIP3    H226618   0.400   1.581   5.590  0.3749 -1.6632  1.1074
 1735TIP3   OH226619   2.625   4.459   3.682  0.1954  0.2156 -0.1057
 1735TIP3    H126620   2.705   4.448   3.630  0.2047  0.7370 -0.2058
 1735TIP3    H226621   2.559   4.488   3.619 -0.1569 -0.5171 -0.0808
 1736TIP3   OH226622   0.232   3.301  13.939  0.1637  0.1842  0.3799
 1736TIP3    H126623   0.172   3.345  13.878 -0.3640  0.2633  0.9410
 1736TIP3    H226624   0.190   3.216  13.956  1.6662 -1.0045 -1.4734
 1737TIP3   OH226625   0.739   3.206   5.925 -1.0144 -0.5171  0.0104
 1737TIP3    H126626   0.813   3.260   5.898 -1.5744  0.8578  1.0958
 1737TIP3    H226627   0.756   3.120   5.886 -0.5394  0.6514 -2.5276
 1738TIP3   OH226628   4.735   1.565  13.755 -0.3158 -0.1461 -0.8251
 1738TIP3    H126629   4.644   1.555  13.785  0.7568 -1.8041  2.3229
 1738TIP3    H226630   4.784   1.588  13.835  2.3858 -1.7762 -1.8888
 1739TIP3   OH226631   0.102   3.866  15.524  0.3229  0.2997 -0.2505
 1739TIP3    H126632   0.110   3.786  15.472  1.0092  0.1942 -0.0036
 1739TIP3    H226633   0.054   3.839  15.602  1.2361 -0.0689  0.2013
 1740TIP3   OH226634   2.880   3.108   1.659  0.0861  0.1298  0.3740
 1740TIP3    H126635   2.948   3.101   1.591 -0.3246 -1.1895  0.0651
 1740TIP3    H226636   2.806   3.151   1.615  0.6077  1.3471  0.6438
 1741TIP3   OH226637   0.993   2.998  11.063  0.5993  0.4434  0.1247
 1741TIP3    H126638   0.919   2.969  11.115  0.8206 -0.9888 -0.3029
 1741TIP3    H226639   1.068   2.995  11.122  0.4430  1.2234  0.3721
 1742TIP3   OH226640   5.810   4.158  14.989 -0.1023  0.0351  0.2111
 1742TIP3    H126641   5.823   4.071  15.028  1.2179  0.4325  0.7226
 1742TIP3    H226642   5.720   4.181  15.010 -0.9026 -1.7489 -1.0621
 1743TIP3   OH226643   3.179   1.471   1.770 -0.3239 -0.1589  0.0886
 1743TIP3    H126644   3.146   1.382   1.757  2.7670 -1.3245 -0.9127
 1743TIP3    H226645   3.158   1.491   1.861 -0.6630 -2.1661  0.5174
 1744TIP3   OH226646   3.161   0.624  15.274  0.3938  1.1002 -0.1064
 1744TIP3    H126647   3.251   0.646  15.251 -0.2938  2.5869 -1.5487
 1744TIP3    H226648   3.121   0.597  15.191 -0.4694  0.3262  0.5432
 1745TIP3   OH226649   3.947   4.016   6.366  0.0781 -0.6122  0.4212
 1745TIP3    H126650   4.040   4.010   6.390  0.2136  2.0448  0.7989
 1745TIP3    H226651   3.946   4.072   6.288 -1.1835 -1.3082 -0.0995
 1746TIP3   OH226652   2.401   1.180   4.587 -0.6602 -0.0880 -0.4706
 1746TIP3    H126653   2.474   1.170   4.648 -0.9190 -0.3454 -0.2003
 1746TIP3    H226654   2.429   1.135   4.508 -0.3139  0.2642 -0.5494
 1747TIP3   OH226655   6.718   2.621  13.961 -0.7148  0.6129 -0.6572
 1747TIP3    H126656   6.793   2.592  14.013 -1.3891  1.4364  0.8402
 1747TIP3    H226657   6.679   2.540  13.928  0.7254  0.1665 -1.3558
 1748TIP3   OH226658   2.036   6.008   5.959  0.1191  0.1286  0.0183
 1748TIP3    H126659   2.097   5.974   5.894 -1.2948 -3.0660  0.1587
 1748TIP3    H226660   2.036   6.103   5.945  2.1151 -0.1384 -2.5715
 1749TIP3   OH226661   2.388   5.048   2.789  0.0604 -0.0529 -0.2101
 1749TIP3    H126662   2.418   5.108   2.858  2.6552 -1.6507  0.1501
 1749TIP3    H226663   2.465   4.998   2.764 -1.2777 -1.0008 -2.8480
 1750TIP3   OH226664   0.299   6.405   3.542  0.2266  0.0970  0.2066
 1750TIP3    H126665   0.258   6.356   3.612  1.4844 -0.4781  0.5657
 1750TIP3    H226666   0.241   6.393   3.467  0.3192 -1.6565  0.3824
 1751TIP3   OH226667   4.460   2.717   5.305 -0.0812  0.0160  0.4235
 1751TIP3    H126668   4.512   2.753   5.376 -0.4128 -0.8383  1.1118
 1751TIP3    H226669   4.387   2.673   5.348  0.4302 -1.6741 -0.3584
 1752TIP3   OH226670   6.516   5.379  14.211  0.0596  0.7028 -0.0803
 1752TIP3    H126671   6.533   5.390  14.118  0.1188 -1.0433 -0.3073
 1752TIP3    H226672   6.575   5.441  14.254  0.5879  0.9862 -1.1814
 1753TIP3   OH226673   3.716   0.029   3.440  0.0540 -0.0610 -0.4641
 1753TIP3    H126674   3.799  -0.014   3.420  2.6857  2.6621  3.2305
 1753TIP3    H226675   3.716   0.108   3.386  0.9160  0.8813  0.8439
 1754TIP3   OH226676   3.502   5.757   5.550 -0.2706 -0.4142 -0.5497
 1754TIP3    H126677   3.441   5.825   5.521  0.1353  0.0802 -0.2478
 1754TIP3    H226678   3.489   5.686   5.487 -1.5616 -0.5469 -0.1642
 1755TIP3   OH226679   4.266   2.958  13.684 -0.3805  0.3751  0.1892
 1755TIP3    H126680   4.333   3.005  13.733  1.0274 -0.3872 -0.9405
 1755TIP3    H226681   4.212   3.028  13.647 -1.3554  0.9801  2.5285
 1756TIP3   OH226682   5.928   3.907  16.812  0.0978 -0.0492  0.1946
 1756TIP3    H126683   5.972   3.832  16.771  0.3906 -0.1835  0.7378
 1756TIP3    H226684   5.858   3.869  16.864  0.8808 -0.0579  1.2966
 1757TIP3   OH226685   2.035   3.976  13.933 -0.3392 -0.5075  0.2215
 1757TIP3    H126686   1.947   3.992  13.898 -0.6946  0.3663  1.4090
 1757TIP3    H226687   2.021   3.909  14.000 -0.2035 -0.0298  0.7401
 1758TIP3   OH226688   3.193   6.744  10.608 -0.3465 -0.3673 -0.1648
 1758TIP3    H126689   3.224   6.664  10.565  0.9172 -1.3241  2.3113
 1758TIP3    H226690   3.269   6.803  10.606 -0.5315 -0.1205  0.0312
 1759TIP3   OH226691   2.831   6.514   5.253 -0.6294 -0.7258 -0.1294
 1759TIP3    H126692   2.886   6.440   5.225  1.5583  1.5374 -2.3559
 1759TIP3    H226693   2.838   6.578   5.182 -2.4947  1.6180  1.6138
 1760TIP3   OH226694   6.273   6.136  11.380 -0.2758 -0.7156  0.7968
 1760TIP3    H126695   6.255   6.230  11.381  0.5879 -0.4884 -0.9806
 1760TIP3    H226696   6.357   6.127  11.425  0.0780 -0.5146  0.1841
 1761TIP3   OH226697   1.566   4.749   5.330 -0.8308  0.2563 -0.8441
 1761TIP3    H126698   1.577   4.835   5.370 -0.4680  0.2469 -0.9226
 1761TIP3    H226699   1.524   4.767   5.246 -0.0381  0.4320 -1.2116
 1762TIP3   OH226700   2.166   1.505  16.564  0.0838  0.0179  0.2520
 1762TIP3    H126701   2.072   1.492  16.553  0.0247 -0.2798  1.0473
 1762TIP3    H226702   2.203   1.489  16.477 -0.5096 -0.6964  0.1223
 1763TIP3   OH226703   0.338   3.247   2.020 -0.4239  0.2154  0.6023
 1763TIP3    H126704   0.264   3.205   2.063 -0.9308 -0.9069 -1.2561
 1763TIP3    H226705   0.332   3.218   1.929  2.1604  0.2833  0.3476
 1764TIP3   OH226706   2.166   0.028  16.890 -0.0513 -0.6659 -0.3158
 1764TIP3    H126707   2.199   0.071  16.968  0.6682 -1.9910  0.1428
 1764TIP3    H226708   2.133   0.099  16.835  0.3135  0.3659  0.7707
 1765TIP3   OH226709   4.354   2.922  12.558 -0.1846  1.5131 -0.6080
 1765TIP3    H126710   4.285   2.981  12.528 -0.0218  1.4754 -1.0661
 1765TIP3    H226711   4.338   2.840  12.510  0.3781  1.6141 -0.9738
 1766TIP3   OH226712   0.404   4.971   5.384 -0.1513  0.5929  0.1094
 1766TIP3    H126713   0.486   4.979   5.433 -1.0103  0.1189  1.6626
 1766TIP3    H226714   0.373   5.061   5.374  0.5425  0.7750 -0.4895
 1767TIP3   OH226715   0.854   3.174  16.950  0.4832 -0.3677  0.2785
 1767TIP3    H126716   0.901   3.151  17.030 -0.0541 -0.1332  0.6761
 1767TIP3    H226717   0.795   3.101  16.935 -0.7506  0.3966  1.1675
 1768TIP3   OH226718   3.231   2.477  12.111  0.0415  0.8930 -0.2725
 1768TIP3    H126719   3.180   2.460  12.191  1.9433 -0.7470  0.6903
 1768TIP3    H226720   3.167   2.513  12.049 -1.7524  1.1086  1.5899
 1769TIP3   OH226721   5.004   3.889   3.553 -0.2456  0.1252  0.0461
 1769TIP3    H126722   5.080   3.888   3.495  0.5079  2.0705  0.8964
 1769TIP3    H226723   5.030   3.834   3.627  0.7892  1.4852  0.7627
 1770TIP3   OH226724   3.555   4.911  13.891  0.1028  0.5251  0.3802
 1770TIP3    H126725   3.489   4.980  13.888 -2.2546 -1.5822 -1.0837
 1770TIP3    H226726   3.600   4.923  13.974 -1.2995  2.8239  0.8786
 1771TIP3   OH226727   0.184   0.194  13.137  0.2164 -0.1210 -0.3134
 1771TIP3    H126728   0.130   0.226  13.065 -0.6218  1.9139  1.1087
 1771TIP3    H226729   0.123   0.145  13.193  1.2669 -3.5710 -1.8950
 1772TIP3   OH226730   3.909   2.494   1.536  0.4873  0.5384 -0.5586
 1772TIP3    H126731   4.001   2.469   1.521  0.0348 -0.6603 -1.5090
 1772TIP3    H226732   3.910   2.534   1.623  1.6553 -1.0118  0.2144
 1773TIP3   OH226733   3.713   2.721   3.990  0.4734  0.3224 -0.2356
 1773TIP3    H126734   3.769   2.689   3.919 -0.0055  0.3989 -0.6559
 1773TIP3    H226735   3.774   2.744   4.060  1.0783  1.5770 -1.1238
 1774TIP3   OH226736   4.136   4.409  14.678 -0.0742  0.4369  0.4093
 1774TIP3    H126737   4.211   4.452  14.637  0.4630  0.2903  1.2053
 1774TIP3    H226738   4.167   4.321  14.698 -1.2172 -0.4124 -1.3456
 1775TIP3   OH226739   2.455   4.139   1.591  0.2743 -0.0927 -0.0695
 1775TIP3    H126740   2.532   4.099   1.551  0.5429 -0.8604  1.1818
 1775TIP3    H226741   2.489   4.218   1.634  0.4964 -0.7405  0.9844
 1776TIP3   OH226742   0.929   6.580   6.177  0.1239  0.2163 -0.7627
 1776TIP3    H126743   0.935   6.674   6.193  1.4560  0.2012 -1.0863
 1776TIP3    H226744   0.890   6.544   6.256  0.3489  0.9466 -0.3162
 1777TIP3   OH226745   2.487   0.860  17.380  0.2236  0.0450  0.0194
 1777TIP3    H126746   2.553   0.817  17.435  1.4078  0.7313 -0.8095
 1777TIP3    H226747   2.410   0.804  17.386  0.3449  0.0080  2.2410
 1778TIP3   OH226748   0.334   4.808   4.394 -0.1858  0.0543  0.1578
 1778TIP3    H126749   0.242   4.796   4.371 -0.4456  2.3196 -0.2166
 1778TIP3    H226750   0.382   4.748   4.338 -1.3135  0.3965 -1.2119
 1779TIP3   OH226751   2.270   5.772  15.280 -0.3166 -0.0414  0.3352
 1779TIP3    H126752   2.241   5.692  15.237 -0.5592  0.1126  0.2104
 1779TIP3    H226753   2.227   5.771  15.365  0.1550 -0.3404  0.5783
 1780TIP3   OH226754   1.410   0.538  12.427 -0.4814  0.3538  0.0625
 1780TIP3    H126755   1.427   0.448  12.454  0.2082  0.4543 -0.0208
 1780TIP3    H226756   1.416   0.536  12.331 -1.0385  0.3776  0.0210
 1781TIP3   OH226757   2.125   5.012  16.752 -0.4783  0.9339  0.0209
 1781TIP3    H126758   2.197   5.055  16.799  1.4697 -0.6007 -1.3901
 1781TIP3    H226759   2.093   5.078  16.690  0.0566  1.4731  0.3093
 1782TIP3   OH226760   1.469   0.870  15.407 -0.7431  0.4653 -0.6027
 1782TIP3    H126761   1.445   0.951  15.363 -1.8637  0.2958 -0.3514
 1782TIP3    H226762   1.392   0.848  15.459 -0.7237 -1.1032 -1.1856
 1783TIP3   OH226763   3.439   3.110   3.400  0.3375  0.2904 -0.2348
 1783TIP3    H126764   3.507   3.159   3.355 -1.4529  1.4389 -1.8750
 1783TIP3    H226765   3.466   3.018   3.392  0.9019  0.5910 -2.2981
 1784TIP3   OH226766   0.277   0.204   3.937  0.2533  0.0062  0.6121
 1784TIP3    H126767   0.240   0.269   3.877  1.3212  1.2083  1.1883
 1784TIP3    H226768   0.237   0.121   3.911  0.8059  0.4283 -1.8755
 1785TIP3   OH226769   1.252   5.654   2.597  0.1784 -0.0824 -0.4872
 1785TIP3    H126770   1.187   5.716   2.564  1.0256  0.0433 -1.9906
 1785TIP3    H226771   1.272   5.685   2.685 -1.7451 -0.1041 -0.0007
 1786TIP3   OH226772   3.127   0.292   2.447  0.6131  0.7784 -0.3092
 1786TIP3    H126773   3.065   0.302   2.520  2.5094  1.5593  1.2897
 1786TIP3    H226774   3.110   0.205   2.413 -1.8570  1.2479 -0.4416
 1787TIP3   OH226775   2.228   0.610  14.515  0.5097 -0.0335  0.7023
 1787TIP3    H126776   2.232   0.705  14.528  2.1188  0.0127  0.0399
 1787TIP3    H226777   2.241   0.598  14.421  1.1148 -0.9477  0.8876
 1788TIP3   OH226778   3.717   2.352   5.598 -0.8258  0.3995 -0.1458
 1788TIP3    H126779   3.713   2.257   5.609 -2.0779  0.3585 -0.7953
 1788TIP3    H226780   3.634   2.384   5.635  0.6647  1.5487  2.5254
 1789TIP3   OH226781   4.866   1.219  17.080 -0.0901 -0.2224  0.2905
 1789TIP3    H126782   4.934   1.260  17.025  0.6974  0.1814  1.5297
 1789TIP3    H226783   4.795   1.200  17.019  1.2452 -0.9406 -1.1130
 1790TIP3   OH226784   0.706   1.003  12.823  0.3173  0.4514 -0.1549
 1790TIP3    H126785   0.759   0.945  12.877 -0.1506 -0.7644 -0.9644
 1790TIP3    H226786   0.628   0.952  12.802  0.8167  0.5543 -2.5889
 1791TIP3   OH226787   2.718   0.517  13.708 -1.0993 -0.3070 -0.1267
 1791TIP3    H126788   2.651   0.461  13.667  0.1483 -1.3605 -0.7811
 1791TIP3    H226789   2.737   0.583  13.642 -0.3660 -0.9544 -0.5776
 1792TIP3   OH226790   6.405   1.429  16.854  0.4077 -0.4995 -0.5443
 1792TIP3    H126791   6.413   1.514  16.810 -1.3483  0.2438  0.4754
 1792TIP3    H226792   6.369   1.371  16.787  1.5782 -0.4467 -1.2404
 1793TIP3   OH226793   6.517   6.472   1.121 -0.1797  0.5066 -0.6641
 1793TIP3    H126794   6.569   6.437   1.049 -0.4330  0.3724 -0.7808
 1793TIP3    H226795   6.565   6.446   1.200 -0.2462  0.0871 -0.7577
 1794TIP3   OH226796   4.518   2.772   5.654 -0.6692 -0.2180 -0.5844
 1794TIP3    H126797   4.517   2.867   5.663 -1.3304 -0.3363  0.9216
 1794TIP3    H226798   4.467   2.740   5.729 -0.8851 -1.7393 -1.3347
 1795TIP3   OH226799   6.027   1.470  17.143  0.2841 -0.4654  0.4823
 1795TIP3    H126800   6.000   1.384  17.112 -0.1520 -0.2631  0.2919
 1795TIP3    H226801   6.073   1.509  17.069 -0.9944  0.1239 -0.0209
 1796TIP3   OH226802   3.733   4.093   2.810  0.0078  0.6904  0.1029
 1796TIP3    H126803   3.671   4.159   2.780  0.0277  1.0584  0.8439
 1796TIP3    H226804   3.681   4.012   2.816 -0.7614  1.2675  1.9702
 1797TIP3   OH226805   0.802   1.038  13.831  0.0759 -0.2303  0.0307
 1797TIP3    H126806   0.809   1.103  13.901  1.3961 -1.4485  1.0893
 1797TIP3    H226807   0.861   0.968  13.857 -0.7932 -1.5700 -1.4192
 1798TIP3   OH226808   3.112   4.772   2.605  0.4243 -0.1029 -0.0973
 1798TIP3    H126809   3.143   4.731   2.686  0.0697 -1.9585 -0.8582
 1798TIP3    H226810   3.187   4.822   2.574  1.3195 -1.1942  0.2278
 1799TIP3   OH226811   3.547   6.550  17.204 -0.5461  0.0981  0.0490
 1799TIP3    H126812   3.463   6.583  17.171 -0.4782 -0.1404 -0.3634
 1799TIP3    H226813   3.612   6.588  17.145 -0.4651 -0.7418 -0.4070
 1800TIP3   OH226814   3.652   2.860   1.588 -0.2466 -0.7026 -0.7957
 1800TIP3    H126815   3.611   2.805   1.654 -0.0739 -0.4578 -0.4830
 1800TIP3    H226816   3.681   2.938   1.636  0.0873 -0.6269 -1.1158
 1801TIP3   OH226817   6.657   6.102  15.163  0.7493  0.2607 -0.3216
 1801TIP3    H126818   6.659   6.013  15.198 -1.4399 -0.2676 -1.3796
 1801TIP3    H226819   6.630   6.156  15.237 -0.3294 -0.3387 -0.2536
 1802TIP3   OH226820   1.069   2.357   3.680  0.0456 -0.0918  0.0346
 1802TIP3    H126821   0.973   2.348   3.676 -0.1125  1.0299  0.8277
 1802TIP3    H226822   1.089   2.360   3.773  1.0084 -1.5295 -0.0998
 1803TIP3   OH226823   0.118   4.918   4.205 -0.3711  0.3781  0.1874
 1803TIP3    H126824   0.097   4.845   4.148  1.8554 -1.0394  1.0579
 1803TIP3    H226825   0.180   4.971   4.155  0.2570  0.0636  0.6159
 1804TIP3   OH226826   0.278   6.007  15.367 -0.1078 -0.2305 -0.1050
 1804TIP3    H126827   0.310   5.939  15.308  0.8674  0.0814  0.0394
 1804TIP3    H226828   0.295   6.089  15.321 -0.5855 -0.0474  0.0394
 1805TIP3   OH226829   2.671   1.132   3.568 -0.3423 -0.0342  0.0392
 1805TIP3    H126830   2.713   1.102   3.487 -0.2462 -2.1923  0.8151
 1805TIP3    H226831   2.742   1.132   3.632 -0.6696  0.4600  0.4034
 1806TIP3   OH226832   4.644   5.141  16.886  0.0929  0.3778 -0.0874
 1806TIP3    H126833   4.649   5.162  16.792  2.2976  0.1007 -0.0723
 1806TIP3    H226834   4.647   5.226  16.929 -1.1099  0.5180 -0.2385
 1807TIP3   OH226835   4.887   0.934   5.101  0.2592 -0.6841  0.2468
 1807TIP3    H126836   4.829   0.984   5.044 -2.1463 -3.4399  0.0956
 1807TIP3    H226837   4.842   0.931   5.185  1.2120 -1.1400  0.7670
 1808TIP3   OH226838   0.049   5.280   2.069 -0.4398 -0.0982 -0.3897
 1808TIP3    H126839   0.003   5.353   2.026 -1.5415 -0.3368  0.3116
 1808TIP3    H226840   0.079   5.318   2.152 -0.4743 -0.2760 -0.2965
 1809TIP3   OH226841   6.228   5.527   2.205 -0.2118  0.2779  0.0348
 1809TIP3    H126842   6.224   5.433   2.223  0.3418  0.1874 -0.2921
 1809TIP3    H226843   6.162   5.541   2.137  0.4300 -0.0702 -0.6825
 1810TIP3   OH226844   5.408   3.418  15.571  0.7295  0.2265  0.1876
 1810TIP3    H126845   5.348   3.346  15.555  2.2542 -1.0774  0.1688
 1810TIP3    H226846   5.388   3.447  15.661  0.4962 -0.5973  0.4050
 1811TIP3   OH226847   4.146   4.136   1.544  0.0792  0.1394  0.2620
 1811TIP3    H126848   4.168   4.097   1.629 -0.6051 -1.7356 -0.3621
 1811TIP3    H226849   4.230   4.143   1.498  0.1684 -1.1817  0.1907
 1812TIP3   OH226850   4.063   4.494   1.684  0.6375 -0.0189  0.6141
 1812TIP3    H126851   4.142   4.441   1.684  0.3136 -0.5152  0.9540
 1812TIP3    H226852   4.079   4.562   1.618  1.4438  0.0480  0.8700
 1813TIP3   OH226853   2.141   4.102   4.320  0.0136  0.3449 -0.3639
 1813TIP3    H126854   2.227   4.070   4.348 -0.6669 -0.0200  1.4138
 1813TIP3    H226855   2.108   4.033   4.262  0.6192  0.1501 -0.4843
 1814TIP3   OH226856   5.072   3.477   0.950 -0.4621  0.2527  0.0362
 1814TIP3    H126857   5.052   3.562   0.912  0.3922  0.3144 -0.3086
 1814TIP3    H226858   5.075   3.417   0.875 -2.2841 -0.3423  0.4054
 1815TIP3   OH226859   4.929   0.136  11.496 -0.7405  0.2816 -0.0023
 1815TIP3    H126860   5.014   0.143  11.452 -0.4731 -1.3732  0.1781
 1815TIP3    H226861   4.875   0.085  11.435 -0.7362 -1.0081  1.0289
 1816TIP3   OH226862   1.642   0.715  11.804  0.3459  0.3843  0.5664
 1816TIP3    H126863   1.585   0.746  11.875 -0.2795  1.2199 -0.2751
 1816TIP3    H226864   1.590   0.727  11.725  0.8056 -1.1261  0.0176
 1817TIP3   OH226865   3.731   1.168   1.694 -0.5188  0.0031 -0.1627
 1817TIP3    H126866   3.794   1.202   1.757  1.9361  0.4822 -2.6586
 1817TIP3    H226867   3.733   1.073   1.707  1.0112 -0.0198 -0.3759
 1818TIP3   OH226868   3.202   5.255  10.713 -0.0231 -0.0926 -0.3642
 1818TIP3    H126869   3.288   5.251  10.756 -0.8624 -0.4155  1.4021
 1818TIP3    H226870   3.160   5.173  10.737 -1.0575  0.3432 -0.6508
 1819TIP3   OH226871   2.660   2.769  14.291  0.0551 -0.7481 -0.4896
 1819TIP3    H126872   2.630   2.755  14.381  1.5795 -0.4783  0.0791
 1819TIP3    H226873   2.631   2.857  14.270 -0.0923 -0.7197 -0.1824
 1820TIP3   OH226874   3.371   2.163  12.774 -0.0722 -0.1693 -0.1382
 1820TIP3    H126875   3.345   2.127  12.689  0.9230 -0.2113 -0.4400
 1820TIP3    H226876   3.415   2.246  12.752 -0.9518  0.4732  0.4365
 1821TIP3   OH226877   0.217   5.733  12.467  0.0615 -0.6398 -0.7198
 1821TIP3    H126878   0.152   5.677  12.424  0.6733 -1.3187 -0.7762
 1821TIP3    H226879   0.301   5.697  12.440  0.4782 -1.2362  1.2176
 1822TIP3   OH226880   2.503   4.650  14.123  0.4008 -0.1693  0.1896
 1822TIP3    H126881   2.473   4.739  14.107 -0.9840 -0.2571  1.9654
 1822TIP3    H226882   2.477   4.601  14.045 -1.9882  0.2943  0.6243
 1823TIP3   OH226883   3.670   4.138   6.182  0.5309 -0.3476  0.1252
 1823TIP3    H126884   3.679   4.179   6.268  0.7257  1.3920 -0.6672
 1823TIP3    H226885   3.757   4.146   6.142  0.7355 -2.1079  0.1352
 1824TIP3   OH226886   1.992   4.546  12.846 -0.0129  0.4956  0.1202
 1824TIP3    H126887   2.037   4.461  12.839  1.9323  1.5630 -0.9329
 1824TIP3    H226888   1.924   4.530  12.912 -0.5086 -2.2005 -0.8864
 1825TIP3   OH226889   5.029   3.099   5.300  0.0262 -0.2416 -0.8711
 1825TIP3    H126890   5.114   3.108   5.255  0.2429  1.6480 -0.1776
 1825TIP3    H226891   5.044   3.031   5.366  1.7043  1.5312  0.6819
 1826TIP3   OH226892   1.647   3.985   3.701 -0.0688 -0.3690  0.0464
 1826TIP3    H126893   1.631   3.891   3.716  0.9530 -0.3813  1.1932
 1826TIP3    H226894   1.670   3.991   3.608 -0.9937 -1.1268 -0.2477
 1827TIP3   OH226895   4.977   5.606  17.368  0.2056 -0.2001 -0.0249
 1827TIP3    H126896   4.918   5.679  17.347 -0.4055 -0.8291 -0.5461
 1827TIP3    H226897   5.020   5.633  17.449  0.2055  0.8638 -0.3598
 1828TIP3   OH226898   5.907   5.114   1.676 -0.2217 -0.2813  0.3902
 1828TIP3    H126899   5.866   5.163   1.605  1.1545 -0.0200 -0.2583
 1828TIP3    H226900   5.941   5.035   1.633 -0.5183 -0.7559  1.0175
 1829TIP3   OH226901   1.964   4.557  14.724  0.3055 -0.1864  0.3827
 1829TIP3    H126902   1.968   4.462  14.711 -0.8717 -0.2050  0.0551
 1829TIP3    H226903   2.055   4.582  14.739  0.6118 -1.3909  0.6806
 1830TIP3   OH226904   1.239   2.394   2.997 -0.2016  0.4420  0.0891
 1830TIP3    H126905   1.242   2.453   3.072  0.5811  1.3885 -0.6696
 1830TIP3    H226906   1.156   2.347   3.006 -0.2056  0.6819  1.4275
 1831TIP3   OH226907   4.948   2.280  11.651  0.6139  0.1955  0.2314
 1831TIP3    H126908   4.927   2.295  11.743  0.0966 -0.6463  0.2625
 1831TIP3    H226909   5.016   2.213  11.652  1.2323  0.8061  0.0207
 1832TIP3   OH226910   1.885   1.118   4.310  0.2260 -0.2112  0.4660
 1832TIP3    H126911   1.942   1.168   4.251 -0.3257 -1.3208 -1.0889
 1832TIP3    H226912   1.930   1.119   4.394  1.2433  1.1235 -0.0605
 1833TIP3   OH226913   1.356   5.237  12.912 -0.0794  0.0042 -0.6970
 1833TIP3    H126914   1.411   5.200  12.843  0.0057  0.6020 -0.9541
 1833TIP3    H226915   1.367   5.332  12.903 -0.8909  0.1205 -0.5388
 1834TIP3   OH226916   1.616   0.598  15.387  0.8329 -0.6580 -0.5145
 1834TIP3    H126917   1.590   0.687  15.363  4.0785  0.6180  0.1184
 1834TIP3    H226918   1.571   0.581  15.470  1.2489  1.0449  0.1014
 1835TIP3   OH226919   0.383   5.744  16.009  0.2221 -0.0715  0.2072
 1835TIP3    H126920   0.428   5.778  16.087 -1.0015  0.6755  0.6194
 1835TIP3    H226921   0.453   5.729  15.945  1.0830  0.7465  0.9315
 1836TIP3   OH226922   0.488   5.140  14.595 -0.0232  0.2676 -0.2538
 1836TIP3    H126923   0.562   5.124  14.653 -1.4627  0.0705  1.6139
 1836TIP3    H226924   0.440   5.057  14.594 -0.4416  0.5108 -1.1310
 1837TIP3   OH226925   3.693   0.322   1.376  0.0522  0.4531  0.0451
 1837TIP3    H126926   3.672   0.364   1.459  0.6120  1.9470 -0.5382
 1837TIP3    H226927   3.609   0.286   1.346 -0.4559  1.1439  0.5824
 1838TIP3   OH226928   0.423   2.437  13.400 -0.3099  0.1481 -0.2339
 1838TIP3    H126929   0.482   2.381  13.451  0.8717  0.1500 -1.5245
 1838TIP3    H226930   0.358   2.377  13.364 -0.9972  0.1114  1.0245
 1839TIP3   OH226931   5.555   0.294  12.228 -0.1940 -0.1599  0.5432
 1839TIP3    H126932   5.479   0.236  12.236 -1.3347  1.0834 -0.7905
 1839TIP3    H226933   5.608   0.273  12.305 -0.6102 -2.8205  0.2264
 1840TIP3   OH226934   2.400   1.007  14.430  0.3003 -0.1918  0.2473
 1840TIP3    H126935   2.419   1.097  14.455  1.0048 -0.5141  0.9238
 1840TIP3    H226936   2.365   0.966  14.509  1.2678 -0.8571  0.3617
 1841TIP3   OH226937   4.995   4.219   3.221  0.0327  0.2036  0.2996
 1841TIP3    H126938   5.000   4.301   3.172  1.3241  0.3634  0.6845
 1841TIP3    H226939   4.906   4.187   3.204 -0.2936  1.3842 -0.3182
 1842TIP3   OH226940   6.029   3.270   6.086 -0.6479 -0.0267 -0.3009
 1842TIP3    H126941   6.033   3.330   6.160 -1.1157  0.1980 -0.4541
 1842TIP3    H226942   5.944   3.227   6.094 -0.4278 -0.4841 -0.3419
 1843TIP3   OH226943   5.728   3.024   2.093  0.1763 -0.2171  0.2267
 1843TIP3    H126944   5.671   2.984   2.159  0.9725 -0.1640  0.9670
 1843TIP3    H226945   5.670   3.079   2.041 -0.7923 -1.6463 -0.2690
 1844TIP3   OH226946   1.905   6.677  12.633  0.3314 -0.0501 -0.2935
 1844TIP3    H126947   1.946   6.688  12.547 -2.9194 -0.1182 -1.9842
 1844TIP3    H226948   1.919   6.584  12.654  2.5523  0.3203  0.1218
 1845TIP3   OH226949   1.867   1.441   1.710  0.5765  0.0040  0.1167
 1845TIP3    H126950   1.925   1.513   1.684 -0.5677  0.4369 -1.4096
 1845TIP3    H226951   1.778   1.477   1.701  0.0057 -1.3215  0.1713
 1846TIP3   OH226952   2.642   2.974  16.190  0.0226  0.6874  0.8043
 1846TIP3    H126953   2.614   2.953  16.101  2.7594  2.1514 -0.5081
 1846TIP3    H226954   2.585   2.921  16.246 -0.7476 -1.4794 -1.8321
 1847TIP3   OH226955   3.010   6.739   2.816  0.0975  0.1032  0.3707
 1847TIP3    H126956   2.997   6.776   2.903 -0.9903 -0.1659  0.3416
 1847TIP3    H226957   2.991   6.646   2.826 -2.4325  0.4368 -0.5962
 1848TIP3   OH226958   2.503   0.117   0.344 -0.0417  0.1139 -0.1749
 1848TIP3    H126959   2.594   0.116   0.315  0.1339 -0.2851  0.3675
 1848TIP3    H226960   2.467   0.198   0.308  0.6407  0.4719 -0.0703
 1849TIP3   OH226961   5.192   3.784  14.805 -0.2735 -0.0869 -0.2200
 1849TIP3    H126962   5.174   3.846  14.876 -0.7785  1.3420 -1.5273
 1849TIP3    H226963   5.199   3.699  14.848  0.8498  0.9121  1.7197
 1850TIP3   OH226964   2.761   3.274   3.547  0.1516 -0.0026  0.0584
 1850TIP3    H126965   2.690   3.237   3.599  1.3855  0.2978  2.0482
 1850TIP3    H226966   2.718   3.341   3.493 -1.2148 -0.4681  0.5205
 1851TIP3   OH226967   1.117   3.521  12.334  0.4355 -0.3303 -0.4790
 1851TIP3    H126968   1.187   3.584  12.352 -0.5988  0.7131  0.0010
 1851TIP3    H226969   1.131   3.496  12.242  0.3073  1.3552 -1.0039
 1852TIP3   OH226970   3.493   5.149  11.302 -0.5218  0.1987 -0.0797
 1852TIP3    H126971   3.483   5.143  11.208 -2.9072  0.3489  0.1121
 1852TIP3    H226972   3.557   5.220  11.315  0.0238  0.0107 -1.5474
 1853TIP3   OH226973   1.054   6.475   4.191  0.4948 -0.5123 -0.0418
 1853TIP3    H126974   1.095   6.389   4.200  1.5993  0.1539  1.7514
 1853TIP3    H226975   1.007   6.488   4.273 -0.1633  0.3772 -0.5315
 1854TIP3   OH226976   0.174   0.977   4.421  0.4102 -0.2180  0.6017
 1854TIP3    H126977   0.237   0.985   4.350 -0.5751 -0.7981 -0.3604
 1854TIP3    H226978   0.181   0.885   4.449  0.0970 -0.2484  0.5865
 1855TIP3   OH226979   5.628   5.667  11.445 -0.3813  0.1346 -0.1049
 1855TIP3    H126980   5.534   5.677  11.459 -0.3564 -0.3921  0.4926
 1855TIP3    H226981   5.667   5.742  11.490 -0.4874  0.1124  0.0230
 1856TIP3   OH226982   2.678   0.651   0.699 -0.2881  0.0178 -0.0045
 1856TIP3    H126983   2.701   0.564   0.731 -0.7865 -0.4053 -0.7822
 1856TIP3    H226984   2.760   0.700   0.703 -0.0980 -0.3509  0.8443
 1857TIP3   OH226985   2.806   1.691  16.487 -0.5525 -0.2842  0.4730
 1857TIP3    H126986   2.800   1.784  16.467  0.6995 -0.5702 -1.5467
 1857TIP3    H226987   2.873   1.684  16.556 -1.4535  0.3623  1.4378
 1858TIP3   OH226988   2.950   2.890  11.160 -0.3781 -0.1483 -0.5026
 1858TIP3    H126989   2.999   2.885  11.242  0.9573 -0.1513 -1.2736
 1858TIP3    H226990   2.903   2.806  11.155 -0.0305 -0.3739 -0.0157
 1859TIP3   OH226991   6.124   4.592  16.475 -0.3196  0.6011 -0.5377
 1859TIP3    H126992   6.207   4.638  16.464  0.1830 -0.3979 -1.0307
 1859TIP3    H226993   6.077   4.644  16.540  0.7978  1.0485 -0.0515
 1860TIP3   OH226994   2.867   0.642  16.137 -0.4339  0.4105 -0.1988
 1860TIP3    H126995   2.941   0.701  16.150 -0.3270  0.2183  0.0532
 1860TIP3    H226996   2.875   0.613  16.046 -0.5258  0.8382 -0.3452
 1861TIP3   OH226997   5.374   2.900   1.570  0.2099  0.3760 -0.5506
 1861TIP3    H126998   5.467   2.914   1.554  0.2906  1.0949  0.4625
 1861TIP3    H226999   5.337   2.884   1.483  1.2389  0.3165 -0.9899
 1862TIP3   OH227000   2.054   1.046   1.056 -0.1301  0.3366 -0.1602
 1862TIP3    H127001   2.131   1.103   1.053 -0.9053  1.3666 -2.1433
 1862TIP3    H227002   1.995   1.088   1.118  0.1370  0.5892 -0.0786
 1863TIP3   OH227003   4.425   5.879   1.618  0.6020  0.5251 -0.2165
 1863TIP3    H127004   4.457   5.796   1.583  0.7703  0.8379 -0.8264
 1863TIP3    H227005   4.491   5.906   1.681  0.9451  0.5825 -0.5976
 1864TIP3   OH227006   0.109   6.140  16.436  0.1481 -0.3212  0.4233
 1864TIP3    H127007   0.028   6.094  16.457  0.2007 -0.0326  1.3140
 1864TIP3    H227008   0.166   6.073  16.398 -0.2603 -0.6791  0.4341
 1865TIP3   OH227009   5.201   2.467   5.614 -0.1058  0.3842 -0.2226
 1865TIP3    H127010   5.293   2.493   5.625 -0.1164 -0.2996  2.0842
 1865TIP3    H227011   5.171   2.450   5.703 -0.8539 -4.8249 -1.1269
 1866TIP3   OH227012   6.670   3.255  11.596 -0.1288 -0.3555 -0.4422
 1866TIP3    H127013   6.578   3.282  11.585  0.7298  2.6719 -1.1075
 1866TIP3    H227014   6.703   3.247  11.506  0.8850  1.1714 -0.2359
 1867TIP3   OH227015   3.207   1.121  15.182  0.0970  0.9494  0.1931
 1867TIP3    H127016   3.153   1.121  15.261 -1.0539  2.0799 -0.5493
 1867TIP3    H227017   3.213   1.213  15.156  0.0239  0.5692 -1.2895
 1868TIP3   OH227018   5.718   5.026  11.698  0.0683  0.5619  0.2244
 1868TIP3    H127019   5.637   5.062  11.734 -1.5682 -1.9836 -0.5991
 1868TIP3    H227020   5.732   5.072  11.616 -2.1340 -0.7343 -0.9635
 1869TIP3   OH227021   3.863   3.948   1.170 -0.2372 -0.0258 -0.0221
 1869TIP3    H127022   3.817   3.917   1.092  0.9652 -0.8241 -0.4421
 1869TIP3    H227023   3.952   3.968   1.139  0.4860 -1.0876  1.2649
 1870TIP3   OH227024   2.739   3.425  11.048 -0.4441  0.9067 -0.1314
 1870TIP3    H127025   2.665   3.467  11.091 -0.4684  1.4414 -0.6745
 1870TIP3    H227026   2.810   3.430  11.112 -0.7926  0.6484  0.2803
 1871TIP3   OH227027   5.049   1.227  14.414 -0.3394 -0.4537 -0.0009
 1871TIP3    H127028   5.095   1.196  14.336 -0.5387 -1.3913  0.2421
 1871TIP3    H227029   4.970   1.270  14.380 -0.7844 -1.4836 -0.2974
 1872TIP3   OH227030   3.282   6.721   6.808  0.6259 -0.7360  0.7148
 1872TIP3    H127031   3.224   6.724   6.732  0.9062 -1.4102  0.4601
 1872TIP3    H227032   3.356   6.667   6.779  0.6698 -1.1161  1.5129
 1873TIP3   OH227033   1.071   0.437  13.470 -0.1585  0.3246 -0.0843
 1873TIP3    H127034   1.147   0.406  13.421  0.0809 -0.7077  0.9034
 1873TIP3    H227035   1.055   0.526  13.436  0.3689 -0.1212 -1.5618
 1874TIP3   OH227036   3.858   6.341   5.664  0.0959  0.3047 -0.5644
 1874TIP3    H127037   3.776   6.292   5.670  0.4539 -0.4468 -1.4958
 1874TIP3    H227038   3.855   6.382   5.577 -0.5097  2.5721  0.4612
 1875TIP3   OH227039   4.763   6.053   2.137  0.4789  0.1534  0.2331
 1875TIP3    H127040   4.791   6.101   2.059  0.2256 -0.6239 -0.3453
 1875TIP3    H227041   4.831   5.986   2.149  0.0051 -0.3625  0.0864
 1876TIP3   OH227042   5.442   5.112   3.906  0.0544 -0.0028  0.2211
 1876TIP3    H127043   5.482   5.038   3.861  0.1487 -0.3791  0.9208
 1876TIP3    H227044   5.509   5.181   3.903  0.2898 -0.2268  0.3226
 1877TIP3   OH227045   2.866   4.267  12.938  0.0331  0.0546 -0.2839
 1877TIP3    H127046   2.797   4.212  12.900  0.0282  1.4327 -2.4112
 1877TIP3    H227047   2.947   4.218  12.920 -0.2051 -0.6390  0.4786
 1878TIP3   OH227048   1.875   1.986  14.091  0.0762 -0.1377 -0.3596
 1878TIP3    H127049   1.870   1.916  14.025 -0.8361 -0.5651  0.1474
 1878TIP3    H227050   1.888   1.939  14.174  1.8253  0.4234 -0.2811
 1879TIP3   OH227051   2.460   1.583  14.608 -0.7784  0.6366 -0.1303
 1879TIP3    H127052   2.505   1.664  14.585 -0.0913  0.0648 -0.8540
 1879TIP3    H227053   2.400   1.567  14.535  0.7310 -0.6873 -1.1482
 1880TIP3   OH227054   4.516   6.710  17.123 -0.2508  0.7319 -0.0829
 1880TIP3    H127055   4.608   6.709  17.097 -0.3057 -0.4356 -0.3133
 1880TIP3    H227056   4.469   6.678  17.045 -0.5712 -1.3150  0.8819
 1881TIP3   OH227057   4.040   0.252  11.610  0.1916 -0.3545 -0.1790
 1881TIP3    H127058   3.996   0.260  11.525 -0.1749 -0.1255  0.0302
 1881TIP3    H227059   4.008   0.326  11.660  0.9031 -0.1244 -0.0552
 1882TIP3   OH227060   2.839   3.860  11.903 -0.1765  0.1745 -0.0733
 1882TIP3    H127061   2.824   3.937  11.959  0.4390  0.6087 -0.4858
 1882TIP3    H227062   2.797   3.882  11.820  0.7603  0.4622 -0.4928
 1883TIP3   OH227063   4.008   5.523   1.907  0.3006 -0.1203 -0.2035
 1883TIP3    H127064   4.082   5.570   1.944  0.1854 -0.6539  0.7580
 1883TIP3    H227065   4.034   5.431   1.909 -0.4274 -0.3284  0.2842
 1884TIP3   OH227066   4.967   2.502   4.767 -0.8725 -0.0731 -0.2569
 1884TIP3    H127067   4.883   2.482   4.725 -0.9207 -1.5906  0.4727
 1884TIP3    H227068   4.961   2.595   4.788 -0.5414  0.9953 -4.1280
 1885TIP3   OH227069   0.530   5.193  10.858  0.5121 -0.4005 -0.4608
 1885TIP3    H127070   0.536   5.111  10.907  1.6588 -0.6619 -1.0224
 1885TIP3    H227071   0.436   5.213  10.858  0.3304 -1.1369  0.6024
 1886TIP3   OH227072   1.178   0.380   2.509 -0.2789  0.5874 -0.1975
 1886TIP3    H127073   1.266   0.401   2.540 -0.1248 -0.0103 -0.2221
 1886TIP3    H227074   1.192   0.322   2.434 -0.7153 -1.2922  1.1014
 1887TIP3   OH227075   5.677   3.789   1.960  0.6522 -0.1254 -1.0222
 1887TIP3    H127076   5.674   3.719   2.025  1.4013 -0.2359 -1.0973
 1887TIP3    H227077   5.709   3.865   2.009  3.8683 -0.8523 -1.7596
 1888TIP3   OH227078   6.508   3.904   5.182 -0.1902  0.0835 -0.1686
 1888TIP3    H127079   6.598   3.879   5.159  0.3955  0.3691  1.6220
 1888TIP3    H227080   6.453   3.851   5.125  1.1047 -0.4834 -0.9406
 1889TIP3   OH227081   1.420   4.767   3.858 -0.4614  0.7730  0.1162
 1889TIP3    H127082   1.396   4.709   3.785 -2.3184  1.4026  0.1594
 1889TIP3    H227083   1.387   4.722   3.936 -0.1133  0.9567  0.3727
 1890TIP3   OH227084   0.147   6.242  12.251  0.3726 -0.3228 -0.4020
 1890TIP3    H127085   0.092   6.202  12.183  0.5432  1.0699 -1.4020
 1890TIP3    H227086   0.192   6.168  12.292 -2.2704 -1.5460  0.5435
 1891TIP3   OH227087   3.540   1.351  12.159  0.0225  0.3628 -0.5127
 1891TIP3    H127088   3.601   1.399  12.103 -0.0494  1.3756  0.2634
 1891TIP3    H227089   3.485   1.302  12.098  1.7251 -0.7472 -1.2335
 1892TIP3   OH227090   3.144   3.458   3.583 -0.2594 -0.0706 -0.1681
 1892TIP3    H127091   3.095   3.382   3.615 -2.7842  0.5358 -2.2219
 1892TIP3    H227092   3.227   3.422   3.552  0.4748 -1.2570  2.7804
 1893TIP3   OH227093   3.403   4.498  16.059 -0.5669  0.2561 -0.6203
 1893TIP3    H127094   3.442   4.454  16.134 -2.5960  1.1178  1.0184
 1893TIP3    H227095   3.368   4.428  16.005 -3.5424 -0.3406  1.8321
 1894TIP3   OH227096   4.779   2.477  13.696  0.0991  0.3473 -0.4056
 1894TIP3    H127097   4.800   2.566  13.667 -0.1585  0.6531  0.3150
 1894TIP3    H227098   4.711   2.448  13.636  0.9038  0.2420 -1.2854
 1895TIP3   OH227099   2.597   5.038   6.838  0.5254  0.1227  0.4827
 1895TIP3    H127100   2.553   5.001   6.915  0.8354 -1.8363 -0.2260
 1895TIP3    H227101   2.544   5.009   6.764  0.2101  2.0065 -0.0954
 1896TIP3   OH227102   6.156   1.585   1.542 -0.6541  0.4480 -0.0343
 1896TIP3    H127103   6.094   1.517   1.516 -0.3024  0.4913 -1.0274
 1896TIP3    H227104   6.206   1.545   1.613 -1.9711  0.5113  0.9646
 1897TIP3   OH227105   4.738   0.685   2.680 -0.1370  0.0822  0.0632
 1897TIP3    H127106   4.751   0.780   2.687 -0.6848  0.2487 -0.9709
 1897TIP3    H227107   4.741   0.668   2.586  1.4811 -1.1632  0.2908
 1898TIP3   OH227108   5.336   3.641  10.695  0.6856 -0.0815 -0.2384
 1898TIP3    H127109   5.375   3.712  10.645  0.9671 -1.3952 -1.9885
 1898TIP3    H227110   5.256   3.618  10.647  0.4315 -0.7313  0.4688
 1899TIP3   OH227111   6.229   1.866   2.679  0.5532  0.2970  0.2877
 1899TIP3    H127112   6.226   1.872   2.583  0.0880  0.5663  0.3171
 1899TIP3    H227113   6.321   1.847   2.699  0.2291 -2.4090 -0.3694
 1900TIP3   OH227114   0.027   1.254  16.232  0.2230 -0.8059  0.0165
 1900TIP3    H127115   0.016   1.233  16.325 -4.1448 -0.9276 -0.3298
 1900TIP3    H227116  -0.019   1.184  16.186 -1.0152  1.1769 -1.9822
 1901TIP3   OH227117   5.352   3.946  11.530 -0.2821  0.4052  0.2134
 1901TIP3    H127118   5.358   4.023  11.474  1.2532 -0.3734 -0.7840
 1901TIP3    H227119   5.259   3.922  11.529 -0.4168  0.8699 -1.4086
 1902TIP3   OH227120   4.948   4.906   5.656 -0.2513  0.4764  0.5301
 1902TIP3    H127121   4.961   4.987   5.607 -1.5120  0.2388 -0.2465
 1902TIP3    H227122   4.872   4.865   5.615 -0.0274 -0.7945  1.3185
 1903TIP3   OH227123   5.084   2.266  12.749 -0.0594  0.1600 -0.3768
 1903TIP3    H127124   5.067   2.340  12.807  1.3348 -0.3295  0.7244
 1903TIP3    H227125   5.148   2.213  12.797 -0.9884 -1.7351 -1.1541
 1904TIP3   OH227126   6.541   1.866   3.464  0.0271 -1.1987  0.5794
 1904TIP3    H127127   6.606   1.934   3.483 -0.2562 -0.9009  0.5066
 1904TIP3    H227128   6.505   1.891   3.379 -2.3696  0.4000  1.9515
 1905TIP3   OH227129   0.455   0.562  13.964  0.2847  0.3197  0.0837
 1905TIP3    H127130   0.491   0.474  13.978  1.0523  0.7175  0.6411
 1905TIP3    H227131   0.420   0.559  13.875  0.3767 -0.5257  0.0637
 1906TIP3   OH227132   3.864   1.381   0.483 -0.3458 -0.2490  0.0178
 1906TIP3    H127133   3.831   1.332   0.559 -1.4133 -2.3693 -1.7154
 1906TIP3    H227134   3.806   1.457   0.476 -2.1282 -1.6115 -0.3899
 1907TIP3   OH227135   5.018   1.132  11.452 -0.1462  0.5978 -0.4809
 1907TIP3    H127136   5.059   1.142  11.366 -0.9103  0.7112 -0.8420
 1907TIP3    H227137   5.064   1.195  11.508  0.7751  0.0875 -0.6380
 1908TIP3   OH227138   2.650   6.474   4.045  0.3459 -0.4137  0.1834
 1908TIP3    H127139   2.651   6.389   4.000 -1.3455  0.6025 -1.9161
 1908TIP3    H227140   2.562   6.507   4.032  0.7407  1.3639  1.6527
 1909TIP3   OH227141   6.076   4.568  11.248 -0.2003 -0.0947 -0.6401
 1909TIP3    H127142   6.012   4.567  11.319 -1.1799  0.8094 -1.4658
 1909TIP3    H227143   6.143   4.630  11.277 -0.2814 -0.1862 -0.2523
 1910TIP3   OH227144   4.036   5.997   2.080  0.1346  0.2017  0.0567
 1910TIP3    H127145   4.029   5.980   2.174 -0.8911  0.2642  0.0006
 1910TIP3    H227146   4.102   6.067   2.073  0.3584  0.0576  0.7077
 1911TIP3   OH227147   1.631   4.871   4.502 -0.2547  0.4686  0.0712
 1911TIP3    H127148   1.550   4.888   4.551  1.3846  0.8331  2.8754
 1911TIP3    H227149   1.664   4.958   4.480 -0.0564  0.3538 -0.0784
 1912TIP3   OH227150   4.903   2.536   0.920 -0.3420 -0.2541 -0.0895
 1912TIP3    H127151   4.820   2.489   0.929  0.1167 -1.1767 -0.5736
 1912TIP3    H227152   4.899   2.604   0.987 -0.7090 -1.4612  1.1738
 1913TIP3   OH227153   6.023   5.316  12.536  0.4081  0.2516  0.0104
 1913TIP3    H127154   5.969   5.386  12.570  0.5244  0.5800 -0.4739
 1913TIP3    H227155   5.979   5.288  12.455 -0.3818 -1.1560  0.8836
 1914TIP3   OH227156   6.664   4.448   4.050  0.1095  0.1043 -0.0753
 1914TIP3    H127157   6.703   4.530   4.081 -2.9922  2.1314 -1.0231
 1914TIP3    H227158   6.674   4.451   3.955  0.6198 -1.0137 -0.0653
 1915TIP3   OH227159   5.405   6.511   3.950  0.4236 -0.1180  0.6010
 1915TIP3    H127160   5.465   6.455   3.998  1.9324  0.5015 -0.4891
 1915TIP3    H227161   5.441   6.515   3.861 -0.0463  1.9316  0.4415
 1916TIP3   OH227162   6.448   2.740   2.220  0.6745 -0.3328  0.1819
 1916TIP3    H127163   6.441   2.674   2.151  0.0085  0.1163 -0.1881
 1916TIP3    H227164   6.363   2.783   2.220  0.1961 -1.1688  2.1356
 1917TIP3   OH227165   0.240   6.284  12.643  1.0498 -0.3908 -0.4676
 1917TIP3    H127166   0.185   6.211  12.673  0.1306 -0.2455 -1.7016
 1917TIP3    H227167   0.178   6.346  12.604  1.9663  0.4128 -0.6923
 1918TIP3   OH227168   1.294   2.459  12.639  0.1561  0.0308  0.1993
 1918TIP3    H127169   1.280   2.369  12.665 -1.5959  0.3851  0.5935
 1918TIP3    H227170   1.273   2.511  12.717  1.9234  0.7613  0.2329
 1919TIP3   OH227171   1.255   2.356   2.067 -0.3515  0.2518  0.3566
 1919TIP3    H127172   1.330   2.370   2.125 -0.0137 -0.9798  0.2522
 1919TIP3    H227173   1.191   2.421   2.093  1.4149  2.5858 -0.7396
 1920TIP3   OH227174   5.438   4.075   5.693 -0.6893  0.1909  0.7688
 1920TIP3    H127175   5.359   4.041   5.734  0.4707  0.6286  3.6536
 1920TIP3    H227176   5.509   4.022   5.731  0.7003  2.3799  1.3994
 1921TIP3   OH227177   2.963   3.573   4.363  0.6261 -0.4492  0.5197
 1921TIP3    H127178   3.003   3.488   4.382 -0.3152 -0.8680  0.7017
 1921TIP3    H227179   2.989   3.629   4.436 -0.0848 -1.0532  1.2434
 1922TIP3   OH227180   2.114   0.893  12.728 -0.6236 -0.1631  0.1184
 1922TIP3    H127181   2.095   0.799  12.732 -0.1763 -0.2705 -0.2599
 1922TIP3    H227182   2.150   0.914  12.814 -0.8346 -0.3092  0.2443
 1923TIP3   OH227183   1.707   4.043   2.462 -0.5652 -0.0831 -0.4031
 1923TIP3    H127184   1.659   3.963   2.485 -0.8699  0.1441 -0.2398
 1923TIP3    H227185   1.737   4.077   2.546 -1.4154  0.5854 -0.3535
 1924TIP3   OH227186   4.449   5.534   5.987  0.2539  0.3365 -0.1367
 1924TIP3    H127187   4.526   5.494   6.026 -0.3235  0.0523  0.7419
 1924TIP3    H227188   4.448   5.623   6.020 -1.2098 -0.4015  2.0403
 1925TIP3   OH227189   0.076   3.107   6.402 -0.2349 -0.1449  0.0254
 1925TIP3    H127190   0.099   3.090   6.310  2.4622 -0.6130  0.7047
 1925TIP3    H227191   0.159   3.131   6.443 -1.4236  0.2878  2.3204
 1926TIP3   OH227192   5.915   6.146   0.414  0.2790  0.2417 -0.4903
 1926TIP3    H127193   5.895   6.064   0.458 -0.2910  0.2835 -0.6591
 1926TIP3    H227194   5.829   6.185   0.396  0.2417 -1.2187 -4.4138
 1927TIP3   OH227195   1.468   3.942   2.085  0.1716 -0.2125  0.2297
 1927TIP3    H127196   1.562   3.947   2.104  0.5372  2.1974 -1.6488
 1927TIP3    H227197   1.463   3.894   2.002  0.1477  2.1906 -1.2700
 1928TIP3   OH227198   5.451   3.509   1.425 -0.1680  0.2575  0.4072
 1928TIP3    H127199   5.512   3.570   1.467  0.0073  0.8755 -0.7080
 1928TIP3    H227200   5.392   3.565   1.375 -0.8253 -0.4214  0.4086
 1929TIP3   OH227201   4.158   3.687  16.804  0.1743  0.0231 -0.2602
 1929TIP3    H127202   4.109   3.765  16.828  1.5172  0.4566  1.2702
 1929TIP3    H227203   4.093   3.627  16.768 -1.1586  1.2162  0.1056
 1930TIP3   OH227204   1.314   1.868   2.602  0.2313 -0.5986  0.6090
 1930TIP3    H127205   1.307   1.847   2.696 -0.3721 -1.8733  0.3031
 1930TIP3    H227206   1.350   1.788   2.563 -0.9508 -0.6359 -0.4471
 1931TIP3   OH227207   4.646   4.784   6.287  0.1181 -0.4568  0.4035
 1931TIP3    H127208   4.593   4.831   6.223 -0.9623  0.7669  2.1033
 1931TIP3    H227209   4.640   4.692   6.261 -1.1642 -0.0997 -0.6254
 1932TIP3   OH227210   0.964   4.011  13.838 -0.2755 -0.5415  0.5174
 1932TIP3    H127211   1.043   4.064  13.848 -1.0554  0.8597 -0.4909
 1932TIP3    H227212   0.953   3.968  13.923  2.2747 -1.8323  0.3177
 1933TIP3   OH227213   2.630   0.792  10.704 -0.0984  0.0280 -0.0224
 1933TIP3    H127214   2.690   0.817  10.775 -1.0667 -1.4566  1.3978
 1933TIP3    H227215   2.676   0.723  10.657  0.6306  1.1542 -1.0131
 1934TIP3   OH227216   0.515   0.985  16.741 -0.1802 -0.6344 -0.0999
 1934TIP3    H127217   0.541   1.049  16.807  0.2969  0.0168 -0.9032
 1934TIP3    H227218   0.507   1.035  16.660  0.6358 -1.6497 -0.8437
 1935TIP3   OH227219   4.898   5.470  15.874 -0.0167 -0.1122 -0.5132
 1935TIP3    H127220   4.810   5.501  15.893  0.6646  2.1765 -0.7461
 1935TIP3    H227221   4.939   5.459  15.960  0.1404  1.0143 -0.4298
 1936TIP3   OH227222   1.751   1.505   6.227 -0.3435  0.5598  0.2974
 1936TIP3    H127223   1.702   1.424   6.240  0.9286 -0.1641  0.7728
 1936TIP3    H227224   1.815   1.506   6.299 -1.5111  2.9220  1.4321
 1937TIP3   OH227225   1.062   1.796   0.398  0.1741 -0.5422 -1.0265
 1937TIP3    H127226   1.143   1.793   0.450 -1.4874 -0.7699  1.7797
 1937TIP3    H227227   1.049   1.888   0.379 -1.2093  0.2227  2.7152
 1938TIP3   OH227228   2.637   5.747   6.843  0.2920 -0.1945  0.6319
 1938TIP3    H127229   2.665   5.823   6.894  0.6050  0.5864 -0.6514
 1938TIP3    H227230   2.691   5.675   6.875  1.1408  0.4877  0.7727
 1939TIP3   OH227231   6.245   1.192   2.705 -0.1977 -0.0669  0.7649
 1939TIP3    H127232   6.255   1.215   2.613 -2.6501 -0.9828  0.1927
 1939TIP3    H227233   6.240   1.097   2.706 -0.1678 -0.0745  1.8609
 1940TIP3   OH227234   1.068   4.344  12.442  0.2497 -0.1894 -0.2427
 1940TIP3    H127235   1.100   4.435  12.448  2.2627 -0.8882  0.6370
 1940TIP3    H227236   1.043   4.333  12.351 -0.3171  1.3256 -0.3069
 1941TIP3   OH227237   4.667   1.409  13.329 -0.3884 -0.4712  0.0586
 1941TIP3    H127238   4.697   1.318  13.326 -0.8453 -0.6320  0.3485
 1941TIP3    H227239   4.573   1.403  13.343 -0.3135  0.0606  0.8311
 1942TIP3   OH227240   0.687   0.732   1.886  0.4904 -0.4243 -0.1472
 1942TIP3    H127241   0.724   0.685   1.811  1.2207 -0.4066  0.1936
 1942TIP3    H227242   0.728   0.692   1.962  0.3334  0.0735  0.2040
 1943TIP3   OH227243   4.637   4.075   2.391 -0.1808  0.4853  0.7151
 1943TIP3    H127244   4.664   4.052   2.480 -0.7414  0.0450  0.7788
 1943TIP3    H227245   4.578   4.004   2.365  1.5409 -0.5063 -0.7796
 1944TIP3   OH227246   5.652   3.697   0.538  1.1420  0.1847 -0.0978
 1944TIP3    H127247   5.738   3.740   0.536  0.8628  0.7920  0.6806
 1944TIP3    H227248   5.669   3.612   0.578  1.4048  0.2480 -0.0693
 1945TIP3   OH227249   1.680   4.857   3.898  0.6554 -0.7668 -0.6419
 1945TIP3    H127250   1.723   4.797   3.958 -0.5527 -1.0328 -0.0030
 1945TIP3    H227251   1.608   4.805   3.860 -1.7252  0.7562  1.4439
 1946TIP3   OH227252   1.215   2.457  13.426 -0.3473  0.2976  0.4713
 1946TIP3    H127253   1.136   2.455  13.480 -1.7512 -0.3367 -1.4703
 1946TIP3    H227254   1.209   2.378  13.372  1.0719  0.7906 -0.4528
 1947TIP3   OH227255   0.097   4.128  17.031 -0.0943  0.5301 -0.1503
 1947TIP3    H127256   0.087   4.211  16.984  1.0508  0.0022 -1.3927
 1947TIP3    H227257   0.124   4.154  17.120 -2.3503  1.5460  0.3150
 1948TIP3   OH227258   0.588   3.810  11.578 -0.4022 -0.0791 -0.3597
 1948TIP3    H127259   0.581   3.905  11.567 -1.3012 -0.3478 -2.8165
 1948TIP3    H227260   0.668   3.786  11.532 -1.9580 -0.8001 -2.9253
 1949TIP3   OH227261   4.259   5.647  11.092  0.0275  0.1480 -0.2537
 1949TIP3    H127262   4.178   5.691  11.119  0.1199  1.0399 -1.3606
 1949TIP3    H227263   4.238   5.608  11.007  0.8332  0.6656 -0.7084
 1950TIP3   OH227264   6.416   6.377   5.164  0.1664 -0.5797  0.1939
 1950TIP3    H127265   6.490   6.321   5.140  2.1078  1.8704 -0.0275
 1950TIP3    H227266   6.410   6.441   5.092 -0.5316  0.7740  1.4005
 1951TIP3   OH227267   3.206   5.907   2.870 -0.2608 -0.3546  0.5994
 1951TIP3    H127268   3.140   5.975   2.862  0.3196  0.1083 -0.4359
 1951TIP3    H227269   3.208   5.886   2.964 -2.5549 -1.1092  0.5389
 1952TIP3   OH227270   2.210   2.378   0.442  0.2228 -0.9592  0.0870
 1952TIP3    H127271   2.143   2.445   0.430  1.0333  0.0877  1.1415
 1952TIP3    H227272   2.269   2.389   0.368 -0.9503 -2.1438 -1.0573
 1953TIP3   OH227273   5.055   4.901  15.387 -0.2565  0.3554  0.1465
 1953TIP3    H127274   5.001   4.899  15.308 -0.4650 -1.9710  0.2697
 1953TIP3    H227275   5.086   4.811  15.396  0.2119  0.6994  2.4329
 1954TIP3   OH227276   6.596   6.133  12.877 -0.1671 -1.1574  0.4739
 1954TIP3    H127277   6.627   6.043  12.866  2.8044 -0.6005  2.8634
 1954TIP3    H227278   6.572   6.138  12.970 -0.9611  0.3253  0.2071
 1955TIP3   OH227279   5.393   2.283   4.345 -0.0892  0.1590  0.7325
 1955TIP3    H127280   5.477   2.270   4.388  0.0738 -0.7150  0.1875
 1955TIP3    H227281   5.381   2.204   4.292 -0.6090  0.8757 -0.2547
 1956TIP3   OH227282   4.935   1.063  12.397  0.0150 -0.1812  0.1073
 1956TIP3    H127283   4.975   1.151  12.400  0.8951 -0.5136 -1.1499
 1956TIP3    H227284   4.909   1.046  12.487 -1.2089  1.8267  0.2149
 1957TIP3   OH227285   5.286   0.516  16.917  0.6386 -0.5194  0.0976
 1957TIP3    H127286   5.201   0.547  16.950 -0.3853  0.5692 -3.1364
 1957TIP3    H227287   5.346   0.589  16.934  0.5501 -0.6247  0.9081
 1958TIP3   OH227288   5.468   3.024  14.762  0.2678  0.3092 -0.1719
 1958TIP3    H127289   5.470   3.052  14.671 -2.8718  0.1755 -0.3882
 1958TIP3    H227290   5.437   3.100  14.811 -0.3710 -0.3154  0.4277
 1959TIP3   OH227291   3.805   1.422  11.060 -0.9869  0.0440 -0.2534
 1959TIP3    H127292   3.726   1.420  11.115 -0.5101 -0.9995  0.4342
 1959TIP3    H227293   3.837   1.512  11.067 -2.0400  0.4456 -0.4408
 1960TIP3   OH227294   4.179   2.385  13.885 -0.3728  0.4602  0.1785
 1960TIP3    H127295   4.236   2.386  13.962  2.7212 -0.5489 -1.9003
 1960TIP3    H227296   4.136   2.299  13.889 -0.5193  0.5581  0.9411
 1961TIP3   OH227297   4.061   5.243  14.086  0.4564  0.0144 -0.0034
 1961TIP3    H127298   4.070   5.149  14.072 -0.5001  0.0719 -1.1125
 1961TIP3    H227299   3.971   5.263  14.061  0.5359  1.1687  0.5792
 1962TIP3   OH227300   3.467   2.362   0.554  0.6331 -0.3780 -0.0978
 1962TIP3    H127301   3.516   2.346   0.474 -0.6538 -0.6267 -0.8579
 1962TIP3    H227302   3.464   2.457   0.562 -0.8311 -0.2784 -1.3961
 1963TIP3   OH227303   4.835   4.344   4.456 -0.2074 -0.3831  0.1680
 1963TIP3    H127304   4.879   4.260   4.452  0.6080  0.0351  0.2009
 1963TIP3    H227305   4.847   4.374   4.546  2.3936  1.2613 -0.6248
 1964TIP3   OH227306   6.156   0.633  16.007 -0.2579  0.2255  0.4017
 1964TIP3    H127307   6.228   0.691  16.031 -0.0964  0.0399  0.3622
 1964TIP3    H227308   6.080   0.669  16.052 -0.4785  1.3638 -0.8229
 1965TIP3   OH227309   6.126   3.469  11.572  0.3224 -0.0928  0.4168
 1965TIP3    H127310   6.150   3.482  11.664  0.9358 -0.4001  0.3106
 1965TIP3    H227311   6.203   3.497  11.523 -0.3805  1.0362 -0.0634
 1966TIP3   OH227312   5.646   1.577   2.208  0.6220  0.5710 -0.5457
 1966TIP3    H127313   5.597   1.646   2.252 -0.5566 -0.1226 -0.7551
 1966TIP3    H227314   5.580   1.523   2.165  1.4849 -0.9552 -0.0204
 1967TIP3   OH227315   0.983   6.571   1.115 -0.1395  0.3349 -0.4952
 1967TIP3    H127316   1.073   6.556   1.143 -0.4975 -0.1832  0.4125
 1967TIP3    H227317   0.977   6.528   1.029  0.9847  1.9968 -1.4654
 1968TIP3   OH227318   0.684   4.788  16.588 -0.1402 -0.6570 -0.3442
 1968TIP3    H127319   0.686   4.857  16.654  1.1434 -0.1720 -0.8570
 1968TIP3    H227320   0.598   4.797  16.546  0.1673  0.9072 -0.6831
 1969TIP3   OH227321   4.419   2.752   6.619 -0.6754 -0.1388 -0.1241
 1969TIP3    H127322   4.403   2.833   6.667  1.8673  0.6788 -0.4982
 1969TIP3    H227323   4.508   2.761   6.585 -1.3057 -1.9230 -2.5487
 1970TIP3   OH227324   2.242   3.543  15.936  0.1227 -0.2811 -0.4806
 1970TIP3    H127325   2.256   3.583  15.850 -0.3016 -3.9837 -2.4914
 1970TIP3    H227326   2.149   3.519  15.936  0.3450 -1.2265  0.5992
 1971TIP3   OH227327   2.369   2.232   1.750 -0.3324 -0.3420  0.1913
 1971TIP3    H127328   2.395   2.141   1.737  1.6359 -0.0683  1.7309
 1971TIP3    H227329   2.432   2.267   1.813 -2.2670  1.5230  1.2596
 1972TIP3   OH227330   5.086   1.977   1.787 -0.1910  0.0866  0.4399
 1972TIP3    H127331   4.991   1.965   1.783 -0.1945  0.3613 -1.4348
 1972TIP3    H227332   5.122   1.897   1.750  0.2237  0.6188 -0.3525
 1973TIP3   OH227333   3.937   0.199   1.069  0.1827 -0.1334 -0.1642
 1973TIP3    H127334   3.914   0.234   0.983 -1.9594 -0.1246  0.3575
 1973TIP3    H227335   4.032   0.213   1.076  0.4308 -0.2455 -2.5442
 1974TIP3   OH227336   4.524   1.909  12.954 -0.4587 -0.0526  0.1205
 1974TIP3    H127337   4.514   1.830  12.900 -1.3289 -0.6618  1.1306
 1974TIP3    H227338   4.614   1.904  12.986 -0.2210 -0.1561 -0.5481
 1975TIP3   OH227339   3.717   2.978  16.882 -0.4027 -0.2974 -0.4642
 1975TIP3    H127340   3.754   2.890  16.878 -0.2261 -0.3046  0.9654
 1975TIP3    H227341   3.782   3.030  16.930 -0.5013  0.6198 -1.2932
 1976TIP3   OH227342   2.942   5.898  13.188 -0.4548  0.2388  0.3366
 1976TIP3    H127343   2.920   5.874  13.278 -0.7774  1.2880  0.5552
 1976TIP3    H227344   2.891   5.977  13.171 -0.0106  0.3438 -0.5997
 1977TIP3   OH227345   2.340   5.880   4.496 -0.2789  0.0616 -0.4962
 1977TIP3    H127346   2.351   5.785   4.490 -0.5246  0.1080 -2.3875
 1977TIP3    H227347   2.247   5.894   4.482 -0.2376  0.5879 -0.2478
 1978TIP3   OH227348   0.588   3.778   2.562  0.6578  0.0595 -0.3267
 1978TIP3    H127349   0.655   3.737   2.508  0.8991  0.0636 -0.0317
 1978TIP3    H227350   0.560   3.709   2.622 -0.3672 -0.2594 -1.1537
 1979TIP3   OH227351   4.348   1.318   3.861 -0.5361  0.3434  0.1352
 1979TIP3    H127352   4.271   1.262   3.876 -0.5785  0.4019  0.1362
 1979TIP3    H227353   4.330   1.397   3.912 -0.7081  0.5683 -0.2677
 1980TIP3   OH227354   4.823   0.289  14.697 -0.5270  0.0039  0.5662
 1980TIP3    H127355   4.769   0.339  14.635  0.0778 -0.1189 -0.0764
 1980TIP3    H227356   4.837   0.348  14.770  0.2364  0.8297 -0.2146
 1981TIP3   OH227357   4.058   2.878   0.182  0.8773  0.2067  0.4962
 1981TIP3    H127358   4.132   2.818   0.183  1.3861  0.7672  2.7863
 1981TIP3    H227359   4.097   2.965   0.176  0.2451  0.4286 -0.7974
 1982TIP3   OH227360   3.213   1.769   2.139  0.3213  0.2480  0.6567
 1982TIP3    H127361   3.158   1.847   2.126  2.7517  1.8146 -1.2199
 1982TIP3    H227362   3.287   1.800   2.191  1.0392 -0.9767  0.4089
 1983TIP3   OH227363   4.331   6.346  12.931  0.5070 -0.2431  0.6568
 1983TIP3    H127364   4.412   6.394  12.914 -0.3742  0.2224 -2.8752
 1983TIP3    H227365   4.341   6.263  12.884 -1.3050  0.1295 -0.4617
 1984TIP3   OH227366   4.922   1.206  12.036  0.2501 -0.4239  0.5044
 1984TIP3    H127367   4.853   1.226  12.099  0.0123  2.0508 -0.4271
 1984TIP3    H227368   5.000   1.193  12.091 -0.4624 -0.8968  1.4345
 1985TIP3   OH227369   1.380   4.151   3.339 -0.1195 -0.0479 -0.0981
 1985TIP3    H127370   1.374   4.129   3.246 -3.5983  1.1063 -0.2662
 1985TIP3    H227371   1.338   4.237   3.347 -1.0727 -0.6661  2.7020
 1986TIP3   OH227372   5.097   3.264   2.016  0.3247 -0.7388 -0.5465
 1986TIP3    H127373   5.110   3.322   1.941 -1.2527  1.6971  0.9311
 1986TIP3    H227374   5.093   3.176   1.978 -0.3436  0.3921 -3.3126
 1987TIP3   OH227375   2.956   4.752   1.359 -0.0400  0.3352 -0.1376
 1987TIP3    H127376   2.966   4.700   1.280 -1.8374 -0.6437  0.2224
 1987TIP3    H227377   3.039   4.743   1.405  1.1955  1.2464 -2.0367
 1988TIP3   OH227378   6.022   6.716  16.089 -0.5194 -0.2658 -0.4962
 1988TIP3    H127379   6.022   6.786  16.024  0.0588 -1.2292 -1.5798
 1988TIP3    H227380   5.936   6.674  16.080 -0.7645  0.1241 -0.0305
 1989TIP3   OH227381   5.888   5.309  12.970  0.0810 -0.0944  0.3454
 1989TIP3    H127382   5.825   5.296  12.899  0.0202  2.0265 -0.0628
 1989TIP3    H227383   5.841   5.282  13.049 -1.0815  0.7069 -0.0429
 1990TIP3   OH227384   1.664   3.418  14.071  0.3095  0.7128  0.3376
 1990TIP3    H127385   1.663   3.459  13.985 -0.4887 -1.7307 -0.9192
 1990TIP3    H227386   1.711   3.335  14.057 -1.4832 -0.6241  1.7760
 1991TIP3   OH227387   6.093   1.612   5.748  0.0573 -0.4949  0.1299
 1991TIP3    H127388   6.051   1.697   5.734  1.2967  0.0169 -0.6525
 1991TIP3    H227389   6.024   1.557   5.787 -0.4398  1.2139  1.8355
 1992TIP3   OH227390   1.483   6.123  15.748 -0.6340  0.0157 -0.4304
 1992TIP3    H127391   1.469   6.215  15.769 -0.7259  0.1222 -0.9521
 1992TIP3    H227392   1.431   6.108  15.669  0.8710  0.0191 -1.4775
 1993TIP3   OH227393   2.622   3.287  11.329 -0.5731  0.2693 -0.3665
 1993TIP3    H127394   2.578   3.320  11.251 -0.9735 -0.7720 -0.5971
 1993TIP3    H227395   2.558   3.230  11.371  0.3056 -0.7060 -0.3145
 1994TIP3   OH227396   0.163   2.863  15.358  0.9048  0.0809 -0.1870
 1994TIP3    H127397   0.244   2.824  15.325  1.1592  0.0929  0.4112
 1994TIP3    H227398   0.099   2.844  15.290  1.2180 -0.6440 -0.2970
 1995TIP3   OH227399   2.530   3.632  15.679 -0.0645 -0.4262  0.3556
 1995TIP3    H127400   2.578   3.569  15.733  0.3975 -0.8996 -0.5844
 1995TIP3    H227401   2.581   3.713  15.685  0.2335 -0.6072  0.2735
 1996TIP3   OH227402   1.982   5.405  15.956  0.0315 -0.3648  0.2910
 1996TIP3    H127403   1.916   5.337  15.967  0.0431 -0.3236  0.6057
 1996TIP3    H227404   2.008   5.429  16.045 -0.2725  0.3524  0.1908
 1997TIP3   OH227405   3.494   2.937  13.750  0.0303 -0.2171 -0.0143
 1997TIP3    H127406   3.585   2.922  13.776 -0.2126 -2.9296 -0.5175
 1997TIP3    H227407   3.445   2.936  13.832  0.2178 -0.7031  0.0903
 1998TIP3   OH227408   4.915   3.124   3.913 -0.2462  0.7873  0.2399
 1998TIP3    H127409   4.921   3.112   3.818 -0.0758  0.3332  0.3071
 1998TIP3    H227410   4.841   3.184   3.924 -1.0725 -0.1521 -0.1092
 1999TIP3   OH227411   5.254   1.631   4.530 -0.0930 -0.1699  0.1012
 1999TIP3    H127412   5.293   1.594   4.609  0.2766  0.2278  0.1124
 1999TIP3    H227413   5.265   1.563   4.464 -0.9053 -0.7237  0.5263
 2000TIP3   OH227414   3.376   2.743  14.305  0.1147  0.1067  0.2052
 2000TIP3    H127415   3.446   2.726  14.242 -0.6617 -0.5946 -0.4997
 2000TIP3    H227416   3.397   2.829  14.342  0.5309  0.6040 -1.1088
 2001TIP3   OH227417   2.364   6.616  12.057 -0.3061 -0.0431  0.6278
 2001TIP3    H127418   2.419   6.663  12.120  0.4970  0.1199 -0.1616
 2001TIP3    H227419   2.377   6.663  11.975 -0.5404 -0.8486  0.1211
 2002TIP3   OH227420   1.053   2.103   1.855  0.4377  0.2026 -0.1434
 2002TIP3    H127421   0.974   2.084   1.905 -0.3953  0.0848 -1.4433
 2002TIP3    H227422   1.035   2.187   1.812  0.9288  0.0682 -0.6298
 2003TIP3   OH227423   2.421   1.820   3.031 -0.7028 -0.2218  0.2703
 2003TIP3    H127424   2.392   1.889   2.971 -1.7865 -0.7216  0.1971
 2003TIP3    H227425   2.513   1.806   3.009  0.3028  2.9237  1.9691
 2004TIP3   OH227426   2.542   3.163  13.066 -0.5987  0.0128 -0.6106
 2004TIP3    H127427   2.567   3.161  13.158 -0.9409  1.2943 -0.4808
 2004TIP3    H227428   2.449   3.140  13.065 -0.5468 -0.2028 -0.6654
 2005TIP3   OH227429   4.890   3.364  15.811  0.3923  0.4473  0.6427
 2005TIP3    H127430   4.805   3.396  15.782  0.3453  0.5556  0.8925
 2005TIP3    H227431   4.923   3.433  15.869  0.9050  0.6594  0.1011
 2006TIP3   OH227432   0.747   6.159   3.516 -0.2850 -0.2373 -0.6411
 2006TIP3    H127433   0.686   6.151   3.589  1.1674  1.3335  0.8386
 2006TIP3    H227434   0.702   6.217   3.454 -0.6525  0.2086  0.0333
 2007TIP3   OH227435   6.138   6.222   0.785 -0.1143 -0.0946  0.2085
 2007TIP3    H127436   6.102   6.304   0.818  1.7571  0.0920  2.0046
 2007TIP3    H227437   6.163   6.241   0.694 -0.5796  1.0232  0.3021
 2008TIP3   OH227438   5.646   6.713   2.644 -0.2085 -0.0187  0.4510
 2008TIP3    H127439   5.665   6.806   2.632 -2.3181  0.2558 -1.4116
 2008TIP3    H227440   5.722   6.668   2.606 -0.2811  0.9921 -0.9848
 2009TIP3   OH227441   4.165   2.934   6.335 -0.2266  0.5152 -0.4922
 2009TIP3    H127442   4.134   2.878   6.406 -1.8768 -0.0834 -1.6235
 2009TIP3    H227443   4.208   2.874   6.274  1.4730  1.0697  0.1117
 2010TIP3   OH227444   6.473   5.674  12.837 -0.0769  0.7150 -0.5078
 2010TIP3    H127445   6.498   5.682  12.745  2.2580 -2.2133 -0.2613
 2010TIP3    H227446   6.389   5.628  12.835 -0.5524  1.5685 -1.1383
 2011TIP3   OH227447   4.848   3.364  11.680  0.0962 -0.4190 -0.5295
 2011TIP3    H127448   4.937   3.338  11.653  0.2960 -0.1415 -0.1489
 2011TIP3    H227449   4.793   3.342  11.604  0.8188  1.3246 -1.6349
 2012TIP3   OH227450   4.280   0.421  14.819 -0.2444  0.2460 -0.0573
 2012TIP3    H127451   4.370   0.399  14.844 -0.3916 -1.6339 -1.0156
 2012TIP3    H227452   4.225   0.370  14.880 -0.6202 -0.7393 -1.1858
 2013TIP3   OH227453   5.790   1.531   3.492  0.3351 -0.0297  0.0298
 2013TIP3    H127454   5.867   1.568   3.450 -1.4374  2.3850 -1.3653
 2013TIP3    H227455   5.723   1.532   3.424 -1.3604 -0.5035  1.6115
 2014TIP3   OH227456   1.680   4.259  14.001  0.0457  0.2107 -0.1472
 2014TIP3    H127457   1.716   4.310  14.073 -0.7447 -0.2727  0.6209
 2014TIP3    H227458   1.708   4.304  13.922  2.4418 -0.2487  0.3847
 2015TIP3   OH227459   1.978   0.411   4.810 -0.2872 -0.6266 -0.0476
 2015TIP3    H127460   2.050   0.474   4.804 -1.6027  0.9718  0.2045
 2015TIP3    H227461   2.008   0.336   4.759  0.7384  0.8190 -1.7101
 2016TIP3   OH227462   0.514   2.001   2.297 -0.0243 -0.3413  0.1876
 2016TIP3    H127463   0.556   1.939   2.356 -1.5039 -0.1357  1.5365
 2016TIP3    H227464   0.480   1.947   2.225  1.0178 -0.7194 -0.0302
 2017TIP3   OH227465   2.596   3.424   3.157  0.1596 -0.0500 -0.1041
 2017TIP3    H127466   2.625   3.435   3.066 -2.4027  1.4409 -0.8390
 2017TIP3    H227467   2.571   3.333   3.163  1.0309 -0.3418 -0.6472
 2018TIP3   OH227468   4.803   0.082  13.411 -0.1132  0.2287 -0.0231
 2018TIP3    H127469   4.885   0.113  13.449  0.5472 -0.2471 -1.0262
 2018TIP3    H227470   4.820   0.079  13.317 -0.3803 -2.4639 -0.0408
 2019TIP3   OH227471   6.621   5.079  16.827  0.7426 -0.3711 -0.7987
 2019TIP3    H127472   6.653   5.162  16.862 -0.8729 -0.1172  0.1500
 2019TIP3    H227473   6.664   5.013  16.881  1.5449 -0.1479 -1.1461
 2020TIP3   OH227474   6.638   5.509   2.304  0.3024 -0.4695  0.0180
 2020TIP3    H127475   6.705   5.539   2.365  1.4147 -2.1471 -0.2794
 2020TIP3    H227476   6.597   5.435   2.348  0.7278 -1.3345 -0.9944
 2021TIP3   OH227477   0.083   2.126  11.413  0.1689  0.4046 -0.0258
 2021TIP3    H127478   0.147   2.066  11.374 -1.0084 -1.2691  0.5642
 2021TIP3    H227479   0.092   2.206  11.361  0.5731 -0.8334 -1.9642
 2022TIP3   OH227480   2.764   0.039  11.138 -0.7801 -0.3725 -0.1268
 2022TIP3    H127481   2.774   0.126  11.177 -0.6759 -0.5898  0.3453
 2022TIP3    H227482   2.690   0.047  11.078 -0.5482  0.1287 -0.3493
 2023TIP3   OH227483   4.876   1.260  14.910 -0.1547  0.0050 -0.5813
 2023TIP3    H127484   4.800   1.298  14.952  0.7828 -0.0166  1.2213
 2023TIP3    H227485   4.933   1.234  14.982  0.4053 -2.4047 -1.8010
 2024TIP3   OH227486   0.959   4.230  12.129 -0.0233  0.0905  0.3225
 2024TIP3    H127487   0.978   4.155  12.072  1.1144  1.0105 -0.5396
 2024TIP3    H227488   0.935   4.301  12.069 -0.9649  0.4829  1.1282
 2025TIP3   OH227489   5.659   2.425   6.165  0.3382  0.3327 -0.0843
 2025TIP3    H127490   5.627   2.492   6.225  1.3089  1.7764 -1.1320
 2025TIP3    H227491   5.590   2.416   6.099  0.4286  0.6788 -0.2271
 2026TIP3   OH227492   0.498   6.321  17.070  0.1477 -0.1624  0.3085
 2026TIP3    H127493   0.494   6.316  16.974  0.6444  3.1981 -0.0037
 2026TIP3    H227494   0.418   6.276  17.099 -0.1459 -1.0310 -1.6543
 2027TIP3   OH227495   5.162   2.377  12.506 -0.0837 -0.2604  0.6135
 2027TIP3    H127496   5.138   2.338  12.590  0.8730 -1.4016  0.3900
 2027TIP3    H227497   5.239   2.327  12.478 -0.0740  0.4473 -0.6910
 2028TIP3   OH227498   2.031   0.108  14.582  0.5394 -0.2139  0.5635
 2028TIP3    H127499   2.101   0.063  14.630  0.2449 -0.5263  0.7032
 2028TIP3    H227500   2.076   0.179  14.536  0.7855  0.3434  1.6074
 2029TIP3   OH227501   1.380   6.295  16.709 -0.0143  0.0649 -0.0467
 2029TIP3    H127502   1.400   6.362  16.644  1.0777  0.7453  0.9520
 2029TIP3    H227503   1.286   6.280  16.700 -0.2101  1.4508 -0.5615
 2030TIP3   OH227504   2.279   6.349   4.034  0.2628  0.5796  0.0289
 2030TIP3    H127505   2.226   6.271   4.020  0.0169  0.5953  0.8082
 2030TIP3    H227506   2.361   6.330   3.988 -0.6051  0.7926 -1.6489
 2031TIP3   OH227507   2.260   5.626  13.427  0.2733  0.0752  0.2742
 2031TIP3    H127508   2.280   5.533  13.416  2.2641  0.4550  0.3536
 2031TIP3    H227509   2.195   5.645  13.360  0.8558 -1.0814 -0.6504
 2032TIP3   OH227510   4.116   5.425   2.817 -0.0898 -0.1236  0.1828
 2032TIP3    H127511   4.192   5.384   2.776  0.4709  2.0426 -1.1324
 2032TIP3    H227512   4.132   5.519   2.807 -1.8019  0.4346  2.0514
 2033TIP3   OH227513   6.157   2.774  10.958  0.2220 -0.2118 -0.3734
 2033TIP3    H127514   6.108   2.779  10.876  0.6849 -0.2337 -0.6517
 2033TIP3    H227515   6.184   2.864  10.975 -2.6113  0.4340  1.4576
 2034TIP3   OH227516   6.336   0.453   1.683  0.9364 -0.0980  0.3840
 2034TIP3    H127517   6.255   0.426   1.727  1.3154  1.4659  2.1760
 2034TIP3    H227518   6.404   0.444   1.749  1.7051  1.4764 -0.1419
 2035TIP3   OH227519   2.304   5.333   0.548 -0.5566 -0.2406  0.3135
 2035TIP3    H127520   2.261   5.412   0.581  0.2662  0.3873 -0.0702
 2035TIP3    H227521   2.310   5.347   0.453  1.0056 -0.0382  0.4208
 2036TIP3   OH227522   3.740   6.139   2.442  0.3721  0.3427 -0.1831
 2036TIP3    H127523   3.747   6.080   2.517 -0.4228  0.3392 -0.1008
 2036TIP3    H227524   3.711   6.083   2.370 -1.6099  0.8270  0.1933
 2037TIP3   OH227525   4.023   3.343   1.583 -0.0809  0.0228  0.2830
 2037TIP3    H127526   3.981   3.371   1.664 -0.5684 -1.3730  0.5462
 2037TIP3    H227527   3.991   3.254   1.570 -1.3578  0.7599 -2.3326
 2038TIP3   OH227528   2.425   6.572  11.635  0.4904  0.1741  0.5547
 2038TIP3    H127529   2.366   6.630  11.585  0.7670 -1.0169 -1.2146
 2038TIP3    H227530   2.477   6.632  11.689  0.1335  1.5191 -0.5381
 2039TIP3   OH227531   1.745   5.987   0.594 -0.0834  0.1867  0.3635
 2039TIP3    H127532   1.774   6.077   0.576 -0.8717  0.3701 -0.0159
 2039TIP3    H227533   1.661   5.979   0.549 -1.0578 -0.0587  2.1369
 2040TIP3   OH227534   5.384   5.753  12.446  0.2560 -0.4277  0.2107
 2040TIP3    H127535   5.355   5.844  12.454 -3.1787 -1.4385  1.0109
 2040TIP3    H227536   5.441   5.739  12.522  0.9811  1.0530 -0.0223
 2041TIP3   OH227537   0.381   2.980  14.158  0.3537  0.7631  0.0113
 2041TIP3    H127538   0.405   3.042  14.226  1.5686  1.1278 -0.7246
 2041TIP3    H227539   0.313   3.024  14.107  1.5302  1.7066 -0.7861
 2042TIP3   OH227540   2.448   3.459  16.108 -0.0690 -0.2276 -0.7572
 2042TIP3    H127541   2.379   3.498  16.055  0.1485  0.7293 -0.3626
 2042TIP3    H227542   2.417   3.467  16.198  0.4832  0.0883 -0.5865
 2043TIP3   OH227543   2.114   3.930  10.662 -0.4739  0.0290 -0.7713
 2043TIP3    H127544   2.196   3.889  10.688  0.4224  1.4932 -1.1674
 2043TIP3    H227545   2.135   4.023  10.656 -2.7470  0.7776  1.3716
 2044TIP3   OH227546   6.670   4.514   1.067  0.2811 -0.6599  0.7725
 2044TIP3    H127547   6.595   4.461   1.039  0.2733 -0.0966 -0.3086
 2044TIP3    H227548   6.738   4.497   1.002  0.7401 -0.3629  1.1653
 2045TIP3   OH227549   1.286   6.595  13.483 -0.2109 -0.4637 -0.0119
 2045TIP3    H127550   1.362   6.627  13.532  1.1886 -1.3144 -1.5320
 2045TIP3    H227551   1.226   6.561  13.550  0.5775  0.5335  1.2381
 2046TIP3   OH227552   5.032   1.532   1.257  0.8003  0.0802 -0.0529
 2046TIP3    H127553   5.036   1.597   1.187  0.5182  0.0246 -0.1191
 2046TIP3    H227554   5.110   1.550   1.311  0.7775  0.4033 -0.1295
 2047TIP3   OH227555   4.932   6.639   2.360  0.7784  0.0111 -0.3886
 2047TIP3    H127556   5.026   6.626   2.369  0.6287 -0.4014  0.7430
 2047TIP3    H227557   4.917   6.728   2.393  0.6202 -0.3861  0.6392
 2048TIP3   OH227558   4.376   0.742   5.774 -0.2880 -0.2865 -0.5790
 2048TIP3    H127559   4.304   0.774   5.719 -1.6573 -0.3852  1.0810
 2048TIP3    H227560   4.352   0.653   5.797  2.0010 -1.5643 -2.6005
 2049TIP3   OH227561   3.843   6.026  14.658  0.0833 -0.3720 -0.6369
 2049TIP3    H127562   3.923   5.976  14.674 -0.2720 -1.3513 -1.7443
 2049TIP3    H227563   3.772   5.967  14.684 -0.3158 -0.1482 -1.1758
 2050TIP3   OH227564   2.524   4.474  12.052  0.4139 -0.0059  0.0252
 2050TIP3    H127565   2.445   4.517  12.020  0.8370  1.3641  0.7621
 2050TIP3    H227566   2.507   4.456  12.144  1.0124  0.4321  0.2241
 2051TIP3   OH227567   2.483   3.799   4.133 -0.0028 -0.3912 -0.2990
 2051TIP3    H127568   2.413   3.836   4.080  0.3833 -0.6984 -1.0466
 2051TIP3    H227569   2.563   3.823   4.087  0.2647 -2.1235 -0.8488
 2052TIP3   OH227570   1.799   4.287   0.429 -0.2554  0.5791 -0.0309
 2052TIP3    H127571   1.839   4.373   0.416 -0.3040  0.3730 -1.8039
 2052TIP3    H227572   1.870   4.231   0.461  0.1260  0.9372 -0.2481
 2053TIP3   OH227573   0.196   0.750  16.931  0.2511  0.4909 -0.9122
 2053TIP3    H127574   0.149   0.833  16.922 -1.2093 -0.2405 -0.3224
 2053TIP3    H227575   0.232   0.733  16.844 -0.1037  1.3610 -1.2366
 2054TIP3   OH227576   1.686   5.948   0.139 -0.2283 -0.2786 -0.3595
 2054TIP3    H127577   1.661   5.880   0.076  2.1451 -2.5566  0.9485
 2054TIP3    H227578   1.703   6.025   0.085 -1.5168 -1.1377 -2.1116
 2055TIP3   OH227579   4.801   5.253   6.787  0.5883 -0.1922  0.0066
 2055TIP3    H127580   4.802   5.164   6.824 -0.3246 -1.3021 -2.4457
 2055TIP3    H227581   4.709   5.278   6.788  0.9473  1.3527  1.8495
 2056TIP3   OH227582   4.626   2.661   5.086 -0.7274 -0.1536  0.0727
 2056TIP3    H127583   4.653   2.750   5.062 -2.1653  0.0485 -0.9857
 2056TIP3    H227584   4.562   2.674   5.156 -1.3994 -0.2834 -0.5019
 2057TIP3   OH227585   2.678   6.626  15.757 -0.4289 -0.3471 -0.7093
 2057TIP3    H127586   2.741   6.693  15.730 -0.2807 -0.1839  0.0390
 2057TIP3    H227587   2.592   6.666  15.744 -0.3672 -0.3371 -1.1057
 2058TIP3   OH227588   4.076   0.744  15.728 -0.1098  0.1713  0.1555
 2058TIP3    H127589   4.074   0.649  15.731 -3.1128  0.0960 -1.0561
 2058TIP3    H227590   4.140   0.765  15.660  1.2108 -0.8953  1.0198
 2059TIP3   OH227591   1.868   2.079  11.325 -0.1933 -0.4264  0.6098
 2059TIP3    H127592   1.959   2.089  11.300 -0.3568 -0.9230 -0.2277
 2059TIP3    H227593   1.823   2.152  11.284 -0.2733 -0.5530  0.4708
 2060TIP3   OH227594   0.403   2.428   1.843 -0.2748  0.1909 -0.3707
 2060TIP3    H127595   0.328   2.472   1.884 -0.7766  0.3576 -1.4440
 2060TIP3    H227596   0.364   2.365   1.783  0.4251  0.8232 -1.5167
 2061TIP3   OH227597   2.801   1.317   4.870  0.4408 -0.3226 -0.0588
 2061TIP3    H127598   2.798   1.279   4.783 -1.8360 -0.2868 -0.0532
 2061TIP3    H227599   2.801   1.242   4.930  1.7892 -0.3430 -0.0507
 2062TIP3   OH227600   6.593   6.193  12.349  0.3752 -0.2251  0.2325
 2062TIP3    H127601   6.563   6.219  12.436 -0.2283 -1.6039  0.4641
 2062TIP3    H227602   6.620   6.102  12.360 -1.6595 -1.1175 -1.4434
 2063TIP3   OH227603   6.590   4.854   6.361  0.1485  0.2676 -0.0558
 2063TIP3    H127604   6.526   4.816   6.421  0.2855 -0.6963 -0.4912
 2063TIP3    H227605   6.565   4.819   6.275  1.3337 -0.2328 -0.2137
 2064TIP3   OH227606   1.717   4.829  15.088  0.1519  0.0541  0.0497
 2064TIP3    H127607   1.797   4.857  15.133  0.9141 -1.3740 -0.3525
 2064TIP3    H227608   1.744   4.753  15.036 -0.9112  1.0412 -2.0658
 2065TIP3   OH227609   3.142   6.553   4.385 -0.2931 -0.1258  0.0832
 2065TIP3    H127610   3.088   6.479   4.414 -0.5837  0.7406  1.9256
 2065TIP3    H227611   3.079   6.618   4.356 -0.1262  0.0821  0.1875
 2066TIP3   OH227612   2.365   2.666   5.430  0.0988  0.7345  0.0519
 2066TIP3    H127613   2.304   2.624   5.370  1.8568  2.1210 -2.9429
 2066TIP3    H227614   2.449   2.624   5.411  0.5507  0.3818  2.5013
 2067TIP3   OH227615   6.321   3.279  16.193 -0.5919 -0.8570  0.6033
 2067TIP3    H127616   6.280   3.315  16.115 -1.9645  0.0216  1.6824
 2067TIP3    H227617   6.274   3.319  16.266  1.1033 -1.1017  1.9090
 2068TIP3   OH227618   1.038   0.025   0.388 -0.4525  0.3804 -0.1794
 2068TIP3    H127619   1.038  -0.015   0.475  0.5002 -0.7441 -0.6628
 2068TIP3    H227620   0.989  -0.036   0.333 -0.6491  0.8538 -0.5363
 2069TIP3   OH227621   3.512   0.056   2.990 -0.2758 -0.3942 -0.5891
 2069TIP3    H127622   3.473   0.013   3.066  0.1045  1.9180  1.0104
 2069TIP3    H227623   3.487   0.148   2.999  1.3812  0.2771 -2.2232
 2070TIP3   OH227624   3.017   2.777  16.804 -0.1771  0.3092 -0.0646
 2070TIP3    H127625   2.988   2.834  16.874 -0.3432  0.0108  0.1130
 2070TIP3    H227626   3.110   2.794  16.795  0.0579 -0.3801  0.9150
 2071TIP3   OH227627   6.216   3.714  13.250  0.0009  0.3092 -0.1654
 2071TIP3    H127628   6.164   3.736  13.173  0.9664  0.4043 -0.8074
 2071TIP3    H227629   6.190   3.778  13.316 -0.0157  0.9535 -0.7833
 2072TIP3   OH227630   4.351   2.375  16.842  0.1650  0.0027 -0.2424
 2072TIP3    H127631   4.278   2.328  16.803  0.0670 -0.4426  0.4700
 2072TIP3    H227632   4.429   2.332  16.807  0.2006  1.8405 -2.7532
 2073TIP3   OH227633   1.298   4.886   0.360 -0.0569  0.3637 -0.5620
 2073TIP3    H127634   1.212   4.855   0.331  0.6448 -0.5267 -1.7989
 2073TIP3    H227635   1.337   4.925   0.282 -0.0242  2.4369  0.4301
 2074TIP3   OH227636   3.719   3.279   2.159  0.6382 -0.3819  0.5792
 2074TIP3    H127637   3.783   3.290   2.089  0.2944  2.7955  0.6068
 2074TIP3    H227638   3.635   3.271   2.114  0.4578  1.3134  0.5446
 2075TIP3   OH227639   5.865   1.169  14.901  0.1458  0.2532  0.1299
 2075TIP3    H127640   5.794   1.216  14.857  1.9365  0.1221 -3.2584
 2075TIP3    H227641   5.926   1.238  14.927  0.7226  0.1560 -0.8885
 2076TIP3   OH227642   1.231   0.172  15.255 -0.6256 -0.3185 -0.2883
 2076TIP3    H127643   1.157   0.149  15.310 -1.6773  0.9684 -1.0870
 2076TIP3    H227644   1.259   0.258  15.286 -1.3699  0.5295 -1.8019
 2077TIP3   OH227645   0.778   4.402  13.895 -0.1770  0.3934  0.0561
 2077TIP3    H127646   0.847   4.377  13.833 -1.6376  0.3341 -1.6260
 2077TIP3    H227647   0.711   4.443  13.840 -1.8500 -0.3100  1.5046
 2078TIP3   OH227648   1.350   6.193   5.424  0.0630 -0.2910 -0.0224
 2078TIP3    H127649   1.381   6.245   5.350  0.0835  2.9252  2.0642
 2078TIP3    H227650   1.260   6.170   5.400  0.1018  0.5611 -1.1069
 2079TIP3   OH227651   6.019   3.680  16.691  0.3640  0.0757 -0.1822
 2079TIP3    H127652   6.035   3.691  16.597 -2.2477  1.2497 -0.5676
 2079TIP3    H227653   5.963   3.604  16.698 -0.1101  0.4623  0.3313
 2080TIP3   OH227654   1.417   2.278   2.267  0.2985  0.7254  0.2437
 2080TIP3    H127655   1.497   2.290   2.319  1.9936 -1.0823 -1.7659
 2080TIP3    H227656   1.361   2.224   2.323  1.2301  0.4920  0.9985
 2081TIP3   OH227657   3.407   1.588   4.752 -0.1048  0.2643 -0.5084
 2081TIP3    H127658   3.429   1.497   4.773 -0.3943  0.1021 -0.8872
 2081TIP3    H227659   3.316   1.597   4.780 -0.6273 -0.0698 -1.9885
 2082TIP3   OH227660   3.389   1.464   2.356 -0.5206  0.1160 -0.6097
 2082TIP3    H127661   3.316   1.441   2.298 -0.6661  0.7732 -0.6963
 2082TIP3    H227662   3.447   1.517   2.302  0.0346 -0.4058 -0.5390
 2083TIP3   OH227663   1.409   6.054   6.745  0.3171 -0.5391  0.0721
 2083TIP3    H127664   1.315   6.041   6.755 -0.0077 -1.0334 -2.7804
 2083TIP3    H227665   1.448   5.974   6.782 -0.6465 -2.0070 -1.9196
 2084TIP3   OH227666   5.982   2.803   1.005 -0.7232  0.6363  0.2851
 2084TIP3    H127667   6.063   2.752   0.998 -0.7199  0.8156 -1.1497
 2084TIP3    H227668   5.954   2.790   1.095  0.5950  0.0998  0.6453
 2085TIP3   OH227669   3.010   2.343   1.385  0.1276 -0.0532 -0.0564
 2085TIP3    H127670   2.935   2.356   1.442 -0.3409  3.6115 -1.2390
 2085TIP3    H227671   2.974   2.343   1.296  1.3303  0.1159 -0.5706
 2086TIP3   OH227672   6.562   1.511   0.444 -0.1202 -0.1656 -0.0798
 2086TIP3    H127673   6.632   1.545   0.388  0.3762 -0.7094  0.2013
 2086TIP3    H227674   6.555   1.576   0.514 -0.9009  0.6365 -0.8730
 2087TIP3   OH227675   0.950   0.015   2.810  0.0818  0.1804 -0.4093
 2087TIP3    H127676   0.983   0.001   2.721  1.0513 -0.3000  0.0048
 2087TIP3    H227677   0.975   0.105   2.832  1.8817 -0.4006  0.1685
 2088TIP3   OH227678   1.502   2.557  14.154  0.2410  0.5489 -0.1035
 2088TIP3    H127679   1.484   2.485  14.215 -1.5284 -0.5554 -1.8074
 2088TIP3    H227680   1.559   2.518  14.088  0.9368  1.3057  0.0425
 2089TIP3   OH227681   0.466   1.072  11.773  0.1971 -0.0421  0.3539
 2089TIP3    H127682   0.528   0.999  11.764  1.3763  1.0796 -1.3053
 2089TIP3    H227683   0.521   1.145  11.801 -0.4065  0.8805 -0.7827
 2090TIP3   OH227684   3.286   5.559  14.426 -0.0695  0.4340  0.0433
 2090TIP3    H127685   3.376   5.527  14.415 -0.3838 -1.6725  2.6610
 2090TIP3    H227686   3.295   5.654  14.431  1.8582  0.3518 -0.8137
 2091TIP3   OH227687   0.900   1.399  13.218  0.1504  0.1331 -0.3584
 2091TIP3    H127688   0.812   1.374  13.246 -0.5854  3.6591  0.9025
 2091TIP3    H227689   0.936   1.448  13.291  3.1088 -0.8689 -0.9834
 2092TIP3   OH227690   4.915   6.632  12.836  0.1101  0.2467 -0.7785
 2092TIP3    H127691   4.882   6.670  12.754 -2.9189  1.2948  0.7517
 2092TIP3    H227692   4.965   6.703  12.877 -1.9351  1.2806  0.1026
 2093TIP3   OH227693   0.955   1.272  12.389 -0.0820 -0.1217  0.1300
 2093TIP3    H127694   0.886   1.329  12.424  1.1434  1.5238 -0.0245
 2093TIP3    H227695   0.916   1.231  12.312 -1.1896  0.0525  0.5858
 2094TIP3   OH227696   3.569   3.804   4.432  0.4569 -0.2505 -0.6841
 2094TIP3    H127697   3.596   3.731   4.376  1.8208  1.0938 -1.8494
 2094TIP3    H227698   3.616   3.789   4.515 -0.5193 -1.5151 -0.3175
 2095TIP3   OH227699   5.898   4.784   4.691 -0.2450 -0.8289  0.0553
 2095TIP3    H127700   5.983   4.803   4.730 -0.8567 -1.6600  1.9187
 2095TIP3    H227701   5.838   4.845   4.734 -0.7230 -0.7340 -0.7238
 2096TIP3   OH227702   4.951   4.094  16.032  0.4399 -0.1713  0.5740
 2096TIP3    H127703   4.907   4.022  15.987  1.1847 -0.9801  1.1136
 2096TIP3    H227704   5.007   4.133  15.964 -0.3383  0.2411  0.1494
 2097TIP3   OH227705   0.682   6.589   1.045 -0.2557  0.2949  0.1441
 2097TIP3    H127706   0.734   6.622   0.971  1.6269  0.9954  1.7024
 2097TIP3    H227707   0.594   6.625   1.030 -0.1532 -0.1954 -2.1036
 2098TIP3   OH227708   5.827   5.495   5.629  0.0519 -0.4272  0.2905
 2098TIP3    H127709   5.819   5.550   5.551 -2.1563  0.9385  1.3944
 2098TIP3    H227710   5.737   5.472   5.652  0.7442 -1.9150  1.6767
 2099TIP3   OH227711   2.855   4.068  14.062 -0.8112 -0.1586  0.1381
 2099TIP3    H127712   2.892   4.051  13.975 -1.9066  0.4214 -0.4667
 2099TIP3    H227713   2.924   4.113  14.109 -0.2173 -0.4288 -0.4486
 2100TIP3   OH227714   0.892   3.508  11.653  0.7177  0.5666  0.3908
 2100TIP3    H127715   0.869   3.594  11.620  0.2769  0.5080  0.5397
 2100TIP3    H227716   0.911   3.456  11.575 -2.8225 -0.3304 -0.0496
 2101TIP3   OH227717   4.338   6.312   1.287 -0.2327  0.1255 -0.0718
 2101TIP3    H127718   4.349   6.366   1.208  0.1654  0.0464 -0.0716
 2101TIP3    H227719   4.246   6.285   1.284 -0.9035  2.1439  0.7926
 2102TIP3   OH227720   6.635   3.258  13.890  0.0371 -0.2594 -0.0096
 2102TIP3    H127721   6.603   3.220  13.972  1.2571 -0.2812  0.4816
 2102TIP3    H227722   6.630   3.186  13.827  0.0000 -0.5191  0.2858
 2103TIP3   OH227723   0.886   5.749   1.490  0.3390  0.2769 -0.5741
 2103TIP3    H127724   0.790   5.751   1.484  0.3097 -0.9956 -0.9746
 2103TIP3    H227725   0.915   5.729   1.401  0.8840 -0.7769 -0.1837
 2104TIP3   OH227726   6.153   3.471  11.858 -0.1554 -0.5247  0.1226
 2104TIP3    H127727   6.168   3.380  11.880 -1.0629 -0.2464  2.1114
 2104TIP3    H227728   6.216   3.520  11.911 -2.0965  0.1583  1.9363
 2105TIP3   OH227729   2.847   3.561   1.815  0.2917  0.2344  0.4805
 2105TIP3    H127730   2.937   3.536   1.794 -0.3415 -1.1698 -0.7620
 2105TIP3    H227731   2.814   3.600   1.733 -0.8238 -1.1092  0.2642
 2106TIP3   OH227732   2.243   0.971  13.976 -0.3994  0.1068  0.7967
 2106TIP3    H127733   2.255   1.004  14.065 -0.3834 -2.5187  1.8449
 2106TIP3    H227734   2.164   0.919  13.979  0.5755 -1.5267 -0.2356
 2107TIP3   OH227735   1.613   6.443   6.755 -0.5451  0.2036 -0.4711
 2107TIP3    H127736   1.587   6.461   6.845 -2.0308  0.1628 -0.8707
 2107TIP3    H227737   1.624   6.530   6.715 -0.1076  0.2195 -0.3268
 2108TIP3   OH227738   1.351   4.322   2.528 -0.3170  0.0446  0.4742
 2108TIP3    H127739   1.379   4.276   2.449 -2.0665  1.4513 -1.0558
 2108TIP3    H227740   1.430   4.363   2.562  0.4312 -0.3595 -0.7144
 2109TIP3   OH227741   1.350   2.645  15.123  0.0837 -0.4490 -0.3498
 2109TIP3    H127742   1.386   2.709  15.184  0.6659  0.4150 -1.5571
 2109TIP3    H227743   1.388   2.561  15.150  1.5976  0.1695 -0.5036
 2110TIP3   OH227744   2.523   6.186  13.702 -0.5209 -0.4993 -0.2866
 2110TIP3    H127745   2.519   6.148  13.790  0.0818 -1.3810 -0.6354
 2110TIP3    H227746   2.616   6.198  13.685 -0.6669  0.3708 -0.5210
 2111TIP3   OH227747   2.782   2.914  11.848 -0.2170 -0.0178  0.4462
 2111TIP3    H127748   2.753   2.867  11.769  0.4641  1.0648 -0.4920
 2111TIP3    H227749   2.707   2.910  11.907 -1.2020  0.1524 -0.7380
 2112TIP3   OH227750   0.458   0.253  17.043  0.6804  0.4740  0.1529
 2112TIP3    H127751   0.551   0.244  17.066  0.5053 -2.5398  0.0270
 2112TIP3    H227752   0.411   0.219  17.119 -0.5680  4.2089  1.2833
 2113TIP3   OH227753   6.252   1.339  14.575  0.2144 -0.2883  0.0182
 2113TIP3    H127754   6.239   1.346  14.670  0.6422  1.9872 -0.0343
 2113TIP3    H227755   6.332   1.287  14.565  0.6322  0.1551  0.9501
 2114TIP3   OH227756   6.237   1.052  16.855  0.5919 -0.6044 -0.3931
 2114TIP3    H127757   6.297   1.083  16.923 -1.1827 -0.3368  1.1106
 2114TIP3    H227758   6.178   0.993  16.901  0.2390 -1.5742 -2.0280
 2115TIP3   OH227759   5.568   4.265  11.564  0.0198  0.2799  0.1641
 2115TIP3    H127760   5.633   4.335  11.563 -0.2262  0.5571  1.4005
 2115TIP3    H227761   5.614   4.189  11.600 -0.1305  0.2604  0.3211
 2116TIP3   OH227762   3.834   1.910   1.910 -0.4121  0.0239 -0.0233
 2116TIP3    H127763   3.768   1.844   1.887 -0.0248  0.1804 -1.7657
 2116TIP3    H227764   3.913   1.859   1.929 -0.9605 -0.1571  1.9486
 2117TIP3   OH227765   5.006   4.184   5.099  0.1108  0.5249 -0.0193
 2117TIP3    H127766   5.073   4.232   5.050  1.0169 -0.1641  0.5157
 2117TIP3    H227767   4.996   4.232   5.181  0.8541 -0.0512  0.4205
 2118TIP3   OH227768   2.649   5.598   1.141  0.2238  0.3983  0.4508
 2118TIP3    H127769   2.602   5.577   1.061 -1.0097  0.3820  1.1493
 2118TIP3    H227770   2.724   5.650   1.113  1.0574 -1.4394 -0.9254
 2119TIP3   OH227771   6.702   3.742   1.859 -0.2634  0.2022  0.0963
 2119TIP3    H127772   6.785   3.788   1.872  0.4869 -0.8169 -0.8500
 2119TIP3    H227773   6.664   3.784   1.782 -0.5750  0.5687  0.4414
 2120TIP3   OH227774   2.313   4.768   4.663  0.0091  0.0382 -0.0588
 2120TIP3    H127775   2.369   4.828   4.712  0.1095  0.1603 -0.3211
 2120TIP3    H227776   2.374   4.718   4.608 -0.0002 -0.7883  0.6656
 2121TIP3   OH227777   5.013   5.331   5.190 -0.6924 -0.9249 -0.3840
 2121TIP3    H127778   5.056   5.270   5.130 -0.4233 -0.4888 -0.6344
 2121TIP3    H227779   5.024   5.291   5.276 -0.2124 -1.0628 -0.5059
 2122TIP3   OH227780   3.609   5.245   1.522 -0.4354  0.0000  0.3859
 2122TIP3    H127781   3.671   5.196   1.576 -1.3320 -1.2177  0.3527
 2122TIP3    H227782   3.645   5.239   1.433 -0.2905 -0.1881  0.4561
 2123TIP3   OH227783   4.589   3.436  14.502  0.2776  0.3276 -0.1493
 2123TIP3    H127784   4.597   3.443  14.597 -0.1324  0.5626 -0.1300
 2123TIP3    H227785   4.617   3.522  14.470  0.5419  0.2052 -0.2524
 2124TIP3   OH227786   0.391   5.888  14.927 -0.6181 -0.2506  0.4682
 2124TIP3    H127787   0.384   5.980  14.953 -2.8356 -0.6847  1.6302
 2124TIP3    H227788   0.397   5.840  15.009  0.1742 -1.2079 -0.1209
 2125TIP3   OH227789   4.840   1.940   0.976 -0.1260 -0.2687 -0.4402
 2125TIP3    H127790   4.925   1.984   0.967  0.8632 -1.3851  2.2655
 2125TIP3    H227791   4.789   1.996   1.034 -0.9418 -0.0553 -1.3346
 2126TIP3   OH227792   0.362   1.715  17.181 -0.4161 -0.3770 -0.3490
 2126TIP3    H127793   0.282   1.700  17.230  0.4127 -0.1760  1.1140
 2126TIP3    H227794   0.432   1.704  17.245  0.6727  0.7208 -1.2969
 2127TIP3   OH227795   0.504   2.836   1.766 -0.0305 -0.1152  0.1912
 2127TIP3    H127796   0.419   2.792   1.761  0.7260 -1.5489 -1.3394
 2127TIP3    H227797   0.492   2.919   1.720 -0.7922  0.0527  0.6871
 2128TIP3   OH227798   0.530   0.131   0.519  0.0334 -0.3946 -0.2681
 2128TIP3    H127799   0.532   0.203   0.456  0.5084 -1.1173 -1.0983
 2128TIP3    H227800   0.445   0.089   0.505  0.3275 -0.8339 -0.7533
 2129TIP3   OH227801   2.475   4.015  13.817  0.6543  0.1319  0.1540
 2129TIP3    H127802   2.562   3.979  13.795  0.8179  0.2098  0.6607
 2129TIP3    H227803   2.433   4.028  13.732  0.2316 -2.1143 -0.0405
 2130TIP3   OH227804   5.259   6.002  13.069  0.0444 -0.1303 -0.4861
 2130TIP3    H127805   5.259   5.976  12.977 -2.0044 -1.1337 -0.2660
 2130TIP3    H227806   5.234   6.095  13.068  1.2027  0.1880 -0.9830
 2131TIP3   OH227807   2.747   0.323   4.698  0.3128 -0.3066  0.2895
 2131TIP3    H127808   2.752   0.418   4.702 -0.1815 -0.3167  1.9363
 2131TIP3    H227809   2.676   0.300   4.758  0.7325 -1.7364  0.2771
 2132TIP3   OH227810   3.921   1.170   5.946  0.1916 -0.1648  0.1786
 2132TIP3    H127811   3.931   1.235   6.015 -2.4897  1.5425 -0.8675
 2132TIP3    H227812   3.985   1.196   5.879  1.6216 -0.8175  1.2600
 2133TIP3   OH227813   1.462   5.227  11.955 -0.2777 -0.3169  0.9128
 2133TIP3    H127814   1.425   5.144  11.985 -0.7667  0.0613  1.3737
 2133TIP3    H227815   1.388   5.275  11.919  0.3733 -0.9534 -1.4385
 2134TIP3   OH227816   2.119   6.070  11.088  0.0683  0.0257 -0.1682
 2134TIP3    H127817   2.179   6.136  11.123 -2.0761  2.1512 -0.1702
 2134TIP3    H227818   2.174   6.014  11.033  1.8517  2.7226 -1.3789
 2135TIP3   OH227819   0.213   5.542   4.645  0.4914 -0.0925  0.4441
 2135TIP3    H127820   0.244   5.494   4.568  2.7816 -0.1813  1.3445
 2135TIP3    H227821   0.148   5.603   4.610 -0.7969 -2.1618 -1.0839
 2136TIP3   OH227822   1.088   6.739  14.915 -0.2308 -0.0603  0.0587
 2136TIP3    H127823   1.048   6.686  14.846  0.5638  1.6450 -1.8307
 2136TIP3    H227824   1.182   6.722  14.907 -0.0318  1.0120 -0.0893
 2137TIP3   OH227825   2.590   6.227   3.972  0.5915 -0.1071  0.1447
 2137TIP3    H127826   2.601   6.155   4.034 -1.0601 -0.0490  0.5593
 2137TIP3    H227827   2.613   6.189   3.887 -0.5769 -1.2566  0.3110
 2138TIP3   OH227828   1.302   5.399  16.920  0.5179 -1.1062 -0.2139
 2138TIP3    H127829   1.343   5.485  16.933  1.0404 -0.9268 -2.5165
 2138TIP3    H227830   1.373   5.342  16.892 -0.2212 -1.6235 -1.1389
 2139TIP3   OH227831   3.307   2.442   3.965  0.2327  0.1171  0.2578
 2139TIP3    H127832   3.326   2.394   4.045  1.4623 -2.3787 -1.4345
 2139TIP3    H227833   3.392   2.473   3.934 -0.2321  1.0535 -0.1496
 2140TIP3   OH227834   4.103   4.299  11.490  0.1326  0.0805 -0.6016
 2140TIP3    H127835   4.011   4.278  11.504  0.6182 -1.1639  1.0941
 2140TIP3    H227836   4.130   4.345  11.570  1.3152 -0.8587 -0.4200
 2141TIP3   OH227837   1.443   0.552  14.028  0.2021 -0.1646  0.5385
 2141TIP3    H127838   1.497   0.493  14.081 -2.2700  0.2262  3.8926
 2141TIP3    H227839   1.496   0.631  14.018  1.7745 -1.2425  0.0841
 2142TIP3   OH227840   2.176   1.871  13.433 -0.0967  0.2438  0.3582
 2142TIP3    H127841   2.114   1.800  13.452 -0.8348  0.8891  0.4264
 2142TIP3    H227842   2.167   1.885  13.338 -0.7503  0.9540  0.5143
 2143TIP3   OH227843   2.318   6.562  16.988  0.0698 -0.2244 -0.3502
 2143TIP3    H127844   2.390   6.613  17.025  0.1651 -0.4081 -0.2751
 2143TIP3    H227845   2.271   6.623  16.931 -0.4357  0.2306  0.5321
 2144TIP3   OH227846   0.213   4.267   2.522 -0.1826  0.0732  0.0227
 2144TIP3    H127847   0.192   4.293   2.612 -0.6718  0.9598 -0.3260
 2144TIP3    H227848   0.283   4.327   2.495  0.8452 -1.0061  0.2166
 2145TIP3   OH227849   6.209   5.962   2.532  0.1974  0.1118 -0.3281
 2145TIP3    H127850   6.235   6.039   2.481 -2.1500  0.0717 -1.7667
 2145TIP3    H227851   6.119   5.980   2.558  0.4936 -1.0083  1.6979
 2146TIP3   OH227852   0.162   3.536   4.284 -0.3972 -0.0470  0.0434
 2146TIP3    H127853   0.146   3.559   4.375  1.1972 -0.3934  0.4303
 2146TIP3    H227854   0.212   3.609   4.249  1.1421 -1.0130  0.1555
 2147TIP3   OH227855   5.348   4.250   3.002 -0.4618 -0.0021 -0.0931
 2147TIP3    H127856   5.428   4.203   3.025 -2.1024 -2.8786  0.1730
 2147TIP3    H227857   5.342   4.320   3.067  2.0839  0.7138 -0.4957
 2148TIP3   OH227858   5.109   1.043   5.809 -0.0290 -0.1820  0.2057
 2148TIP3    H127859   5.117   1.053   5.714  1.0869 -1.6667  0.1007
 2148TIP3    H227860   5.053   0.966   5.820  0.7872 -0.7135  0.7180
 2149TIP3   OH227861   1.651   5.871   2.532 -0.2637  0.5582 -0.0952
 2149TIP3    H127862   1.594   5.889   2.607 -1.1658 -0.1874 -0.5809
 2149TIP3    H227863   1.603   5.904   2.456 -1.0700 -1.9164 -0.7676
 2150TIP3   OH227864   0.288   5.325  16.970 -0.1243 -0.0562  0.0783
 2150TIP3    H127865   0.330   5.409  16.986  1.9437 -1.0903  0.4261
 2150TIP3    H227866   0.270   5.290  17.058 -1.5914  0.2797 -0.0643
 2151TIP3   OH227867   5.513   0.651  12.622 -0.0424  0.4745  0.2444
 2151TIP3    H127868   5.521   0.599  12.542 -0.0312  1.4168 -0.3750
 2151TIP3    H227869   5.520   0.742  12.593 -1.1638  0.8872  1.1674
 2152TIP3   OH227870   6.413   5.994  16.013  0.4318  0.1691  0.0582
 2152TIP3    H127871   6.344   5.969  15.952  0.5099  0.1312 -0.0132
 2152TIP3    H227872   6.493   5.993  15.962  0.5653 -0.3165  0.2702
 2153TIP3   OH227873   6.130   4.832  12.465 -0.0579 -0.0845  0.1656
 2153TIP3    H127874   6.095   4.755  12.510 -0.4088  0.2791  0.5105
 2153TIP3    H227875   6.118   4.904  12.526  0.4212  0.2228 -0.0922
 2154TIP3   OH227876   0.265   2.214  14.429  0.3130  0.0816 -0.3373
 2154TIP3    H127877   0.336   2.175  14.378  0.8355 -0.2006  0.5787
 2154TIP3    H227878   0.291   2.306  14.440 -0.5784  0.5533 -1.9039
 2155TIP3   OH227879   5.727   6.304  13.477  0.1262  0.0310  0.7890
 2155TIP3    H127880   5.758   6.321  13.388 -2.0011  0.9274  0.1711
 2155TIP3    H227881   5.664   6.233  13.468 -1.1637  1.0580  1.3216
 2156TIP3   OH227882   5.472   1.034   0.166 -0.0559  0.2369  0.8431
 2156TIP3    H127883   5.403   0.973   0.192 -0.0357 -0.9414 -1.5407
 2156TIP3    H227884   5.429   1.119   0.161  0.0831  0.7457  4.9806
 2157TIP3   OH227885   5.195   4.399   4.997 -0.0532 -0.0581  0.1704
 2157TIP3    H127886   5.222   4.410   4.906 -0.8396  0.3025 -0.0271
 2157TIP3    H227887   5.249   4.461   5.046 -1.3684  1.5750 -0.3731
 2158TIP3   OH227888   2.662   0.259   4.053 -0.0053  0.0306 -0.0584
 2158TIP3    H127889   2.657   0.184   4.111 -0.1593  0.4899  0.5309
 2158TIP3    H227890   2.594   0.243   3.987 -0.9790  0.2970  0.8489
 2159TIP3   OH227891   4.328   2.274   3.493  0.5994 -0.0374 -0.0117
 2159TIP3    H127892   4.387   2.254   3.565  0.1323 -0.1696  0.3385
 2159TIP3    H227893   4.352   2.212   3.424  3.1349  2.0339 -1.1934
 2160TIP3   OH227894   2.995   4.068  16.257 -0.1944 -0.0430  0.1647
 2160TIP3    H127895   2.963   4.092  16.344  0.0727  0.5021  0.1229
 2160TIP3    H227896   2.935   4.112  16.197 -0.3855 -0.4294  0.0742
 2161TIP3   OH227897   3.888   4.288   0.292 -0.1456 -0.2651  0.2159
 2161TIP3    H127898   3.906   4.323   0.380 -0.6159 -0.2967  0.3263
 2161TIP3    H227899   3.916   4.196   0.297  1.5988  0.2038 -0.2350
 2162TIP3   OH227900   6.039   3.410   6.348 -0.2825 -0.3765 -0.3436
 2162TIP3    H127901   6.121   3.386   6.391 -0.1486  1.0076  0.2053
 2162TIP3    H227902   6.055   3.496   6.310 -1.3045 -0.3276 -0.7130
 2163TIP3   OH227903   5.533   4.011  11.743  0.0340  0.2637  0.1420
 2163TIP3    H127904   5.452   3.970  11.710  1.0881 -3.3439  1.5655
 2163TIP3    H227905   5.599   3.989  11.678  0.8830 -1.5595  1.5474
 2164TIP3   OH227906   5.073   1.535  16.625 -0.3552 -0.2282 -0.0200
 2164TIP3    H127907   5.091   1.529  16.719  0.1645 -0.5824 -0.1420
 2164TIP3    H227908   5.123   1.610  16.595 -0.2512 -0.3218 -0.0804
 2165TIP3   OH227909   0.677   6.660   4.687 -0.1998  0.4023  0.0096
 2165TIP3    H127910   0.683   6.570   4.719  1.2395  0.2516 -0.5766
 2165TIP3    H227911   0.597   6.694   4.726 -1.7831 -1.6896 -1.1705
 2166TIP3   OH227912   5.100   0.473  14.806 -0.7172  0.3515  0.1164
 2166TIP3    H127913   5.050   0.457  14.726 -1.2793  2.0480  0.0964
 2166TIP3    H227914   5.142   0.557  14.791  0.2479  0.0518  1.0878
 2167TIP3   OH227915   3.236   5.342   0.247 -0.3022 -0.0972  1.1468
 2167TIP3    H127916   3.186   5.292   0.312  1.9026 -0.7579  2.4167
 2167TIP3    H227917   3.258   5.278   0.179  0.3770 -0.2668  1.5194
 2168TIP3   OH227918   0.654   3.972   2.298  0.0694  0.1103 -0.3378
 2168TIP3    H127919   0.681   4.007   2.213 -0.8282  0.2754 -0.5648
 2168TIP3    H227920   0.679   3.880   2.296 -2.7538 -0.7324 -2.0659
 2169TIP3   OH227921   3.871   5.312   5.906 -0.0684 -0.5692 -0.2055
 2169TIP3    H127922   3.816   5.308   5.983 -1.4995 -0.7231 -1.2039
 2169TIP3    H227923   3.896   5.221   5.889 -0.1293 -0.5890 -0.1874
 2170TIP3   OH227924   2.192   0.201  13.515  0.3050  0.8059 -0.2779
 2170TIP3    H127925   2.201   0.211  13.610  1.3462 -0.1157 -0.2608
 2170TIP3    H227926   2.104   0.166  13.503  0.3146  0.5372  0.3902
 2171TIP3   OH227927   0.850   1.632  12.238 -0.1824 -0.2142 -0.3957
 2171TIP3    H127928   0.886   1.713  12.274 -1.8388  0.2792  0.2785
 2171TIP3    H227929   0.829   1.579  12.314 -0.4527 -0.6594 -0.7736
 2172TIP3   OH227930   6.056   4.047  15.621 -0.1641  0.5923  0.6026
 2172TIP3    H127931   6.052   3.951  15.616 -0.0174  0.5441  1.3084
 2172TIP3    H227932   5.981   4.070  15.677 -0.1912  0.8881  0.4424
 2173TIP3   OH227933   2.401   2.958  14.612  0.0799 -0.6056 -0.8538
 2173TIP3    H127934   2.325   2.995  14.568 -1.7681 -2.8163  0.2409
 2173TIP3    H227935   2.388   2.980  14.705  1.4340  0.0290 -0.8004
 2174TIP3   OH227936   4.584   4.654  14.990 -0.2329 -0.3035 -0.7504
 2174TIP3    H127937   4.530   4.576  14.972  0.1005 -0.8049  0.3050
 2174TIP3    H227938   4.650   4.623  15.052  0.0009  0.7982 -0.4323
 2175TIP3   OH227939   2.575   3.134   0.423 -0.0644  0.4544  0.3607
 2175TIP3    H127940   2.655   3.082   0.412 -0.4494  0.2589 -2.1263
 2175TIP3    H227941   2.518   3.079   0.477  0.7974 -0.1735  0.6656
 2176TIP3   OH227942   3.287   1.479  13.983  0.6956  0.2565  0.1095
 2176TIP3    H127943   3.277   1.544  13.914  0.5887  1.3908  1.1669
 2176TIP3    H227944   3.258   1.523  14.063 -1.2810 -1.7063  0.5685
 2177TIP3   OH227945   1.296   6.292  11.095 -0.1105  0.1966  0.5507
 2177TIP3    H127946   1.351   6.236  11.040  2.4036  3.4450 -0.6522
 2177TIP3    H227947   1.218   6.308  11.043  0.8808  0.7885 -0.8318
 2178TIP3   OH227948   3.593   6.510  12.771  0.5794  0.3269 -0.0093
 2178TIP3    H127949   3.630   6.594  12.745 -1.7222  0.7633 -2.2100
 2178TIP3    H227950   3.505   6.509  12.735 -0.5247 -1.9060  2.3727
 2179TIP3   OH227951   4.942   2.210  16.623  0.5052  0.6178  0.0985
 2179TIP3    H127952   4.909   2.274  16.686 -0.5902 -0.2571  0.4581
 2179TIP3    H227953   4.998   2.260  16.564 -0.5012  1.9628  0.2375
 2180TIP3   OH227954   1.915   3.792  16.231  0.1189  0.0172  0.4504
 2180TIP3    H127955   1.884   3.737  16.303 -0.2526 -0.0293  0.2561
 2180TIP3    H227956   2.002   3.759  16.211 -0.2406 -0.7274  0.0958
 2181TIP3   OH227957   5.737   4.356  16.784  0.2838  0.8745  0.1292
 2181TIP3    H127958   5.800   4.292  16.752  0.6801  1.6410 -0.6544
 2181TIP3    H227959   5.694   4.312  16.858  1.4195  0.1830  0.4063
 2182TIP3   OH227960   5.962   5.389   2.199  0.2989  0.2635 -0.0269
 2182TIP3    H127961   5.895   5.458   2.190  0.2669 -0.0054 -2.4720
 2182TIP3    H227962   6.008   5.411   2.280 -3.5954 -0.3307  2.6234
 2183TIP3   OH227963   1.870   2.581   6.379 -0.3611  0.1202 -0.2808
 2183TIP3    H127964   1.832   2.493   6.381 -0.4490  0.1493 -0.5746
 2183TIP3    H227965   1.944   2.574   6.319  0.4273 -0.0602  0.6832
 2184TIP3   OH227966   0.109   2.179  16.323  0.6123  0.4740  0.0067
 2184TIP3    H127967   0.074   2.131  16.248  2.0875  0.0470 -0.4443
 2184TIP3    H227968   0.204   2.172  16.314  0.8293  0.6795  1.7560
 2185TIP3   OH227969   2.113   3.774  16.883 -0.4107  0.5716  0.1970
 2185TIP3    H127970   2.064   3.695  16.857  0.0670  0.5736 -0.7693
 2185TIP3    H227971   2.185   3.778  16.820 -0.8794  2.2282 -0.2668
 2186TIP3   OH227972   2.558   3.727   5.846  0.1126 -0.1191  0.0011
 2186TIP3    H127973   2.627   3.685   5.897 -0.3995  1.8065  2.4605
 2186TIP3    H227974   2.498   3.762   5.911 -2.8257 -1.0321 -2.0388
 2187TIP3   OH227975   1.353   2.016  11.891  0.5712  0.9960 -0.4441
 2187TIP3    H127976   1.391   1.941  11.935 -0.9836  1.4596  1.8886
 2187TIP3    H227977   1.271   1.983  11.853  1.2629  0.9112 -1.9578
 2188TIP3   OH227978   5.649   2.552   4.465 -0.1980 -0.6735 -0.0425
 2188TIP3    H127979   5.736   2.579   4.493 -1.0186  0.5778  1.4736
 2188TIP3    H227980   5.661   2.464   4.427  1.5035 -1.0787  1.3463
 2189TIP3   OH227981   3.345   5.957   0.905  0.2830 -0.9341 -0.2461
 2189TIP3    H127982   3.273   5.919   0.956  0.3667 -1.8928 -0.8240
 2189TIP3    H227983   3.424   5.922   0.946  0.3571 -1.4701 -0.8318
 2190TIP3   OH227984   2.987   2.002  13.888 -0.3475 -0.4646 -0.2293
 2190TIP3    H127985   2.905   2.037  13.854 -1.5091 -1.3909  1.4805
 2190TIP3    H227986   3.044   1.995  13.811 -1.1214  2.0765 -1.1527
 2191TIP3   OH227987   4.652   2.437   0.925 -0.9634 -0.0620 -0.1978
 2191TIP3    H127988   4.623   2.410   0.838 -2.9019  1.4091 -0.0767
 2191TIP3    H227989   4.603   2.381   0.985 -0.0465 -0.6970 -0.0267
 2192TIP3   OH227990   6.582   5.452  16.801  0.4702 -0.0938 -0.2536
 2192TIP3    H127991   6.646   5.521  16.783  1.0659 -0.5876 -0.0498
 2192TIP3    H227992   6.502   5.500  16.825  0.9436  0.5262  0.1415
 2193TIP3   OH227993   2.818   4.680  12.428 -0.6202  0.2313  0.4584
 2193TIP3    H127994   2.857   4.737  12.495  0.0709  0.0782  0.1947
 2193TIP3    H227995   2.783   4.606  12.478  0.7232 -0.3424  0.5796
 2194TIP3   OH227996   6.297   6.436  14.222 -0.8478 -0.1359  0.2418
 2194TIP3    H127997   6.390   6.456  14.222 -0.9292  0.5567  2.6749
 2194TIP3    H227998   6.256   6.510  14.175 -0.2985  0.3695  0.5473
 2195TIP3   OH227999   5.018   4.628  13.952 -0.1691  0.5259 -0.0866
 2195TIP3    H128000   4.954   4.672  14.008 -0.6140 -0.9296  0.5909
 2195TIP3    H228001   5.102   4.643  13.995 -0.8606 -3.9641  3.4656
 2196TIP3   OH228002   1.472   3.263  16.099  0.2513  0.3623 -0.1134
 2196TIP3    H128003   1.394   3.212  16.121 -0.9391  1.6760 -1.1144
 2196TIP3    H228004   1.530   3.252  16.174  0.8922 -3.8834 -0.9790
 2197TIP3   OH228005   3.763   5.670   6.016 -0.5507  0.4327  0.0391
 2197TIP3    H128006   3.744   5.722   6.094 -2.4037  0.3456 -0.3217
 2197TIP3    H228007   3.684   5.676   5.963 -0.3262 -1.6730 -0.6201
 2198TIP3   OH228008   1.660   2.763   6.352  0.6338  0.2174 -0.0337
 2198TIP3    H128009   1.730   2.697   6.344  0.9041  0.3170  1.1709
 2198TIP3    H228010   1.697   2.829   6.410 -0.8573 -0.3284  1.6403
 2199TIP3   OH228011   0.016   3.559   6.030  0.0240 -0.5046  0.5569
 2199TIP3    H128012  -0.052   3.522   5.974  0.9697 -3.2522  1.0845
 2199TIP3    H228013  -0.032   3.600   6.102 -1.1071 -0.4786 -0.1893
 2200TIP3   OH228014   4.478   0.338   4.979  0.2220 -0.4812  0.0961
 2200TIP3    H128015   4.495   0.415   4.925 -1.5856 -1.5537 -2.1945
 2200TIP3    H228016   4.564   0.307   5.005  1.1329  0.6288 -1.4307
 2201TIP3   OH228017   2.923   3.973   5.689 -0.0700  0.2482  0.2980
 2201TIP3    H128018   2.912   3.883   5.720  1.0555  0.2667  0.8012
 2201TIP3    H228019   3.001   4.005   5.735  0.3884  0.9998 -0.9442
 2202TIP3   OH228020   6.582   2.011  13.707 -0.1510  0.9620  0.5272
 2202TIP3    H128021   6.644   2.008  13.634  0.8868  0.4273  1.4072
 2202TIP3    H228022   6.598   1.930  13.755 -0.3407  1.6289  1.7383
 2203TIP3   OH228023   1.494   6.392   2.739  0.1419  0.4563 -0.2626
 2203TIP3    H128024   1.573   6.444   2.752  0.5955 -0.3711  0.3645
 2203TIP3    H228025   1.435   6.450   2.690  0.8937  1.2997 -0.1944
 2204TIP3   OH228026   3.394   4.541   1.629  0.5090 -0.6393 -0.3854
 2204TIP3    H128027   3.353   4.502   1.706  1.2829 -2.9587 -1.0675
 2204TIP3    H228028   3.465   4.594   1.664  0.5950 -1.3285  0.5120
 2205TIP3   OH228029   2.239   3.198  17.170 -0.1218  0.0005  0.5010
 2205TIP3    H128030   2.258   3.282  17.129  0.1559  0.2163  1.0638
 2205TIP3    H228031   2.229   3.218  17.263  1.8837 -0.8519  0.9618
 2206TIP3   OH228032   1.946   1.501   3.810 -0.1013 -0.3600  0.0780
 2206TIP3    H128033   2.013   1.566   3.832 -0.3945  0.2715 -0.8594
 2206TIP3    H228034   1.912   1.472   3.895 -0.8858  1.6575  0.5156
 2207TIP3   OH228035   6.308   2.499  11.312 -0.2037 -0.2861  0.0642
 2207TIP3    H128036   6.393   2.489  11.356  0.3924 -1.9942 -1.3374
 2207TIP3    H228037   6.266   2.413  11.322 -0.8225 -0.1439 -1.1178
 2208TIP3   OH228038   5.333   5.700  15.839 -0.7292 -0.1833  0.0073
 2208TIP3    H128039   5.277   5.754  15.896 -0.2320  0.7517 -0.3598
 2208TIP3    H228040   5.310   5.728  15.750  0.6048  0.5245 -0.1341
 2209TIP3   OH228041   4.101   2.112   0.288  0.3039 -0.0310  0.3539
 2209TIP3    H128042   4.092   2.088   0.380  4.8372  0.6975  1.2273
 2209TIP3    H228043   4.079   2.033   0.240  0.3043 -1.2218  2.2097
 2210TIP3   OH228044   5.313   1.075   6.705 -0.5867  0.3919 -0.5939
 2210TIP3    H128045   5.270   1.153   6.669 -1.2128  0.0889 -0.5304
 2210TIP3    H228046   5.245   1.034   6.758  0.0139  0.2770  0.0902
 2211TIP3   OH228047   0.758   2.298  14.925  0.2786  0.2554 -0.0722
 2211TIP3    H128048   0.801   2.362  14.982  1.1821  0.3046 -0.7806
 2211TIP3    H228049   0.753   2.218  14.978  0.5826  0.4610  0.2750
 2212TIP3   OH228050   5.678   3.643  11.271  0.3880  0.0643  0.0623
 2212TIP3    H128051   5.709   3.563  11.229  1.3221  0.4527 -0.0160
 2212TIP3    H228052   5.590   3.622  11.302  0.7015 -1.0558  0.2247
 2213TIP3   OH228053   5.444   4.381   2.691  0.4203  0.5390  0.3061
 2213TIP3    H128054   5.366   4.435   2.681  0.4443  0.4794 -0.2441
 2213TIP3    H228055   5.481   4.407   2.775 -0.7471 -0.1419  1.0576
 2214TIP3   OH228056   2.691   2.513  12.141 -0.1108  0.0068  0.2592
 2214TIP3    H128057   2.766   2.555  12.185 -0.1755  0.7291 -0.2883
 2214TIP3    H228058   2.731   2.445  12.087  0.4255  1.6436 -1.5577
 2215TIP3   OH228059   3.829   1.978   3.654  0.3002  0.3440 -0.3546
 2215TIP3    H128060   3.849   1.894   3.694  1.8142  0.4063 -0.8770
 2215TIP3    H228061   3.863   2.043   3.716 -1.8206  0.6535  0.5599
 2216TIP3   OH228062   3.122   6.029   6.024  0.4227  0.1065  0.2068
 2216TIP3    H128063   3.097   6.099   6.084  0.7859  0.1371  0.3265
 2216TIP3    H228064   3.046   6.017   5.968  0.7236  1.2929 -0.4822
 2217TIP3   OH228065   2.708   5.378   3.941  0.3493 -0.6774  0.7778
 2217TIP3    H128066   2.656   5.303   3.911 -1.2764  0.6427  0.1605
 2217TIP3    H228067   2.683   5.389   4.033  2.4412 -2.3470  1.6191
 2218TIP3   OH228068   4.301   0.001   5.760 -0.3698 -0.3400 -0.3637
 2218TIP3    H128069   4.246   0.061   5.710  0.3589 -0.6993 -1.6321
 2218TIP3    H228070   4.266  -0.086   5.740 -0.3298 -0.4592  0.0775
 2219TIP3   OH228071   1.049   5.392   5.167 -0.9393  0.2028 -0.2169
 2219TIP3    H128072   1.068   5.433   5.251 -0.1366 -1.0915  0.2697
 2219TIP3    H228073   1.045   5.465   5.105 -0.1134  1.0648  0.7038
 2220TIP3   OH228074   6.495   0.961   1.141  0.0784  0.4311 -0.3870
 2220TIP3    H128075   6.517   0.987   1.052  3.0431 -0.0260  0.0915
 2220TIP3    H228076   6.491   1.044   1.190  1.1825  0.5342 -0.4518
 2221TIP3   OH228077   6.683   0.730  15.578  0.6816 -0.0224  0.1201
 2221TIP3    H128078   6.598   0.704  15.614  1.4921 -0.2168  2.0501
 2221TIP3    H228079   6.692   0.679  15.497 -1.4415  0.7560 -0.6686
 2222TIP3   OH228080   3.421   5.547  11.699 -0.3079  0.2421 -0.0831
 2222TIP3    H128081   3.507   5.504  11.702  0.1639  1.1821  0.2455
 2222TIP3    H228082   3.432   5.626  11.751 -1.3542  0.4295 -0.1241
 2223TIP3   OH228083   1.015   0.265  16.655 -0.1164  0.0639  0.2495
 2223TIP3    H128084   0.939   0.322  16.662 -0.0333  0.0785  1.2667
 2223TIP3    H228085   1.018   0.219  16.739  0.2007 -0.9560 -0.3026
 2224TIP3   OH228086   6.459   2.951   3.440  0.0639  0.3243  0.1424
 2224TIP3    H128087   6.499   3.030   3.477  2.0994 -0.3128 -0.6000
 2224TIP3    H228088   6.462   2.887   3.511 -0.3474  0.5014  0.3220
 2225TIP3   OH228089   4.575   5.690   5.369 -0.1097  0.0209  0.1430
 2225TIP3    H128090   4.583   5.748   5.444 -0.5693 -0.4752  0.5831
 2225TIP3    H228091   4.630   5.731   5.301  1.5924 -0.3389  1.2276
 2226TIP3   OH228092   3.467   3.837   0.786  0.7067 -0.2623 -0.8775
 2226TIP3    H128093   3.482   3.746   0.812 -1.8441 -0.9726 -1.6200
 2226TIP3    H228094   3.522   3.849   0.709  1.3173 -1.0694 -0.5836
 2227TIP3   OH228095   4.876   5.152   2.123 -0.2291  0.4125 -0.1851
 2227TIP3    H128096   4.858   5.130   2.032 -2.1194 -2.7191  0.8095
 2227TIP3    H228097   4.964   5.118   2.139 -0.4262 -0.2642 -0.5044
 2228TIP3   OH228098   4.365   3.773  14.049  0.5959  0.4682  0.2015
 2228TIP3    H128099   4.399   3.813  13.969 -0.3380  0.6211 -0.1297
 2228TIP3    H228100   4.270   3.777  14.039  0.4786 -0.9572  0.6065
 2229TIP3   OH228101   6.477   1.920   5.924 -0.7049 -0.0073 -0.5843
 2229TIP3    H128102   6.536   1.894   5.853  0.9971  1.8297  0.0676
 2229TIP3    H228103   6.516   2.000   5.959 -4.0667  1.8197 -0.6491
 2230TIP3   OH228104   5.541   3.276   4.405 -0.0129 -0.0283 -0.1935
 2230TIP3    H128105   5.511   3.366   4.397 -0.6720 -0.1118  1.1162
 2230TIP3    H228106   5.462   3.223   4.394  0.1639 -0.3942  0.2596
 2231TIP3   OH228107   6.746   6.124  13.638 -0.0853 -0.4013  0.2441
 2231TIP3    H128108   6.726   6.068  13.563  1.9458  3.0670 -3.2978
 2231TIP3    H228109   6.833   6.097  13.667 -0.0051 -0.4399 -0.0357
 2232TIP3   OH228110   1.185   4.368   4.740 -0.9525  0.0559 -0.6603
 2232TIP3    H128111   1.246   4.423   4.691  0.3153 -0.7033  0.0219
 2232TIP3    H228112   1.156   4.303   4.677  0.3044 -0.6279 -0.5647
 2233TIP3   OH228113   4.564   2.621   1.588 -0.4591 -0.4776 -0.2364
 2233TIP3    H128114   4.558   2.706   1.545  1.4451 -1.7292 -3.3167
 2233TIP3    H228115   4.655   2.616   1.618 -0.3692 -1.6469 -0.6696
 2234TIP3   OH228116   0.499   4.585   3.159  0.2884  0.2448 -0.3287
 2234TIP3    H128117   0.480   4.568   3.066  2.1341 -0.5670 -0.5880
 2234TIP3    H228118   0.430   4.537   3.206  1.5001 -2.6108 -1.2246
 2235TIP3   OH228119   6.310   1.135   4.422  0.6194  0.7529 -0.1607
 2235TIP3    H128120   6.363   1.210   4.449  2.0598 -0.2805  0.0475
 2235TIP3    H228121   6.374   1.066   4.403 -0.6535 -1.4970  2.7747
 2236TIP3   OH228122   2.985   0.896  15.644 -0.2837 -0.3256 -0.2150
 2236TIP3    H128123   3.039   0.836  15.593  1.4285 -0.0762  1.1955
 2236TIP3    H228124   2.897   0.860  15.639  0.4133 -2.0369 -0.7555
 2237TIP3   OH228125   1.902   0.437  16.222 -0.1781  0.2195 -1.1170
 2237TIP3    H128126   1.937   0.418  16.135 -0.4543 -1.8056 -0.8153
 2237TIP3    H228127   1.941   0.522  16.245  2.2291 -0.5641 -1.9857
 2238TIP3   OH228128   4.315   5.850  13.248 -0.1846 -0.1463 -0.1289
 2238TIP3    H128129   4.341   5.760  13.229  1.3271  0.5649 -1.7221
 2238TIP3    H228130   4.373   5.878  13.319  0.3864  0.0149 -0.6453
 2239TIP3   OH228131   4.473   3.047  17.050  0.7968  0.1023  0.6401
 2239TIP3    H128132   4.489   2.954  17.032 -1.1318 -0.2582  0.5169
 2239TIP3    H228133   4.538   3.070  17.117  1.2655 -1.3617  0.7279
 2240TIP3   OH228134   3.134   2.699   5.083  0.1209 -0.4145 -0.4146
 2240TIP3    H128135   3.115   2.649   5.163  4.1232 -0.8102  0.5121
 2240TIP3    H228136   3.183   2.775   5.114  0.0268  0.5047 -2.3920
 2241TIP3   OH228137   0.828   0.359  12.375 -0.9124  0.5523 -0.0634
 2241TIP3    H128138   0.757   0.351  12.312  0.3318  0.5006 -1.5272
 2241TIP3    H228139   0.907   0.344  12.324  0.0677 -2.0829  1.9908
 2242TIP3   OH228140   6.396   5.247   5.087  0.9415 -0.4546  0.0128
 2242TIP3    H128141   6.460   5.185   5.050  0.4946 -0.6293 -0.4739
 2242TIP3    H228142   6.334   5.262   5.016  0.6578  0.0163  0.3616
 2243TIP3   OH228143   5.552   0.992   6.589  0.6935  0.1909 -0.6589
 2243TIP3    H128144   5.568   1.045   6.510 -1.7787 -1.4395 -2.4058
 2243TIP3    H228145   5.466   1.021   6.619  0.5718 -0.8696  0.0289
 2244TIP3   OH228146   5.625   6.141   0.887  0.0413  0.6543  0.2819
 2244TIP3    H128147   5.593   6.138   0.797  0.0528 -0.9093  0.3115
 2244TIP3    H228148   5.655   6.232   0.898 -0.2180  0.9490 -1.1810
 2245TIP3   OH228149   0.584   4.975  14.301 -0.1441  0.0608 -0.3708
 2245TIP3    H128150   0.666   4.977  14.350 -1.5030  2.9048  2.0939
 2245TIP3    H228151   0.518   4.949  14.366 -1.4904 -0.1465 -1.7593
 2246TIP3   OH228152   3.486   4.918   3.414 -0.2534 -0.1181 -0.3510
 2246TIP3    H128153   3.442   4.959   3.488  0.1527 -0.1706 -0.0786
 2246TIP3    H228154   3.505   4.829   3.443 -2.1708 -0.9137 -1.3498
 2247TIP3   OH228155   5.972   3.338   2.669 -0.0722  0.0929 -0.2758
 2247TIP3    H128156   5.884   3.374   2.659 -1.0879 -1.2143  2.8036
 2247TIP3    H228157   6.010   3.385   2.742  1.2113 -0.4313 -0.5631
 2248TIP3   OH228158   3.754   3.678   3.979 -0.0279 -0.1508 -0.0031
 2248TIP3    H128159   3.697   3.655   4.053  0.0612 -1.1880 -0.2353
 2248TIP3    H228160   3.767   3.772   3.987 -1.3944  0.0390  0.3351
 2249TIP3   OH228161   6.519   2.147  15.534 -0.3177  0.1989 -0.2335
 2249TIP3    H128162   6.471   2.127  15.615 -1.5298 -0.8231 -1.1648
 2249TIP3    H228163   6.608   2.115  15.551 -0.5147  0.1052  0.7260
 2250TIP3   OH228164   4.539   1.029   0.577  0.1083 -0.8363 -0.5923
 2250TIP3    H128165   4.608   1.003   0.516  0.7490 -0.3396 -0.0904
 2250TIP3    H228166   4.575   1.103   0.625 -0.8832 -0.3824 -0.5061
 2251TIP3   OH228167   1.816   2.107   0.769  0.6596  0.5733 -0.2529
 2251TIP3    H128168   1.748   2.099   0.701 -0.1820  0.9069  0.5305
 2251TIP3    H228169   1.830   2.201   0.778  1.3460  0.5038 -0.5105
 2252TIP3   OH228170   5.553   0.457   4.659 -0.1642  0.2170 -0.0360
 2252TIP3    H128171   5.610   0.414   4.596  0.4777  0.7516  0.1637
 2252TIP3    H228172   5.477   0.485   4.607 -0.1074 -0.2299 -0.3650
 2253TIP3   OH228173   0.571   5.069   0.151  0.2257  0.2346  0.2353
 2253TIP3    H128174   0.484   5.104   0.175  0.4841  0.1973  1.2713
 2253TIP3    H228175   0.568   4.978   0.178  1.4447  0.8438  2.7285
 2254TIP3   OH228176   5.594   5.645   5.166 -0.0013  0.3677 -0.0329
 2254TIP3    H128177   5.602   5.607   5.079 -1.3817  2.1602 -1.0084
 2254TIP3    H228178   5.635   5.731   5.159 -1.9207  1.3872  0.4481
 2255TIP3   OH228179   5.964   1.615   1.844  0.1943  0.1555  0.7341
 2255TIP3    H128180   6.015   1.693   1.866  0.7032 -0.0272  0.2496
 2255TIP3    H228181   5.888   1.648   1.796 -0.6889  0.5141  2.3192
 2256TIP3   OH228182   3.369   5.944  15.301 -0.0175 -0.1868  0.3569
 2256TIP3    H128183   3.329   5.945  15.214 -0.1458 -0.9892  0.3937
 2256TIP3    H228184   3.357   6.033  15.334 -0.6338 -0.0726 -0.1483
 2257TIP3   OH228185   5.333   1.747  14.773  0.5197  0.0925  0.1724
 2257TIP3    H128186   5.257   1.692  14.793  0.7022 -0.0067  0.6030
 2257TIP3    H228187   5.320   1.774  14.683 -0.2132  0.3689  0.3578
 2258TIP3   OH228188   6.282   0.732  13.736 -1.1710 -0.3843 -0.1283
 2258TIP3    H128189   6.250   0.814  13.698 -1.3353 -0.6776 -0.6250
 2258TIP3    H228190   6.267   0.666  13.668  0.8349 -0.4853 -0.5346
 2259TIP3   OH228191   4.880   0.752  16.342 -0.0901  0.2803 -0.5651
 2259TIP3    H128192   4.943   0.805  16.294  0.8004  0.2000  0.4726
 2259TIP3    H228193   4.863   0.802  16.422 -1.2043  0.2046 -0.7404
 2260TIP3   OH228194   3.810   0.198  11.804 -0.0629  0.0672 -0.1285
 2260TIP3    H128195   3.729   0.248  11.793 -0.0179  0.1775  0.0463
 2260TIP3    H228196   3.832   0.168  11.716 -0.7613 -0.6906 -0.0580
 2261TIP3   OH228197   5.431   5.881   0.859  0.3988 -0.4442 -0.0925
 2261TIP3    H128198   5.407   5.968   0.890 -1.4863 -0.8428 -0.3435
 2261TIP3    H228199   5.419   5.885   0.764  0.0228 -1.0487 -0.0771
 2262TIP3   OH228200   1.765   5.203   2.497  0.4689 -0.1133 -0.7652
 2262TIP3    H128201   1.843   5.150   2.483  0.6755 -0.3078  0.8283
 2262TIP3    H228202   1.711   5.189   2.419  2.1611  0.3226 -2.0679
 2263TIP3   OH228203   5.519   4.823  14.863  0.6968  0.0759 -0.2199
 2263TIP3    H128204   5.440   4.768  14.859  0.2388  0.5375  1.6299
 2263TIP3    H228205   5.589   4.766  14.832  0.4682 -2.0721  2.7504
 2264TIP3   OH228206   4.348   3.241   0.471  0.4981 -0.8470 -0.1546
 2264TIP3    H128207   4.399   3.184   0.529  0.6355  1.4663  2.2145
 2264TIP3    H228208   4.383   3.224   0.383  2.0831 -2.6865  0.7570
 2265TIP3   OH228209   2.427   2.086  12.811 -0.0308  0.3406 -0.2125
 2265TIP3    H128210   2.456   2.022  12.875  1.8005  1.6349  0.3200
 2265TIP3    H228211   2.440   2.043  12.726  0.6920 -0.1818  0.1531
 2266TIP3   OH228212   4.130   5.349   2.263  0.1141  0.3884 -0.7935
 2266TIP3    H128213   4.093   5.404   2.333  0.8624 -0.5304  0.3608
 2266TIP3    H228214   4.219   5.331   2.292 -0.1860 -1.6080 -1.0349
 2267TIP3   OH228215   4.300   5.150   5.095  0.0841  0.3385  0.4630
 2267TIP3    H128216   4.303   5.201   5.015  0.4955  0.4895  0.5728
 2267TIP3    H228217   4.359   5.196   5.156  1.6960 -1.0968  0.0622
 2268TIP3   OH228218   0.311   1.331   1.868  0.3927  0.7040  0.5754
 2268TIP3    H128219   0.231   1.344   1.818  1.8374  1.4681 -1.7019
 2268TIP3    H228220   0.303   1.392   1.942 -0.3617  2.1276 -0.6151
 2269TIP3   OH228221   5.594   2.484   1.091  0.4602 -0.0736 -0.0289
 2269TIP3    H128222   5.615   2.436   1.172 -2.6826  1.0927  1.6503
 2269TIP3    H228223   5.593   2.417   1.023  0.6127 -1.5778  1.3854
 2270TIP3   OH228224   5.692   6.239  11.728  0.2718 -0.3751  0.3064
 2270TIP3    H128225   5.715   6.327  11.696  0.8960 -0.5293  0.3253
 2270TIP3    H228226   5.625   6.208  11.666 -1.3841  0.8684  1.3884
 2271TIP3   OH228227   1.781   1.849  16.339  0.7731  0.5534 -1.0322
 2271TIP3    H128228   1.761   1.757  16.357 -1.5133  1.1535 -0.1393
 2271TIP3    H228229   1.778   1.856  16.244  1.1983 -0.3328 -1.1167
 2272TIP3   OH228230   3.725   6.746   0.211  0.4286 -0.1637 -0.1670
 2272TIP3    H128231   3.682   6.678   0.263  0.3527 -0.0396 -0.0691
 2272TIP3    H228232   3.694   6.731   0.122  0.3209 -0.1839 -0.1261
 2273TIP3   OH228233   1.175   3.732  12.684  0.1534 -0.2915  0.7600
 2273TIP3    H128234   1.084   3.730  12.714 -0.3790  0.8600 -0.6525
 2273TIP3    H228235   1.182   3.659  12.623  0.1286 -0.3019  0.7702
 2274TIP3   OH228236   4.128   2.625  16.860 -0.0273  0.3596  0.4736
 2274TIP3    H128237   4.185   2.564  16.908  0.5873  0.8528  0.3819
 2274TIP3    H228238   4.118   2.585  16.774 -0.5490 -0.1693  0.7687
 2275TIP3   OH228239   1.732   3.900  12.594  0.2784  0.1790  0.1263
 2275TIP3    H128240   1.752   3.934  12.682  0.7827 -0.4863  0.2755
 2275TIP3    H228241   1.817   3.872  12.559  0.2585  1.4554 -1.0291
 2276TIP3   OH228242   4.271   1.996  11.263 -0.0553  0.5964  0.1298
 2276TIP3    H128243   4.258   1.901  11.254  0.6210  0.0674  3.5670
 2276TIP3    H228244   4.182   2.032  11.257 -0.4031 -0.2996 -0.4769
 2277TIP3   OH228245   0.209   2.866  12.118  0.1402  0.4157 -0.5139
 2277TIP3    H128246   0.213   2.889  12.025  0.2369  0.8576 -0.4005
 2277TIP3    H228247   0.134   2.915  12.152  0.3541  0.5716 -0.2663
 2278TIP3   OH228248   4.557   1.710   6.717  0.1944 -0.0779 -0.5142
 2278TIP3    H128249   4.527   1.725   6.628 -0.4350  0.2470 -0.2552
 2278TIP3    H228250   4.531   1.789   6.765 -2.2270 -1.4581  0.6437
 2279TIP3   OH228251   5.942   5.006   1.927 -0.1275  0.3294 -0.1031
 2279TIP3    H128252   5.945   4.917   1.893  0.8923  0.3938 -0.2232
 2279TIP3    H228253   5.922   5.060   1.851 -2.3491  0.0854  0.2554
 2280TIP3   OH228254   1.935   4.885   2.938  0.8724  0.0057 -0.0602
 2280TIP3    H128255   1.935   4.909   3.030  0.6660  0.7565 -0.2517
 2280TIP3    H228256   1.930   4.968   2.891  0.3604 -0.3963 -0.7431
 2281TIP3   OH228257   2.145   5.642   2.732  0.0664 -0.1218 -0.1421
 2281TIP3    H128258   2.063   5.633   2.684 -0.8465  2.9022  0.6283
 2281TIP3    H228259   2.209   5.666   2.665 -0.2403 -0.1107 -0.4345
 2282TIP3   OH228260   5.853   6.099  14.660 -0.1657  0.2658  0.1328
 2282TIP3    H128261   5.766   6.121  14.626  0.5824  1.4152 -1.1595
 2282TIP3    H228262   5.885   6.181  14.700  0.7491  0.1972 -0.4211
 2283TIP3   OH228263   2.322   1.169   4.083  0.3640  0.5729 -0.3383
 2283TIP3    H128264   2.316   1.252   4.037  0.9900  0.2440 -1.0224
 2283TIP3    H228265   2.358   1.108   4.019  0.9312  0.0271  0.4822
 2284TIP3   OH228266   6.355   0.056   4.441  0.1160  0.3970 -0.0106
 2284TIP3    H128267   6.371   0.058   4.346  1.0907  0.2180  0.1363
 2284TIP3    H228268   6.377   0.145   4.470  1.2004  0.0629  0.2404
 2285TIP3   OH228269   0.855   3.163   3.304  0.0816 -0.6916 -0.0570
 2285TIP3    H128270   0.873   3.246   3.261 -1.4577  0.2453  1.0159
 2285TIP3    H228271   0.768   3.174   3.342  1.1312 -1.5860  2.8823
 2286TIP3   OH228272   2.873   4.200   0.926 -0.3116 -0.2700  0.1560
 2286TIP3    H128273   2.858   4.133   0.992  1.9697 -1.3924 -0.3398
 2286TIP3    H228274   2.968   4.211   0.925 -0.3220  0.2537 -2.3782
 2287TIP3   OH228275   4.651   4.526  13.004 -0.1297  0.8323  0.7731
 2287TIP3    H128276   4.616   4.493  12.921  1.5493  2.4726 -0.6666
 2287TIP3    H228277   4.683   4.448  13.049 -0.8458 -0.0629 -0.2187
 2288TIP3   OH228278   3.655   2.707  15.344 -0.5271  0.3080 -0.2650
 2288TIP3    H128279   3.669   2.748  15.429 -0.1353 -0.5001  0.0762
 2288TIP3    H228280   3.671   2.614  15.360  1.3122  0.3356 -1.6184
 2289TIP3   OH228281   2.914   1.199  17.280  0.4119  0.0922 -0.0165
 2289TIP3    H128282   2.896   1.290  17.302 -3.7747 -0.8121  1.1413
 2289TIP3    H228283   2.896   1.193  17.186 -0.2967  0.2904  0.1022
 2290TIP3   OH228284   1.862   3.152  15.144  0.3855  0.2692 -0.2123
 2290TIP3    H128285   1.773   3.152  15.109 -0.3246  0.4629  1.4956
 2290TIP3    H228286   1.918   3.160  15.067 -1.0772  0.3570 -1.3084
 2291TIP3   OH228287   5.066   6.477   6.120 -0.3827  0.3500 -0.3350
 2291TIP3    H128288   4.972   6.467   6.106 -0.2608  0.6369 -1.4145
 2291TIP3    H228289   5.080   6.572   6.116  0.0636  0.2586 -0.9252
 2292TIP3   OH228290   0.652   2.284  11.072  0.5639 -0.4632  0.1420
 2292TIP3    H128291   0.625   2.193  11.086 -4.0790  0.0861 -2.9130
 2292TIP3    H228292   0.588   2.319  11.009  1.0682  5.3746  2.1857
 2293TIP3   OH228293   1.788   4.181   0.066  0.1128 -0.0184 -0.2383
 2293TIP3    H128294   1.752   4.156  -0.019 -0.7660 -0.1140  0.1429
 2293TIP3    H228295   1.743   4.263   0.087  2.4030  1.5700 -1.1341
 2294TIP3   OH228296   5.664   5.376  15.568  0.4056  0.6266 -0.0928
 2294TIP3    H128297   5.729   5.437  15.602  2.2997 -1.2458 -0.0958
 2294TIP3    H228298   5.582   5.425  15.567  1.1898  2.1882  2.7731
 2295TIP3   OH228299   4.655   2.294  11.659  0.1153  0.5980  0.1367
 2295TIP3    H128300   4.737   2.340  11.641 -1.0904  2.5965 -0.5822
 2295TIP3    H228301   4.647   2.231  11.587  0.5492  1.0778 -0.3398
 2296TIP3   OH228302   0.540   1.561   4.004 -0.3680  0.5511  0.5792
 2296TIP3    H128303   0.451   1.579   4.034 -0.8270 -0.9854  0.2253
 2296TIP3    H228304   0.529   1.530   3.914  0.5875  0.8748  0.3418
 2297TIP3   OH228305   5.874   1.823   2.192  0.2944 -0.8699 -0.3592
 2297TIP3    H128306   5.815   1.870   2.133  0.5827 -1.4006 -1.0902
 2297TIP3    H228307   5.871   1.873   2.274 -2.5944 -1.8614  0.2936
 2298TIP3   OH228308   5.570   3.825   4.737 -0.3691 -0.0829  0.5297
 2298TIP3    H128309   5.501   3.759   4.747 -0.1006 -0.2236  1.5119
 2298TIP3    H228310   5.534   3.904   4.778 -0.2696  0.0846  0.2998
 2299TIP3   OH228311   6.372   6.524  15.568  0.5254 -0.1973  0.4086
 2299TIP3    H128312   6.329   6.504  15.651 -1.1213  0.7697 -0.1604
 2299TIP3    H228313   6.307   6.574  15.519  1.0165 -1.6704 -1.9192
 2300TIP3   OH228314   4.291   1.029  11.853 -0.1973 -0.1255  0.1658
 2300TIP3    H128315   4.309   1.082  11.775  0.3124 -0.5339 -0.0033
 2300TIP3    H228316   4.207   0.986  11.835  0.6462 -1.4507 -0.8627
 2301TIP3   OH228317   4.590   3.567  12.573  0.3047  0.0974  0.3926
 2301TIP3    H128318   4.661   3.572  12.638  0.0330  1.3571  0.6181
 2301TIP3    H228319   4.634   3.579  12.489  0.6189 -1.2503  0.3374
 2302TIP3   OH228320   2.847   0.123  13.487 -0.4123  0.0001 -0.5400
 2302TIP3    H128321   2.938   0.100  13.507 -0.2884 -0.6799 -1.7722
 2302TIP3    H228322   2.844   0.218  13.495  0.1235 -0.0645  0.6031
 2303TIP3   OH228323   3.216   2.011   1.590 -0.1337 -0.5698  1.1882
 2303TIP3    H128324   3.220   2.098   1.630  0.8811  0.2962 -0.6959
 2303TIP3    H228325   3.123   1.987   1.596 -0.6395  1.1452  0.7232
 2304TIP3   OH228326   1.962   2.802  15.166 -0.3156  0.2254 -0.6251
 2304TIP3    H128327   1.977   2.713  15.132 -1.2517  0.0438 -0.5676
 2304TIP3    H228328   1.941   2.854  15.089  0.6830  0.5101 -0.7193
 2305TIP3   OH228329   1.813   6.214  15.527 -0.6642 -0.3447  0.2885
 2305TIP3    H128330   1.866   6.231  15.605 -0.8869 -1.9998  0.8516
 2305TIP3    H228331   1.742   6.277  15.531  0.5383  1.0731  0.2015
 2306TIP3   OH228332   6.522   2.273  13.256  0.4866 -0.8994 -0.1253
 2306TIP3    H128333   6.557   2.218  13.326  0.3881  1.1900  1.6756
 2306TIP3    H228334   6.446   2.316  13.295 -0.8356 -1.1726 -2.2164
 2307TIP3   OH228335   5.994   6.539   6.088 -0.0500 -0.1333 -0.2271
 2307TIP3    H128336   6.051   6.600   6.136  0.0086  0.8232 -1.4299
 2307TIP3    H228337   5.934   6.505   6.153  0.7886  0.1841  0.7430
 2308TIP3   OH228338   3.718   2.314   1.012  0.6548  0.5219 -0.3537
 2308TIP3    H128339   3.715   2.224   1.046 -0.2830  0.2984 -0.9814
 2308TIP3    H228340   3.720   2.368   1.091 -0.3048 -0.0222  0.0798
 2309TIP3   OH228341   5.200   3.721   4.189 -0.1227  0.3666 -0.6562
 2309TIP3    H128342   5.187   3.671   4.109  2.1965 -0.2377 -0.7284
 2309TIP3    H228343   5.183   3.659   4.260 -0.3428  0.3828 -0.6931
 2310TIP3   OH228344   2.940   5.460   4.915 -0.2394 -0.6184  0.6195
 2310TIP3    H128345   2.938   5.381   4.861 -2.1159 -0.1543 -0.0973
 2310TIP3    H228346   2.866   5.450   4.975 -1.5555  1.2559 -0.5642
 2311TIP3   OH228347   3.838   3.913   4.056  0.1386  0.0323  0.5165
 2311TIP3    H128348   3.811   4.002   4.033 -1.1837 -0.4334  0.1689
 2311TIP3    H228349   3.931   3.909   4.034 -0.2570  0.6998 -1.4739
 2312TIP3   OH228350   2.878   0.859  17.073 -0.2559 -0.2620 -0.3624
 2312TIP3    H128351   2.940   0.922  17.111 -0.0582 -0.5966 -0.1193
 2312TIP3    H228352   2.876   0.880  16.980  0.0281 -0.0799 -0.3299
 2313TIP3   OH228353   6.708   0.001   4.674 -0.2529 -0.4311  0.6662
 2313TIP3    H128354   6.782  -0.034   4.722 -0.4631 -1.4754  0.2533
 2313TIP3    H228355   6.744   0.029   4.590 -0.2892 -0.7680  0.5371
 2314TIP3   OH228356   6.512   0.686   1.068  0.2054 -0.2277 -0.2677
 2314TIP3    H128357   6.507   0.779   1.048  1.4679  0.1416  0.9684
 2314TIP3    H228358   6.442   0.671   1.131  0.0538 -0.0954 -0.4047
 2315TIP3   OH228359   1.034   0.964  16.361  0.1390 -0.0436 -0.2752
 2315TIP3    H128360   0.955   0.937  16.407 -0.1991 -0.7825 -1.2579
 2315TIP3    H228361   1.049   0.896  16.296  0.8287  0.7653 -0.9913
 2316TIP3   OH228362   0.970   5.900  17.266  0.0280 -0.2988 -0.1655
 2316TIP3    H128363   1.043   5.959  17.247 -0.8567  1.3254  1.1186
 2316TIP3    H228364   0.910   5.954  17.318 -0.0041 -2.8222  2.7076
 2317TIP3   OH228365   2.756   1.392   3.980  0.0856  0.3065  0.2708
 2317TIP3    H128366   2.760   1.482   4.013  2.4326  0.4812 -0.3064
 2317TIP3    H228367   2.743   1.402   3.886 -1.0961 -0.0374  0.3780
 2318TIP3   OH228368   5.121   6.054  13.376 -0.4578 -0.3166 -0.3287
 2318TIP3    H128369   5.153   6.036  13.288  1.3072 -0.1154  0.2215
 2318TIP3    H228370   5.042   6.105  13.363 -0.1176 -0.1199 -1.8015
 2319TIP3   OH228371   6.658   2.025  13.403  0.5044 -0.1363  0.3381
 2319TIP3    H128372   6.724   2.060  13.463 -0.4708  2.5701 -0.0310
 2319TIP3    H228373   6.706   2.009  13.322  1.1856 -0.6783  0.8353
 2320TIP3   OH228374   5.424   2.383  15.989  0.1442 -0.6552 -0.0452
 2320TIP3    H128375   5.443   2.469  15.950  0.0949 -1.1566 -1.1858
 2320TIP3    H228376   5.349   2.399  16.047  0.7251  0.2599  0.4830
 2321TIP3   OH228377   4.490   2.523   4.272 -0.2612 -0.3106 -0.6003
 2321TIP3    H128378   4.483   2.557   4.361 -4.3527  0.5283 -1.0696
 2321TIP3    H228379   4.578   2.549   4.244  0.9561 -0.0774  2.9049
 2322TIP3   OH228380   5.581   4.691  14.253 -0.0510  0.2880  0.1438
 2322TIP3    H128381   5.646   4.671  14.186  0.4489  0.5548  0.5348
 2322TIP3    H228382   5.524   4.615  14.256 -0.3322  0.4556 -0.8757
 2323TIP3   OH228383   2.904   5.819   4.171  0.1115  0.2283 -0.5062
 2323TIP3    H128384   2.932   5.876   4.242 -1.8858  0.9466 -0.2246
 2323TIP3    H228385   2.972   5.828   4.104  0.4007  2.0859 -0.0145
 2324TIP3   OH228386   3.684   5.562   6.492  0.4149  0.1224  0.0620
 2324TIP3    H128387   3.626   5.489   6.515 -1.0144  1.5234  1.0734
 2324TIP3    H228388   3.773   5.527   6.504 -0.2373 -1.4007  0.6402
 2325TIP3   OH228389   0.157   4.918   1.309  0.2051 -0.1126 -0.1793
 2325TIP3    H128390   0.069   4.882   1.301  0.2002  0.0444 -0.8689
 2325TIP3    H228391   0.178   4.950   1.221  0.7457  0.3182  0.1010
 2326TIP3   OH228392   5.085   3.942  12.020  0.1346 -0.7079 -0.4836
 2326TIP3    H128393   5.010   3.882  12.019  0.1798 -0.7824 -0.0277
 2326TIP3    H228394   5.080   3.990  11.938 -1.9793  1.2387  0.6650
 2327TIP3   OH228395   4.005   0.955  11.477 -0.2286 -0.3185  0.3296
 2327TIP3    H128396   4.033   0.909  11.398 -0.5700 -1.8214  1.0289
 2327TIP3    H228397   3.922   0.995  11.453  0.1972  0.1607 -0.3783
 2328TIP3   OH228398   1.154   2.381   1.426  0.2710  0.0356 -0.2458
 2328TIP3    H128399   1.138   2.292   1.395 -2.8241  0.5485 -0.4115
 2328TIP3    H228400   1.108   2.386   1.510  0.5542  1.4034 -0.1455
 2329TIP3   OH228401   5.834   6.696   0.074 -0.2705  0.0519  0.6246
 2329TIP3    H128402   5.876   6.680   0.159 -1.5308  0.6802  1.4019
 2329TIP3    H228403   5.744   6.721   0.096 -0.4725  0.7772 -0.8788
 2330TIP3   OH228404   3.453   2.674   4.563  1.0393 -0.0553 -0.0235
 2330TIP3    H128405   3.387   2.695   4.629 -0.6685 -1.0228 -1.3381
 2330TIP3    H228406   3.405   2.629   4.494  3.1240 -0.9265 -1.0046
 2331TIP3   OH228407   3.767   4.472   0.149 -0.3335 -0.6584  0.6152
 2331TIP3    H128408   3.694   4.510   0.198 -0.6661 -0.9039  0.3181
 2331TIP3    H228409   3.801   4.404   0.206 -0.8991 -1.1332  0.3964
 2332TIP3   OH228410   4.873   1.326  15.764 -0.3694 -0.3899  0.2764
 2332TIP3    H128411   4.853   1.418  15.751  1.3935 -0.1519 -0.9955
 2332TIP3    H228412   4.800   1.279  15.724 -1.9889  0.3974  2.1519
 2333TIP3   OH228413   2.249   2.787   0.414 -0.5384  0.2394  0.1798
 2333TIP3    H128414   2.265   2.824   0.501 -1.1618  1.1831 -0.0896
 2333TIP3    H228415   2.159   2.756   0.417 -0.7242  0.7183 -0.2712
 2334TIP3   OH228416   4.288   3.947  12.961 -0.2600 -0.5125 -0.2799
 2334TIP3    H128417   4.304   3.917  13.051 -0.0737  2.8597  0.9407
 2334TIP3    H228418   4.367   3.921  12.913  1.2234  0.6153  1.4224
 2335TIP3   OH228419   2.745   2.156   4.641 -0.1229 -0.6975 -0.1512
 2335TIP3    H128420   2.683   2.224   4.615 -0.0195 -0.5280  0.0413
 2335TIP3    H228421   2.821   2.170   4.584  1.1064  1.2075  1.7888
 2336TIP3   OH228422   1.667   5.823  16.054 -0.0950  0.0038  0.1740
 2336TIP3    H128423   1.726   5.806  16.128 -0.6988 -1.6003  0.3121
 2336TIP3    H228424   1.597   5.877  16.091  0.0060 -0.1453  0.5881
 2337TIP3   OH228425   3.794   0.993   4.617  0.0262  0.3716  0.5562
 2337TIP3    H128426   3.886   1.021   4.609  0.0909  0.4640  1.4831
 2337TIP3    H228427   3.785   0.924   4.552  0.3279  1.3971 -0.6125
 2338TIP3   OH228428   5.917   2.138  11.742 -0.2380  0.1285 -0.3306
 2338TIP3    H128429   5.916   2.066  11.805  0.4489  1.3747  1.1526
 2338TIP3    H228430   5.824   2.157  11.727 -0.4231 -0.7499 -0.4113
 2339TIP3   OH228431   6.512   2.772  14.056  0.1829  0.6029 -0.4559
 2339TIP3    H128432   6.567   2.698  14.030 -0.7364 -0.4849  0.5627
 2339TIP3    H228433   6.553   2.806  14.135 -0.8405 -0.5751  0.6427
 2340TIP3   OH228434   0.211   0.343   2.004 -0.2360  0.3839 -0.7234
 2340TIP3    H128435   0.170   0.373   1.923 -0.5743 -0.3460 -0.8254
 2340TIP3    H228436   0.271   0.414   2.028  0.0488  0.4876 -1.7407
 2341TIP3   OH228437   1.944   4.965  16.473 -0.7268 -0.2318 -0.1290
 2341TIP3    H128438   1.997   5.036  16.511  0.8589 -1.9814  1.1528
 2341TIP3    H228439   1.892   5.007  16.405  1.6263  1.8204 -0.8095
 2342TIP3   OH228440   4.362   0.693  13.054 -0.5681 -0.4890  0.1659
 2342TIP3    H128441   4.337   0.604  13.080 -2.9617  0.0036 -0.1737
 2342TIP3    H228442   4.364   0.691  12.958 -0.4721 -0.2206  0.1608
 2343TIP3   OH228443   3.301   0.005  16.008  0.4461 -0.7603 -0.6502
 2343TIP3    H128444   3.370   0.022  15.943  1.0318 -1.0322 -0.1042
 2343TIP3    H228445   3.337   0.037  16.090 -1.2821  2.0179 -0.8118
 2344TIP3   OH228446   1.120   3.146   5.663  0.2333 -0.3946  0.0151
 2344TIP3    H128447   1.144   3.119   5.752 -0.0727  1.1592  0.5872
 2344TIP3    H228448   1.027   3.125   5.655 -0.3143  1.5539  0.9001
 2345TIP3   OH228449   5.756   1.580   4.133  0.1267 -0.5364  0.4323
 2345TIP3    H128450   5.827   1.638   4.106  0.2323 -2.5573 -4.7778
 2345TIP3    H228451   5.798   1.516   4.190  1.5311  0.5230  0.6532
 2346TIP3   OH228452   0.189   5.577   5.903  0.3842  0.0647  0.2478
 2346TIP3    H128453   0.139   5.495   5.906  0.3314  0.1191  1.0299
 2346TIP3    H228454   0.176   5.609   5.814 -1.2812  0.2651  0.5299
 2347TIP3   OH228455   2.936   4.740   2.127 -0.3535  0.2159 -0.5287
 2347TIP3    H128456   3.000   4.760   2.195  0.4584 -2.1501 -0.5254
 2347TIP3    H228457   2.987   4.704   2.055 -1.6326 -1.9838 -0.4314
 2348TIP3   OH228458   3.145   3.998   3.483 -0.2884 -0.2567  0.1295
 2348TIP3    H128459   3.201   4.037   3.550  0.1589 -0.5725 -0.0564
 2348TIP3    H228460   3.056   4.010   3.516 -0.2944  2.3525 -0.6401
 2349TIP3   OH228461   6.130   3.272  12.715  0.5332  0.3222 -0.1835
 2349TIP3    H128462   6.200   3.335  12.734  1.5832  0.0246 -2.5791
 2349TIP3    H228463   6.059   3.325  12.680  1.1779  0.3063 -1.6044
 2350TIP3   OH228464   1.736   1.011   2.277  0.2825 -0.0956  0.0849
 2350TIP3    H128465   1.652   1.020   2.231 -0.0853  0.2124  0.8014
 2350TIP3    H228466   1.721   0.942   2.341  1.5234 -2.2868 -1.8447
 2351TIP3   OH228467   0.044   1.411   4.900  0.4943 -0.4135  0.0231
 2351TIP3    H128468   0.059   1.334   4.844  1.1383  0.5472 -1.1694
 2351TIP3    H228469  -0.025   1.460   4.856  0.9900  0.3485  0.0696
 2352TIP3   OH228470   3.421   0.926  13.140  0.3671  0.1734 -0.5328
 2352TIP3    H128471   3.373   0.979  13.203 -2.4655  1.3427 -3.3818
 2352TIP3    H228472   3.375   0.842  13.138  1.2046 -0.3058 -0.1999
 2353TIP3   OH228473   5.972   0.479   0.143 -0.2597  0.1824 -0.3625
 2353TIP3    H128474   5.952   0.537   0.069  0.3069  0.5276 -0.2485
 2353TIP3    H228475   5.915   0.510   0.213 -0.7455 -0.0987 -0.6235
 2354TIP3   OH228476   0.646   1.619  10.479  0.1012  0.4934  0.6065
 2354TIP3    H128477   0.677   1.529  10.492  3.2102  1.2578 -0.5586
 2354TIP3    H228478   0.623   1.623  10.387 -1.2453  0.6048  0.9344
 2355TIP3   OH228479   3.350   2.686   0.179 -0.2589 -0.0366 -0.8709
 2355TIP3    H128480   3.380   2.720   0.262  0.6456 -2.2215 -0.2296
 2355TIP3    H228481   3.412   2.720   0.114  0.0675  0.2609 -0.4039
 2356TIP3   OH228482   4.932   5.303  14.298 -0.1493  0.2359 -0.0175
 2356TIP3    H128483   4.998   5.372  14.286 -1.3252  1.7702  1.7727
 2356TIP3    H228484   4.921   5.297  14.393 -1.8101 -0.7414 -0.2411
 2357TIP3   OH228485   3.666   4.713   1.768  0.2737 -0.0849 -0.2754
 2357TIP3    H128486   3.719   4.754   1.700  1.5727  1.0002  1.3141
 2357TIP3    H228487   3.720   4.641   1.801 -0.9895 -1.6221 -1.3828
 2358TIP3   OH228488   4.883   6.403   4.897 -0.3587 -0.4236  0.7140
 2358TIP3    H128489   4.895   6.358   4.814  1.1769 -2.3331  1.8819
 2358TIP3    H228490   4.814   6.352   4.941 -1.7591  1.0642  0.3516
 2359TIP3   OH228491   4.261   1.763   4.686 -0.0249  0.0942 -0.0604
 2359TIP3    H128492   4.323   1.712   4.633 -1.5092  0.2039 -2.0289
 2359TIP3    H228493   4.316   1.812   4.747  1.7972 -0.0642 -1.4868
 2360TIP3   OH228494   6.237   2.578   0.307  0.5774  0.2236 -0.1870
 2360TIP3    H128495   6.166   2.514   0.303  0.4062  0.4670 -1.2716
 2360TIP3    H228496   6.222   2.636   0.232  2.2687 -0.0809 -0.7959
 2361TIP3   OH228497   1.297   3.080  13.611  0.5054  0.0533  0.3608
 2361TIP3    H128498   1.266   3.160  13.568 -0.3095  0.0462  0.9128
 2361TIP3    H228499   1.371   3.109  13.664  1.4895  0.0727 -0.9658
 2362TIP3   OH228500   1.685   3.151   4.529  0.5725  0.3802  0.2614
 2362TIP3    H128501   1.711   3.076   4.476 -2.2586 -1.8839  1.7755
 2362TIP3    H228502   1.647   3.112   4.608 -0.9701  3.4335  1.1671
 2363TIP3   OH228503   4.400   6.716   4.124 -0.2065 -0.2939 -0.2437
 2363TIP3    H128504   4.464   6.672   4.179  0.2244  0.7355  0.1050
 2363TIP3    H228505   4.430   6.807   4.121 -1.5379  0.1664 -0.2352
 2364TIP3   OH228506   6.744   2.098   0.005 -0.9838 -0.3628  0.0829
 2364TIP3    H128507   6.752   2.193   0.002 -0.2577 -0.3282  1.7106
 2364TIP3    H228508   6.660   2.082   0.048 -0.7011 -0.4244  0.6266
 2365TIP3   OH228509   5.075   6.085  17.107 -0.0596 -0.2358  0.7078
 2365TIP3    H128510   5.020   6.013  17.136 -2.0316  1.1180  0.5883
 2365TIP3    H228511   5.104   6.128  17.187 -0.4034 -0.1182  0.7732
 2366TIP3   OH228512   0.600   0.062  12.073 -0.3278  0.3810  0.3265
 2366TIP3    H128513   0.634   0.099  11.992  2.0143  1.3848  1.6706
 2366TIP3    H228514   0.530   0.003  12.045  0.3495  0.7403 -2.3907
 2367TIP3   OH228515   1.646   1.613  17.096  0.1000 -0.2459  0.8218
 2367TIP3    H128516   1.716   1.644  17.154  1.3199 -1.1329 -0.1085
 2367TIP3    H228517   1.672   1.643  17.009 -0.4306 -0.9791  0.3914
 2368TIP3   OH228518   2.225   3.126  11.758 -0.0248 -0.4485 -0.0100
 2368TIP3    H128519   2.204   3.149  11.848 -0.6586  0.3562 -0.3612
 2368TIP3    H228520   2.149   3.077  11.727 -0.0040 -0.3330 -0.2469
 2369TIP3   OH228521   4.207   0.587  12.798 -0.2126 -0.2209  0.0444
 2369TIP3    H128522   4.223   0.509  12.744  0.5082 -0.6491  0.8499
 2369TIP3    H228523   4.117   0.578  12.828  0.0476 -1.0364  0.5906
 2370TIP3   OH228524   2.795   0.967  12.376 -0.2295  0.1084 -0.1819
 2370TIP3    H128525   2.873   1.018  12.396  0.3799 -0.9686  0.2650
 2370TIP3    H228526   2.807   0.939  12.285 -0.5702  0.7497 -0.4313
 2371TIP3   OH228527   1.643   3.244  16.319  0.5605 -0.5635  0.2696
 2371TIP3    H128528   1.705   3.268  16.388 -0.2780  0.1952  0.7762
 2371TIP3    H228529   1.696   3.200  16.254  1.3583 -1.4304  1.4601
 2372TIP3   OH228530   1.990   6.582  15.514  0.0149  0.1853 -0.4435
 2372TIP3    H128531   2.063   6.593  15.453  0.6776 -0.9229  0.1153
 2372TIP3    H228532   2.006   6.498  15.556 -2.0240 -0.4858 -0.8787
 2373TIP3   OH228533   1.686   2.479  13.809  0.0659  0.1141 -0.1507
 2373TIP3    H128534   1.682   2.535  13.731  0.6371  1.6560  0.8833
 2373TIP3    H228535   1.760   2.512  13.859 -1.2901  0.2872  1.8861
 2374TIP3   OH228536   0.085   6.328   3.706  0.2121 -0.1520  0.0591
 2374TIP3    H128537   0.032   6.251   3.687 -0.0814  0.3726 -1.3404
 2374TIP3    H228538   0.135   6.304   3.784 -0.2064 -1.5781 -0.0870
 2375TIP3   OH228539   6.589   0.735  14.939  0.3267  0.1705 -0.1548
 2375TIP3    H128540   6.527   0.755  14.868 -0.1585 -0.4879  0.0692
 2375TIP3    H228541   6.536   0.689  15.004  1.1605 -0.8642 -0.1880
 2376TIP3   OH228542   5.634   2.417   3.553  0.6431  0.1694  0.4643
 2376TIP3    H128543   5.665   2.329   3.530  2.1208  0.9042 -0.4623
 2376TIP3    H228544   5.714   2.468   3.566 -0.1222  2.1192 -1.8348
 2377TIP3   OH228545   2.031   1.979  10.714  0.2720 -0.0605  0.2419
 2377TIP3    H128546   2.036   1.895  10.760 -0.6653  0.8415  2.0981
 2377TIP3    H228547   1.939   1.985  10.688 -0.0831  1.0850  1.6104
 2378TIP3   OH228548   1.522   6.699  16.481 -0.3973 -0.0039 -0.7025
 2378TIP3    H128549   1.591   6.760  16.504 -0.7329  0.2871 -0.4639
 2378TIP3    H228550   1.442   6.738  16.516 -0.5378 -0.8440 -0.0582
 2379TIP3   OH228551   1.724   6.313  16.052  0.0483 -0.0197 -0.0873
 2379TIP3    H128552   1.776   6.305  16.132  1.3408 -0.6478 -0.9518
 2379TIP3    H228553   1.732   6.228  16.009 -2.1569 -0.3158 -0.0264
 2380TIP3   OH228554   0.445   1.314  11.935 -0.3620  0.4431 -0.6012
 2380TIP3    H128555   0.403   1.399  11.950 -0.5637  0.1257  0.7704
 2380TIP3    H228556   0.378   1.261  11.891 -0.5082  0.7336 -0.7273
 2381TIP3   OH228557   6.721   2.173   1.252 -0.5024  0.6125 -0.2175
 2381TIP3    H128558   6.750   2.201   1.165 -2.4273  0.1801 -1.0290
 2381TIP3    H228559   6.635   2.135   1.238  0.4208 -2.4255  1.3847
 2382TIP3   OH228560   3.319   3.006  11.305 -0.1674 -0.3649 -0.2333
 2382TIP3    H128561   3.294   3.068  11.236 -0.0152 -0.1990 -0.1433
 2382TIP3    H228562   3.237   2.971  11.338 -0.3573  0.9068  0.7362
 2383TIP3   OH228563   1.908   0.652   3.560 -0.1812 -0.6452 -0.2591
 2383TIP3    H128564   1.999   0.662   3.532  0.4684  1.0472  2.1823
 2383TIP3    H228565   1.873   0.741   3.559 -0.0917 -0.3550  3.9571
 2384TIP3   OH228566   1.004   5.740   0.425  0.1751 -0.1375  0.4218
 2384TIP3    H128567   0.942   5.683   0.470  1.7765 -1.0839  1.5591
 2384TIP3    H228568   0.995   5.718   0.332  0.9124 -2.5029  0.8382
 2385TIP3   OH228569   3.909   4.260  13.224  0.1740  0.3315  0.1605
 2385TIP3    H128570   3.901   4.266  13.129 -1.4559 -0.6774  0.2042
 2385TIP3    H228571   3.984   4.201  13.238  0.2513  0.2662 -0.4926
 2386TIP3   OH228572   3.459   4.185   3.383 -0.3263 -0.8015  0.2773
 2386TIP3    H128573   3.437   4.096   3.356  0.8112 -1.3588  1.1227
 2386TIP3    H228574   3.394   4.240   3.338 -1.5650 -2.1033  0.4041
 2387TIP3   OH228575   4.150   4.806  16.003 -0.1573 -0.0355  0.4932
 2387TIP3    H128576   4.109   4.893  16.001  2.0366  1.0462  0.4368
 2387TIP3    H228577   4.238   4.821  16.037  0.0502 -2.3628  1.1493
 2388TIP3   OH228578   0.684   6.453  16.815  0.0604  0.2172  0.1636
 2388TIP3    H128579   0.603   6.417  16.778  0.8609  0.8180 -2.3763
 2388TIP3    H228580   0.661   6.542  16.842 -0.2853  0.1899 -0.0374
 2389TIP3   OH228581   4.292   3.311   0.878  0.1435 -0.6489 -0.0597
 2389TIP3    H128582   4.340   3.324   0.959  0.3513 -0.3562 -0.2280
 2389TIP3    H228583   4.357   3.271   0.819  0.9349  1.9327 -1.0731
 2390TIP3   OH228584   5.091   4.044   2.133 -0.1432  0.2936 -0.1330
 2390TIP3    H128585   5.183   4.066   2.123  0.0118 -0.5448 -0.6185
 2390TIP3    H228586   5.058   4.039   2.043 -0.8914  1.5006  0.0512
 2391TIP3   OH228587   1.397   3.344  13.465 -0.5289 -0.3391 -0.0389
 2391TIP3    H128588   1.373   3.321  13.375 -0.2878  2.6183 -0.9806
 2391TIP3    H228589   1.489   3.317  13.472 -0.4654 -0.3404 -0.7695
 2392TIP3   OH228590   6.510   4.999   2.636 -0.2304  0.5045 -0.3877
 2392TIP3    H128591   6.519   5.094   2.643  0.5635  0.3088  3.4110
 2392TIP3    H228592   6.418   4.986   2.611 -0.2668  2.2352 -1.2989
 2393TIP3   OH228593   0.087   5.330   0.735  0.3883 -0.3216  0.2173
 2393TIP3    H128594   0.119   5.401   0.791 -0.3188 -0.4208  0.7543
 2393TIP3    H228595   0.043   5.375   0.663  0.5380 -0.2083  0.1946
 2394TIP3   OH228596   0.774   1.661   5.054  0.0813 -0.4762  0.2413
 2394TIP3    H128597   0.712   1.639   5.123  0.7952 -0.5148  0.8925
 2394TIP3    H228598   0.727   1.644   4.973 -1.5722  1.6807  0.6455
 2395TIP3   OH228599   6.107   3.397  14.693 -0.2068  0.0262  0.4799
 2395TIP3    H128600   6.188   3.442  14.714  0.2958  0.1094 -1.4335
 2395TIP3    H228601   6.132   3.305  14.686 -0.0260  0.1729 -1.1166
 2396TIP3   OH228602   3.710   4.652   5.575  0.3666 -0.0198  0.1102
 2396TIP3    H128603   3.627   4.699   5.568  0.5503  0.3619  0.4936
 2396TIP3    H228604   3.760   4.681   5.499  1.1528  1.7430  1.2620
 2397TIP3   OH228605   4.252   1.984   2.776  0.0140 -0.1310 -0.4489
 2397TIP3    H128606   4.179   1.958   2.720  0.0550 -0.9915 -0.1204
 2397TIP3    H228607   4.286   2.063   2.735 -2.1798  1.3292  0.3369
 2398TIP3   OH228608   1.668   1.788  14.299  0.8780  0.3142 -0.7807
 2398TIP3    H128609   1.601   1.838  14.251  1.3648  0.4823 -1.2917
 2398TIP3    H228610   1.626   1.704  14.318  0.3178  0.6340 -0.5867
 2399TIP3   OH228611   5.731   3.729  14.357  0.2211 -0.0037 -0.3316
 2399TIP3    H128612   5.748   3.816  14.321  0.9188  0.2076  0.4729
 2399TIP3    H228613   5.787   3.670  14.306 -0.9181 -0.1326 -1.4843
 2400TIP3   OH228614   6.234   5.674  10.735  0.0482  0.2072 -0.1693
 2400TIP3    H128615   6.269   5.760  10.759  1.6293 -0.8453  1.5083
 2400TIP3    H228616   6.308   5.627  10.697 -0.5901 -0.6902 -0.3510
 2401TIP3   OH228617   4.121   2.453   2.014 -0.0014 -0.5974  0.5896
 2401TIP3    H128618   4.137   2.546   2.031 -3.6604  0.5811 -1.4125
 2401TIP3    H228619   4.130   2.411   2.100  2.2722  1.4365  1.4509
 2402TIP3   OH228620   3.267   3.957  14.177  0.5469  0.0651 -0.1739
 2402TIP3    H128621   3.200   3.983  14.113  1.3564 -1.5377 -1.7454
 2402TIP3    H228622   3.247   3.865  14.196  2.2270 -0.4067 -0.5919
 2403TIP3   OH228623   6.167   6.331  17.011 -0.5355  0.1237  0.0267
 2403TIP3    H128624   6.197   6.319  17.101 -0.8814 -0.3465  0.0807
 2403TIP3    H228625   6.240   6.299  16.957 -0.9688 -1.1531  0.1615
 2404TIP3   OH228626   3.852   4.156  13.846 -0.2703 -0.0872  0.5235
 2404TIP3    H128627   3.884   4.217  13.781  1.2201 -1.7989 -0.4461
 2404TIP3    H228628   3.805   4.089  13.796 -1.4853 -0.0097  1.5015
 2405TIP3   OH228629   6.558   0.982   0.870  0.6937  0.7589 -0.4001
 2405TIP3    H128630   6.631   0.921   0.881  0.2195  0.4128  1.2823
 2405TIP3    H228631   6.537   0.979   0.777  1.0528 -1.2576 -0.4678
 2406TIP3   OH228632   6.547   6.430  15.856  0.5480  0.2561 -0.2376
 2406TIP3    H128633   6.593   6.401  15.934 -0.4762  0.4299  0.4539
 2406TIP3    H228634   6.573   6.367  15.788  1.3926  0.0681  0.2551
 2407TIP3   OH228635   4.717   1.403   1.999 -0.2389  0.5477  0.4955
 2407TIP3    H128636   4.736   1.467   1.930 -0.4680 -0.3893 -0.4710
 2407TIP3    H228637   4.721   1.453   2.080 -0.6872  1.8378 -0.2510
 2408TIP3   OH228638   5.742   6.731   5.810 -0.5700 -0.3405 -0.2328
 2408TIP3    H128639   5.703   6.812   5.844 -3.2654 -0.4106 -2.6949
 2408TIP3    H228640   5.822   6.759   5.767  0.8775  0.2658  2.5984
 2409TIP3   OH228641   6.456   5.357  15.026  1.1045  0.0146  0.4039
 2409TIP3    H128642   6.397   5.292  15.064 -0.4699  0.3020 -1.4274
 2409TIP3    H228643   6.447   5.434  15.083  1.1990 -0.5722  1.2311
 2410TIP3   OH228644   3.770   5.504  12.149 -1.1076 -0.4425 -0.5711
 2410TIP3    H128645   3.860   5.502  12.184 -1.8792 -0.4192  1.5763
 2410TIP3    H228646   3.741   5.594  12.164 -1.5995 -0.5306 -0.9863
 2411TIP3   OH228647   6.353   5.614  12.055 -0.7221  0.0184 -0.6204
 2411TIP3    H128648   6.314   5.527  12.044 -0.3724 -0.4552  1.5042
 2411TIP3    H228649   6.447   5.600  12.042 -0.6300  0.0077  0.0342
 2412TIP3   OH228650   4.083   6.067  16.027 -0.3594 -0.0249 -0.2016
 2412TIP3    H128651   4.108   6.110  15.945  2.2516 -0.7736  0.1372
 2412TIP3    H228652   4.100   6.133  16.094 -0.0571 -0.2821 -0.0274
 2413TIP3   OH228653   3.294   3.656  15.335 -0.5800  0.1937 -0.3301
 2413TIP3    H128654   3.273   3.664  15.242 -1.0644  1.5175 -0.1270
 2413TIP3    H228655   3.223   3.603  15.371 -0.9923  0.5943 -0.5331
 2414TIP3   OH228656   5.064   2.317   4.278 -0.3316 -0.3181 -0.5976
 2414TIP3    H128657   5.069   2.290   4.186 -0.2237 -0.0932 -0.6587
 2414TIP3    H228658   5.001   2.256   4.318 -0.4147 -0.3850 -0.8304
 2415TIP3   OH228659   4.165   0.849  15.061  0.2604 -0.2664  0.1063
 2415TIP3    H128660   4.219   0.856  15.140 -0.4068 -0.6087  0.6033
 2415TIP3    H228661   4.106   0.924  15.066  1.1693  0.5253 -0.8161
 2416TIP3   OH228662   4.386   4.026  14.276  0.0272 -0.3186  0.1054
 2416TIP3    H128663   4.422   4.030  14.187  0.5573  0.5014  0.3432
 2416TIP3    H228664   4.293   4.046  14.265  0.0411 -0.4701 -0.2961
 2417TIP3   OH228665   4.832   4.504  11.459  0.7799  0.8652 -0.4243
 2417TIP3    H128666   4.763   4.565  11.433 -1.9257 -1.6406  0.3414
 2417TIP3    H228667   4.854   4.457  11.378 -0.0773  0.1823 -0.2828
 2418TIP3   OH228668   4.514   5.495   3.331  0.4299 -0.3777  0.0889
 2418TIP3    H128669   4.576   5.553   3.287  0.9399  0.5532  1.9528
 2418TIP3    H228670   4.439   5.493   3.272  1.3236  0.3096 -1.1317
 2419TIP3   OH228671   1.806   0.540   2.356 -0.0329  0.1211  0.2678
 2419TIP3    H128672   1.833   0.519   2.446 -0.4934 -0.7858  0.2096
 2419TIP3    H228673   1.711   0.527   2.356  0.1364 -1.3437 -0.7189
 2420TIP3   OH228674   0.040   4.532  16.294 -0.4075  0.0495  0.0116
 2420TIP3    H128675   0.047   4.467  16.224 -0.5525  0.9914 -0.8939
 2420TIP3    H228676   0.042   4.616  16.249 -3.5469  0.6872  0.8370
 2421TIP3   OH228677   4.052   0.504  14.674 -0.1846  0.0383 -0.0646
 2421TIP3    H128678   4.054   0.600  14.670  0.5497  0.1358  1.8388
 2421TIP3    H228679   4.138   0.479  14.706 -0.6401 -1.2148  0.2498
 2422TIP3   OH228680   5.212   5.648   2.013 -0.4334  0.2624  0.3168
 2422TIP3    H128681   5.137   5.700   1.985  0.1931  0.9481 -0.1274
 2422TIP3    H228682   5.269   5.645   1.936  1.5302  2.5602  1.5525
 2423TIP3   OH228683   2.321   3.026  16.579  0.7036 -0.0896 -0.2379
 2423TIP3    H128684   2.279   3.010  16.495  1.5957  0.8769 -0.8829
 2423TIP3    H228685   2.406   2.982  16.573 -0.1509 -2.0916  1.0819
 2424TIP3   OH228686   0.401   0.377   4.938 -0.7531 -0.0810 -0.1713
 2424TIP3    H128687   0.375   0.469   4.932 -0.0194  0.0962 -0.7047
 2424TIP3    H228688   0.363   0.347   5.021 -1.8405  0.4234 -0.4740
 2425TIP3   OH228689   5.859   5.230  14.611  0.2675  0.0456 -0.6691
 2425TIP3    H128690   5.864   5.179  14.692  1.2794  1.7927  0.4234
 2425TIP3    H228691   5.841   5.165  14.543  1.5609 -1.7748  0.6458
 2426TIP3   OH228692   0.935   5.310   0.213  0.1299  0.2555 -0.2524
 2426TIP3    H128693   1.023   5.307   0.252  0.3938 -0.7133 -0.8941
 2426TIP3    H228694   0.951   5.321   0.119 -0.5145  3.3010 -0.1131
 2427TIP3   OH228695   6.678   1.301  15.816  0.1700 -0.1986  0.8407
 2427TIP3    H128696   6.771   1.306  15.838  1.3251 -0.8960 -3.0681
 2427TIP3    H228697   6.658   1.207  15.817  0.0611 -0.1979 -0.0511
 2428TIP3   OH228698   3.516   6.441  16.041 -0.1192  0.3485  0.4211
 2428TIP3    H128699   3.511   6.491  16.122 -0.6434  1.3670 -0.2203
 2428TIP3    H228700   3.550   6.502  15.976 -0.6746 -0.1455 -0.3631
 2429TIP3   OH228701   1.064   2.228  12.704 -0.0735  0.1873  0.0138
 2429TIP3    H128702   1.053   2.316  12.668  0.0931  1.0345  1.9198
 2429TIP3    H228703   0.987   2.180  12.674 -0.1845  0.9671 -1.0175
 2430TIP3   OH228704   6.174   0.106   5.282  0.0970  0.2883 -0.0546
 2430TIP3    H128705   6.096   0.075   5.237 -0.0428  0.1950  0.2464
 2430TIP3    H228706   6.161   0.080   5.374 -0.4015  1.9598  0.3749
 2431TIP3   OH228707   3.093   5.238  16.498 -0.8703  0.1153 -0.2219
 2431TIP3    H128708   3.086   5.150  16.462 -2.3768  1.1598 -2.7549
 2431TIP3    H228709   3.147   5.286  16.435  1.0473  0.7721  1.7651
 2432TIP3   OH228710   5.406   5.391   0.632 -0.0092  0.0844  0.1181
 2432TIP3    H128711   5.434   5.416   0.720 -2.1035  2.5431  0.2130
 2432TIP3    H228712   5.487   5.372   0.585  1.2417 -0.0895  2.2324
 2433TIP3   OH228713   0.529   0.893   1.494 -0.1507 -0.1437 -0.0175
 2433TIP3    H128714   0.539   0.944   1.575 -0.3902  0.9480 -0.6593
 2433TIP3    H228715   0.482   0.951   1.434 -1.4613 -1.5394 -0.4105
 2434TIP3   OH228716   2.092   2.819  13.816 -0.1736  0.3074 -0.2417
 2434TIP3    H128717   2.165   2.842  13.873 -2.6936  0.8110  3.1385
 2434TIP3    H228718   2.055   2.740  13.856 -0.0675 -1.4370 -3.3451
 2435TIP3   OH228719   6.631   2.451  13.123  0.2732 -0.2927  0.5013
 2435TIP3    H128720   6.599   2.375  13.172 -3.4076  1.6383  1.4998
 2435TIP3    H228721   6.674   2.506  13.189  1.0390 -0.5220  0.2053
 2436TIP3   OH228722   3.209   1.894  12.070  0.6033 -0.4284  0.2896
 2436TIP3    H128723   3.294   1.874  12.108  0.0339 -2.2430  0.7169
 2436TIP3    H228724   3.200   1.833  11.997  0.4363  1.0275 -0.9634
 2437TIP3   OH228725   0.849   2.542  13.307  0.3687  0.3721 -0.1179
 2437TIP3    H128726   0.872   2.530  13.214  1.0704  1.6546 -0.1382
 2437TIP3    H228727   0.922   2.593  13.343  0.4829 -0.7616  1.3328
 2438TIP3   OH228728   1.929   1.649   2.894 -0.2522 -0.4847  0.1127
 2438TIP3    H128729   1.911   1.654   2.988 -0.7934  2.4093 -0.0569
 2438TIP3    H228730   2.023   1.632   2.889 -0.4811 -2.2964  1.1166
 2439TIP3   OH228731   4.821   0.494   1.925  0.5571  0.0332  0.0240
 2439TIP3    H128732   4.860   0.574   1.888  0.7942 -0.6573 -1.3041
 2439TIP3    H228733   4.793   0.519   2.013 -1.6959  2.3331 -1.2105
 2440TIP3   OH228734   4.291   5.837   5.680 -0.0423  0.0872  0.5308
 2440TIP3    H128735   4.364   5.856   5.622 -0.7314 -0.6826 -0.6196
 2440TIP3    H228736   4.267   5.747   5.660 -0.4724 -0.1048  1.8279
 2441TIP3   OH228737   3.095   3.607  15.713  0.2491  0.1705  0.3109
 2441TIP3    H128738   3.156   3.563  15.653 -0.0615 -1.4396  1.1225
 2441TIP3    H228739   3.108   3.563  15.797 -1.1257  0.6535  0.8064
 2442TIP3   OH228740   6.610   1.798   2.995  0.0507 -0.0204 -0.1438
 2442TIP3    H128741   6.566   1.774   2.913  2.6934 -1.9944 -1.1436
 2442TIP3    H228742   6.596   1.722   3.052 -0.5973  0.7646  0.7784
 2443TIP3   OH228743   4.068   5.046   0.226  0.6140 -0.4878 -0.2684
 2443TIP3    H128744   4.138   5.009   0.279 -1.0686 -1.1918  1.5842
 2443TIP3    H228745   4.016   5.097   0.288 -0.5341 -0.0252 -1.5749
 2444TIP3   OH228746   1.554   3.796   5.416  0.2404  0.0632 -0.0229
 2444TIP3    H128747   1.561   3.705   5.445 -1.3255  0.0587  0.4482
 2444TIP3    H228748   1.504   3.839   5.485 -0.2747  0.9379 -0.9171
 2445TIP3   OH228749   5.111   6.496  14.475  0.0196  0.5457  0.1378
 2445TIP3    H128750   5.094   6.589  14.458 -1.5817  0.1318 -0.8216
 2445TIP3    H228751   5.095   6.453  14.391  0.8718 -0.5942  0.5304
 2446TIP3   OH228752   5.831   4.682  15.389 -0.2042  0.0523  0.0334
 2446TIP3    H128753   5.910   4.642  15.352 -0.8199 -0.6471 -0.5588
 2446TIP3    H228754   5.767   4.611  15.391 -0.4152  0.2602  1.7790
 2447TIP3   OH228755   3.944   5.055  12.464  0.1621  0.4548  0.1012
 2447TIP3    H128756   3.931   4.971  12.508 -0.1165  0.2521 -0.3601
 2447TIP3    H228757   3.887   5.116  12.511  0.1843  0.3367  0.2843
 2448TIP3   OH228758   6.227   3.136  17.388  0.3178 -0.8377 -0.1957
 2448TIP3    H128759   6.265   3.096  17.310 -0.7576 -0.1194 -1.1137
 2448TIP3    H228760   6.152   3.080  17.409 -0.7502  0.2059 -1.0512
 2449TIP3   OH228761   5.121   2.957  12.381  0.2727  1.0866  0.1982
 2449TIP3    H128762   5.196   2.972  12.324  0.0733 -0.4922 -0.5449
 2449TIP3    H228763   5.132   3.019  12.453  2.8412  0.1940  0.6696
 2450TIP3   OH228764   2.533   4.332  16.860 -0.1575 -0.7209  0.4956
 2450TIP3    H128765   2.518   4.324  16.766 -2.7300 -2.0103  0.8957
 2450TIP3    H228766   2.580   4.414  16.871  1.1031 -1.0183 -1.9565
 2451TIP3   OH228767   0.053   4.869  13.873  0.1346 -0.0661 -0.4292
 2451TIP3    H128768  -0.018   4.805  13.870 -1.7579  1.9343 -0.3521
 2451TIP3    H228769   0.049   4.906  13.961  2.3651 -1.0044  0.1389
 2452TIP3   OH228770   5.583   5.821  15.612  0.2535 -0.8471 -0.1462
 2452TIP3    H128771   5.512   5.873  15.574  1.3536  0.7650 -0.1205
 2452TIP3    H228772   5.546   5.786  15.693  0.1498  2.0411  1.1926
 2453TIP3   OH228773   5.954   2.493   1.232  0.2271  0.0460  0.2914
 2453TIP3    H128774   5.910   2.445   1.302  0.9804 -0.2601  0.5702
 2453TIP3    H228775   6.047   2.482   1.250  0.5225 -1.8380 -1.9300
 2454TIP3   OH228776   3.550   0.046   5.931  0.3430  0.8911  0.7170
 2454TIP3    H128777   3.565   0.140   5.922 -1.3238  0.9863 -3.4747
 2454TIP3    H228778   3.457   0.038   5.949  0.5371  0.0293  1.3837
 2455TIP3   OH228779   5.843   1.794  17.322  0.2224 -0.7750  0.4117
 2455TIP3    H128780   5.779   1.841  17.376  1.6466  0.0939  1.4051
 2455TIP3    H228781   5.886   1.863  17.271 -0.4257 -1.4819 -1.1634
 2456TIP3   OH228782   4.682   4.290   0.003 -0.1483  0.3314 -0.1968
 2456TIP3    H128783   4.775   4.265   0.004  0.0564  1.0509  0.7606
 2456TIP3    H228784   4.646   4.248   0.081 -0.3615  0.9708  0.0540
 2457TIP3   OH228785   5.001   3.162  13.885 -0.0390  0.2300 -0.8748
 2457TIP3    H128786   4.908   3.173  13.900 -0.3032 -0.0105 -2.1869
 2457TIP3    H228787   5.031   3.106  13.956 -0.4056  2.1412  0.8676
 2458TIP3   OH228788   4.632   4.970   6.845  0.4367 -0.2489 -0.0102
 2458TIP3    H128789   4.725   4.951   6.831  0.1790 -0.4234 -1.7961
 2458TIP3    H228790   4.600   4.896   6.897  1.1221 -0.6348 -0.1171
 2459TIP3   OH228791   2.341   0.015  16.216  0.8506  0.2685  0.2841
 2459TIP3    H128792   2.426   0.022  16.260  1.5110  0.6195 -1.0056
 2459TIP3    H228793   2.299   0.099  16.232  1.2669  0.5537 -0.1094
 2460TIP3   OH228794   1.992   0.670  16.421  0.7231 -0.2534  0.0301
 2460TIP3    H128795   2.041   0.659  16.339  1.8174 -1.8439  0.8442
 2460TIP3    H228796   2.039   0.739  16.468  1.0636 -0.4624 -0.0006
 2461TIP3   OH228797   3.488   4.135  13.308  0.3142 -0.2033 -0.5508
 2461TIP3    H128798   3.459   4.046  13.289 -0.1651 -0.4774  1.3302
 2461TIP3    H228799   3.451   4.188  13.237  1.6397 -1.6212 -2.4241
 2462TIP3   OH228800   2.870   2.638  15.139  0.1256 -0.0799  0.1915
 2462TIP3    H128801   2.808   2.565  15.128 -0.6671  0.6574 -0.4006
 2462TIP3    H228802   2.831   2.692  15.208 -0.0809  0.5591 -0.4057
 2463TIP3   OH228803   6.356   4.418   4.668 -0.4467  0.2572 -0.0931
 2463TIP3    H128804   6.362   4.491   4.731 -2.0716  0.6816 -0.3947
 2463TIP3    H228805   6.373   4.340   4.721 -0.1316  0.7364  0.5377
 2464TIP3   OH228806   6.154   2.668   2.059 -0.3010 -0.3141 -0.5506
 2464TIP3    H128807   6.147   2.721   2.139  1.1261 -0.6597 -0.1607
 2464TIP3    H228808   6.227   2.707   2.011 -1.6072  0.3296 -2.0589
 2465TIP3   OH228809   3.455   4.277   1.543 -0.0072 -0.1352  0.4160
 2465TIP3    H128810   3.381   4.224   1.572 -0.9097  1.3873  1.0010
 2465TIP3    H228811   3.431   4.366   1.566  1.3136  0.5904 -0.8525
 2466TIP3   OH228812   0.640   4.417  14.741  0.2585 -0.5679  0.7780
 2466TIP3    H128813   0.612   4.396  14.652 -0.4481  3.6621 -0.2149
 2466TIP3    H228814   0.730   4.447  14.731 -0.4513  1.8640  1.0065
 2467TIP3   OH228815   2.888   6.435  12.112  0.3252 -0.0042  0.1406
 2467TIP3    H128816   2.897   6.364  12.048  1.6158 -0.9811  1.3447
 2467TIP3    H228817   2.849   6.393  12.189  0.5977  0.6988  0.6723
 2468TIP3   OH228818   2.065   6.637  12.974 -0.0668  0.1387  0.5751
 2468TIP3    H128819   2.092   6.703  12.910 -0.2290  0.4059  0.7764
 2468TIP3    H228820   2.089   6.676  13.059 -0.5682  0.1309  0.7204
 2469TIP3   OH228821   6.033   0.098   4.045 -0.3100 -0.0505  0.3596
 2469TIP3    H128822   6.065   0.090   3.955  1.4578  1.0351  0.8397
 2469TIP3    H228823   6.012   0.009   4.072 -1.7911 -0.2952 -1.4109
 2470TIP3   OH228824   3.652   3.709  17.386  0.1702 -0.7832  0.6501
 2470TIP3    H128825   3.579   3.647  17.399 -0.0330 -0.4732  1.0104
 2470TIP3    H228826   3.612   3.795  17.396 -0.5194 -0.2881 -4.1203
 2471TIP3   OH228827   0.727   2.099  10.836 -0.2279  0.2763 -0.3676
 2471TIP3    H128828   0.686   2.155  10.770  0.5662  1.3530  0.0200
 2471TIP3    H228829   0.693   2.132  10.920  0.2187  0.1552 -0.1352
 2472TIP3   OH228830   5.583   0.746   2.925  0.2991 -0.3888  0.1565
 2472TIP3    H128831   5.676   0.765   2.932  0.2693  0.2549 -0.8990
 2472TIP3    H228832   5.552   0.738   3.015  1.5845 -1.7086  0.5172
 2473TIP3   OH228833   5.230   3.549  14.971  0.6842  0.2564 -0.0245
 2473TIP3    H128834   5.204   3.484  14.906 -0.5595  0.0532  0.6472
 2473TIP3    H228835   5.315   3.518  15.004  0.8155 -0.2075 -0.7753
 2474TIP3   OH228836   6.063   1.847   3.666 -0.5672  0.6188  0.4850
 2474TIP3    H128837   5.976   1.866   3.701 -1.4830 -0.6852 -0.9817
 2474TIP3    H228838   6.047   1.800   3.584  1.5124 -0.4638  0.6260
 2475TIP3   OH228839   5.093   2.289  13.197 -0.4047  0.3632 -0.1920
 2475TIP3    H128840   5.080   2.235  13.119 -0.5319 -0.4103  0.3546
 2475TIP3    H228841   5.187   2.307  13.199 -0.2416 -0.4887  0.0382
 2476TIP3   OH228842   4.838   3.641  11.810 -0.0826 -0.1694  0.0170
 2476TIP3    H128843   4.821   3.665  11.719 -3.6133 -0.2863  0.5024
 2476TIP3    H228844   4.818   3.547  11.815 -0.4945 -0.0428  1.0319
 2477TIP3   OH228845   4.783   5.572   6.456 -0.2541 -0.2566  0.5271
 2477TIP3    H128846   4.797   5.479   6.475  1.8191  0.0183  0.6137
 2477TIP3    H228847   4.689   5.581   6.445 -0.3739 -2.7068 -1.2112
 2478TIP3   OH228848   0.787   6.423  15.372  0.3780 -0.2636 -0.1756
 2478TIP3    H128849   0.730   6.363  15.324  1.5354 -0.4166 -1.4435
 2478TIP3    H228850   0.756   6.510  15.348  0.4057 -0.3515 -0.5455
 2479TIP3   OH228851   0.218   2.101   3.307 -0.1079 -0.3581 -0.2724
 2479TIP3    H128852   0.261   2.185   3.321 -3.0582  1.1094  0.7980
 2479TIP3    H228853   0.154   2.117   3.238 -2.1030 -1.0979  1.3033
 2480TIP3   OH228854   6.114   6.232  16.187 -0.2321 -0.0764  0.6344
 2480TIP3    H128855   6.108   6.175  16.111  0.1699 -1.0958  1.3400
 2480TIP3    H228856   6.028   6.225  16.229  0.5832 -2.2860  2.1450
 2481TIP3   OH228857   1.382   3.117  15.571 -0.3773 -0.1251  0.3408
 2481TIP3    H128858   1.351   3.198  15.533 -1.8765 -0.6682  0.3326
 2481TIP3    H228859   1.306   3.081  15.617  0.7083 -0.6796  1.8014
 2482TIP3   OH228860   4.921   4.626  11.960 -0.1532  0.2017 -0.1217
 2482TIP3    H128861   4.966   4.559  12.011 -0.2254  1.4509  1.6783
 2482TIP3    H228862   4.871   4.577  11.895  0.5910 -1.4210  0.4730
 2483TIP3   OH228863   5.976   6.223  15.649 -1.0111  0.9972 -0.3447
 2483TIP3    H128864   6.029   6.157  15.604 -0.7166  0.8487  0.2018
 2483TIP3    H228865   5.906   6.245  15.587 -1.5774 -0.4036 -0.2448
 2484TIP3   OH228866   2.579   4.379  16.579 -0.3053  0.5710  0.2447
 2484TIP3    H128867   2.486   4.399  16.563 -0.0482  0.2759 -2.0581
 2484TIP3    H228868   2.625   4.460  16.553  0.1750  0.1111 -0.3682
 2485TIP3   OH228869   1.338   5.254   2.474 -0.8922  0.7200  0.0352
 2485TIP3    H128870   1.300   5.188   2.532 -2.0331  2.4773  1.3754
 2485TIP3    H228871   1.321   5.222   2.386 -2.5494 -0.1668  0.6431
 2486TIP3   OH228872   0.873   6.222   4.482  0.4490  0.4669  0.1621
 2486TIP3    H128873   0.809   6.262   4.540  0.3401  1.2162 -0.4645
 2486TIP3    H228874   0.948   6.204   4.539  0.2216  0.8824  0.6046
 2487TIP3   OH228875   5.882   3.558  17.242  0.3576 -0.8958  0.2168
 2487TIP3    H128876   5.841   3.507  17.312  0.1551 -0.5257  0.3705
 2487TIP3    H228877   5.939   3.495  17.196 -1.3326 -1.7652 -0.8054
 2488TIP3   OH228878   5.599   4.287   1.514 -0.0546 -0.3230  0.5149
 2488TIP3    H128879   5.613   4.316   1.424  0.7342  0.4266  0.8709
 2488TIP3    H228880   5.650   4.347   1.567  0.2687 -1.3444  1.4010
 2489TIP3   OH228881   6.336   5.740  17.421 -0.4777  0.6590 -0.0570
 2489TIP3    H128882   6.424   5.761  17.390 -1.1960  0.9661 -2.0517
 2489TIP3    H228883   6.342   5.651  17.455  0.4807  0.4529 -0.7385
 2490TIP3   OH228884   1.206   5.137  16.879  0.0521  0.1973 -0.5817
 2490TIP3    H128885   1.250   5.211  16.921  0.6385  0.3297 -1.3980
 2490TIP3    H228886   1.118   5.168  16.861  0.0870  0.4653 -0.2916
 2491TIP3   OH228887   6.622   3.785  11.879  0.4733  0.1937  0.2748
 2491TIP3    H128888   6.678   3.814  11.951 -0.3213  1.2102  0.5006
 2491TIP3    H228889   6.603   3.864  11.830  2.1207 -0.6568 -1.9048
 2492TIP3   OH228890   0.147   4.271  11.441  0.2858  0.6249 -0.5223
 2492TIP3    H128891   0.138   4.181  11.410  0.1494 -0.4366  2.3402
 2492TIP3    H228892   0.207   4.265  11.515 -0.2030  2.8042  0.1245
 2493TIP3   OH228893   0.692   6.161   2.399 -0.1189 -0.0279  0.0455
 2493TIP3    H128894   0.652   6.126   2.479 -0.3906  1.2969  0.5204
 2493TIP3    H228895   0.643   6.242   2.382 -0.0342 -0.2567 -1.4466
 2494TIP3   OH228896   1.098   2.088   0.761  0.3513 -0.5378 -0.1175
 2494TIP3    H128897   1.012   2.105   0.800  0.7613 -0.8530  0.9504
 2494TIP3    H228898   1.106   2.153   0.691 -1.1056 -1.0442 -0.7917
 2495TIP3   OH228899   0.325   2.657  15.526  0.3040  0.1171  0.4580
 2495TIP3    H128900   0.368   2.705  15.456  0.8643 -1.0512 -0.0168
 2495TIP3    H228901   0.384   2.585  15.546 -0.8092 -0.7541  0.7121
 2496TIP3   OH228902   5.299   2.520  16.661 -0.2186 -0.5469  0.0530
 2496TIP3    H128903   5.212   2.560  16.659 -0.2094 -0.5195  0.1707
 2496TIP3    H228904   5.320   2.502  16.569 -0.0559  0.0815 -0.0366
 2497TIP3   OH228905   0.875   4.913  17.371  0.3576 -0.2389  0.0712
 2497TIP3    H128906   0.791   4.887  17.334  0.6648 -0.8070 -0.2444
 2497TIP3    H228907   0.853   4.980  17.436 -0.2288  0.5637 -0.9095
 2498TIP3   OH228908   5.822   5.126  15.567 -0.3026  0.0102 -0.9681
 2498TIP3    H128909   5.763   5.120  15.491 -0.6240 -3.4176 -0.5821
 2498TIP3    H228910   5.765   5.149  15.640 -0.4382  0.6753 -1.2737
 2499TIP3   OH228911   6.307   5.903  11.264 -0.3521 -0.4214 -0.3167
 2499TIP3    H128912   6.291   5.994  11.288  0.5444 -0.6905  1.4336
 2499TIP3    H228913   6.239   5.854  11.308 -2.3221 -0.4922 -3.1423
 2500TIP3   OH228914   2.853   2.091  15.317 -0.2221 -0.0865  0.6776
 2500TIP3    H128915   2.883   2.034  15.246 -1.5977 -0.3160  0.2470
 2500TIP3    H228916   2.822   2.170  15.273  0.4362  0.4557  1.1703
 2501TIP3   OH228917   0.283   5.035  16.845  0.2400  0.3073  0.0046
 2501TIP3    H128918   0.350   5.091  16.886  1.2525 -0.2708 -0.7938
 2501TIP3    H228919   0.211   5.034  16.908  0.1788  2.5067  0.0399
 2502TIP3   OH228920   6.014   3.220  11.466  0.1793 -0.2424  0.5448
 2502TIP3    H128921   6.010   3.243  11.373  1.1829 -0.4304  0.4432
 2502TIP3    H228922   6.039   3.302  11.509  2.7805 -0.8337  0.2899
 2503TIP3   OH228923   2.147   0.550   5.181 -0.1395 -0.3090 -0.4597
 2503TIP3    H128924   2.054   0.537   5.162 -0.3046 -0.6065  0.4629
 2503TIP3    H228925   2.189   0.554   5.096 -0.7524 -2.0307 -0.8904
 2504TIP3   OH228926   2.243   2.434   4.517  0.3312  0.2398  0.3658
 2504TIP3    H128927   2.272   2.357   4.468  0.4071 -0.8897  2.1088
 2504TIP3    H228928   2.315   2.497   4.506 -0.2346  0.5625 -2.0198
 2505TIP3   OH228929   5.657   0.299   1.295  0.6356 -0.2316 -0.1819
 2505TIP3    H128930   5.705   0.378   1.321 -0.9092  0.4210  0.8017
 2505TIP3    H228931   5.677   0.235   1.363 -1.0138  0.5225  1.0816
 2506TIP3   OH228932   4.706   1.230  16.012 -0.3244  0.4006  0.4718
 2506TIP3    H128933   4.770   1.251  16.081  0.3277  1.2566 -0.3717
 2506TIP3    H228934   4.748   1.259  15.931 -1.2880 -0.1458 -0.2363
 2507TIP3   OH228935   3.466   4.695   3.986 -0.5897  0.3330 -0.1748
 2507TIP3    H128936   3.412   4.669   3.912 -1.2697 -0.3478  0.5465
 2507TIP3    H228937   3.407   4.744   4.044 -0.7564 -1.3342  1.1361
 2508TIP3   OH228938   2.522   2.727  12.216  0.4249 -0.1789  0.1100
 2508TIP3    H128939   2.561   2.647  12.180 -2.3895 -3.0300  2.6506
 2508TIP3    H228940   2.582   2.754  12.285  0.4122 -1.4774  0.6589
 2509TIP3   OH228941   6.309   1.134  14.082 -0.4356 -0.8606  0.1335
 2509TIP3    H128942   6.313   1.055  14.135  0.5538  0.8556  2.8555
 2509TIP3    H228943   6.322   1.206  14.145 -1.2125  1.4744 -2.1766
 2510TIP3   OH228944   2.598   4.799  16.782  0.2256 -0.2849 -0.0781
 2510TIP3    H128945   2.551   4.861  16.838  1.7973  1.6857 -0.8305
 2510TIP3    H228946   2.537   4.780  16.711 -0.0616  0.9330 -0.1757
 2511TIP3   OH228947   3.382   1.098   2.313 -0.0043 -0.3029  0.2470
 2511TIP3    H128948   3.371   1.068   2.223  1.2640 -1.4069  0.4329
 2511TIP3    H228949   3.301   1.145   2.332 -1.2984 -2.0204 -0.6935
 2512TIP3   OH228950   4.295   5.820   2.401 -0.5279 -0.0072  0.3458
 2512TIP3    H128951   4.353   5.747   2.377 -2.1589 -1.8641  1.7469
 2512TIP3    H228952   4.310   5.885   2.332  2.2727 -0.8820 -0.0361
 2513TIP3   OH228953   2.539   4.824   3.721 -0.0436 -0.7482  0.9176
 2513TIP3    H128954   2.625   4.790   3.743  1.3865  1.5725 -0.7037
 2513TIP3    H228955   2.539   4.914   3.754 -1.3226 -0.2656 -0.2683
 2514TIP3   OH228956   2.614   4.966  15.249 -0.1989 -0.3721 -0.1831
 2514TIP3    H128957   2.673   4.989  15.320 -0.3146 -1.0370  0.1388
 2514TIP3    H228958   2.654   5.003  15.170 -2.3057  4.4990  0.6963
 2515TIP3   OH228959   3.678   4.613  12.434 -0.0377  0.2269 -0.2564
 2515TIP3    H128960   3.668   4.693  12.384 -1.3319 -0.0777 -0.5418
 2515TIP3    H228961   3.619   4.625  12.509  1.0243  0.2178  0.5949
 2516TIP3   OH228962   2.174   1.825   4.332  0.3800  0.3628  0.6103
 2516TIP3    H128963   2.262   1.787   4.325  0.0532 -0.4663  0.9943
 2516TIP3    H228964   2.155   1.825   4.426 -1.3161 -2.4671  0.3705
 2517TIP3   OH228965   5.143   1.361  11.571  0.4715 -0.4767  0.4299
 2517TIP3    H128966   5.088   1.402  11.638 -0.1352 -1.0607  0.2985
 2517TIP3    H228967   5.230   1.357  11.611  0.2680 -0.1962  0.9177
 2518TIP3   OH228968   2.439   0.043   6.218 -0.5637 -0.0235  0.4549
 2518TIP3    H128969   2.374   0.089   6.271 -1.5482  0.7274 -1.3351
 2518TIP3    H228970   2.506   0.110   6.199 -1.4811  0.4551 -1.2906
 2519TIP3   OH228971   1.772   4.553  16.705  0.3301 -0.1779 -0.1311
 2519TIP3    H128972   1.685   4.514  16.701  0.1408  0.3166 -1.3608
 2519TIP3    H228973   1.768   4.615  16.777 -0.9037  1.0931 -1.2261
 2520TIP3   OH228974   5.370   4.706   3.437 -0.2821  0.1408  0.5172
 2520TIP3    H128975   5.400   4.719   3.527  1.7722  0.5327 -0.1742
 2520TIP3    H228976   5.328   4.620   3.438  1.2066 -0.6173  1.5207
 2521TIP3   OH228977   2.536   1.698   1.993 -0.3239  0.3202  0.2709
 2521TIP3    H128978   2.475   1.756   1.946 -0.8178  0.0647  0.5945
 2521TIP3    H228979   2.530   1.726   2.084  1.0028  1.1483  0.1430
 2522TIP3   OH228980   1.782   5.613  13.797 -0.2087  0.2257 -0.2224
 2522TIP3    H128981   1.713   5.678  13.809 -1.5072 -1.0815 -0.3394
 2522TIP3    H228982   1.738   5.539  13.756  1.5408 -0.1586 -1.5350
 2523TIP3   OH228983   3.221   2.704   0.860  0.3877  0.0169 -0.1916
 2523TIP3    H128984   3.206   2.737   0.771 -0.4181  0.3673  0.0640
 2523TIP3    H228985   3.292   2.759   0.894  1.8581 -1.1898 -1.1707
 2524TIP3   OH228986   6.410   3.249   0.926 -0.2039 -0.0396 -0.0811
 2524TIP3    H128987   6.464   3.194   0.869 -0.8949  0.9403 -1.7413
 2524TIP3    H228988   6.468   3.321   0.952 -0.4306  0.5537 -1.1646
 2525TIP3   OH228989   3.902   5.324   4.959 -0.4687  0.2623  0.6657
 2525TIP3    H128990   3.984   5.274   4.955  0.4351  1.6114  1.4482
 2525TIP3    H228991   3.841   5.275   4.904  0.9077 -0.7008 -0.0520
 2526TIP3   OH228992   5.718   6.599   5.051  0.6247 -0.8054 -0.0903
 2526TIP3    H128993   5.697   6.579   4.960 -0.4225  0.5645 -0.1794
 2526TIP3    H228994   5.719   6.694   5.055 -3.4351 -0.6443  2.1520
 2527TIP3   OH228995   2.202   2.729   0.687  0.5664 -0.5568 -0.6026
 2527TIP3    H128996   2.154   2.659   0.732  1.1538  0.1587  1.2036
 2527TIP3    H228997   2.285   2.689   0.662  0.4396 -0.8188 -0.6067
 2528TIP3   OH228998   1.016   2.652   3.343 -0.2218 -0.0292 -0.1380
 2528TIP3    H128999   0.941   2.598   3.317 -0.6205  0.7334 -0.5855
 2528TIP3    H229000   0.985   2.742   3.336 -0.3259  0.2792  2.8543
 2529TIP3   OH229001   3.891   6.317  17.160  0.4532 -0.4533 -0.4696
 2529TIP3    H129002   3.867   6.258  17.231  0.0292  1.2470  0.8523
 2529TIP3    H229003   3.830   6.295  17.089 -2.7073  1.2389  1.5102
 2530TIP3   OH229004   4.356   4.851  11.429  0.3477  0.1686  0.2286
 2530TIP3    H129005   4.368   4.765  11.388 -0.5507  0.7244 -1.2702
 2530TIP3    H229006   4.316   4.905  11.361 -0.4759  1.3699  1.6132
 2531TIP3   OH229007   0.907   0.515   2.315 -0.2619  0.0504 -0.4195
 2531TIP3    H129008   0.884   0.455   2.386  0.6184  0.3627  0.1428
 2531TIP3    H229009   0.901   0.602   2.354  0.0221  0.2377 -0.7838
 2532TIP3   OH229010   3.190   4.139   0.606  0.4683 -0.1643 -0.3655
 2532TIP3    H129011   3.264   4.108   0.658  1.0065 -0.3583 -1.2249
 2532TIP3    H229012   3.209   4.109   0.517 -1.4817 -1.7237 -0.3301
 2533TIP3   OH229013   6.217   3.873   5.711  0.0197 -0.1952 -0.5238
 2533TIP3    H129014   6.187   3.957   5.746  2.7048  0.6352  0.0779
 2533TIP3    H229015   6.247   3.894   5.622  1.2702 -0.3211 -0.1575
 2534TIP3   OH229016   2.783   6.186   0.051 -0.3752  0.3487 -0.0331
 2534TIP3    H129017   2.708   6.173   0.109 -0.7567  0.7754 -0.4204
 2534TIP3    H229018   2.822   6.269   0.080 -1.0638  1.0021 -0.8966
 2535TIP3   OH229019   4.825   2.768  13.176 -0.2404 -0.4437 -0.0175
 2535TIP3    H129020   4.733   2.759  13.154 -0.8318  0.3328  1.9751
 2535TIP3    H229021   4.826   2.794  13.268  1.9278  0.8946 -0.3503
 2536TIP3   OH229022   1.534   2.816  16.583  0.1865 -0.0436 -0.3800
 2536TIP3    H129023   1.544   2.728  16.547  1.7899 -0.3088  0.6438
 2536TIP3    H229024   1.589   2.871  16.527 -1.5274  0.5313 -1.5955
 2537TIP3   OH229025   6.539   5.587   6.780 -0.1912  0.2703  0.0148
 2537TIP3    H129026   6.525   5.602   6.874 -3.0438 -0.1750 -0.2464
 2537TIP3    H229027   6.462   5.626   6.738  0.2641 -0.8852 -2.0238
 2538TIP3   OH229028   6.484   4.323   3.532  0.2757  0.2742 -0.4617
 2538TIP3    H129029   6.443   4.238   3.548 -0.2839  0.4999 -0.6534
 2538TIP3    H229030   6.576   4.303   3.514  0.4858 -0.1779  0.9222
 2539TIP3   OH229031   3.064   4.780   3.537  0.1354  0.0512 -0.2683
 2539TIP3    H129032   3.049   4.707   3.596 -0.4955 -1.2399 -1.9244
 2539TIP3    H229033   2.981   4.829   3.539  0.4664  0.5896  0.6444
 2540TIP3   OH229034   5.664   5.882  16.713  0.1260  0.5499 -0.8646
 2540TIP3    H129035   5.682   5.789  16.730  0.8385  0.6043 -1.2881
 2540TIP3    H229036   5.580   5.898  16.757 -0.2814 -0.4259 -1.2502
 2541TIP3   OH229037   3.412   5.843  14.788  0.8265  0.2467 -0.4691
 2541TIP3    H129038   3.367   5.856  14.705  0.3179 -1.1541 -0.4390
 2541TIP3    H229039   3.360   5.893  14.852 -1.1016 -1.8094 -0.3278
 2542TIP3   OH229040   1.839   1.769  13.938  0.6609 -0.1590 -0.4786
 2542TIP3    H129041   1.821   1.798  13.849  2.9039  2.3189 -0.2626
 2542TIP3    H229042   1.918   1.715  13.930 -0.5263 -2.0583 -0.1976
 2543TIP3   OH229043   6.036   2.448   2.975 -0.1876 -0.1861 -0.6706
 2543TIP3    H129044   6.013   2.445   3.067  2.0007 -0.6466 -0.0835
 2543TIP3    H229045   6.046   2.541   2.955  0.7752 -0.1412 -0.0270
 2544TIP3   OH229046   5.457   1.499  15.095 -0.5183 -0.0093 -0.3021
 2544TIP3    H129047   5.505   1.417  15.105 -0.0702  0.1492 -1.0631
 2544TIP3    H229048   5.365   1.474  15.099 -0.4414 -0.8233 -2.2726
 2545TIP3   OH229049   2.852   2.709   2.181  0.1372 -0.2818 -1.0146
 2545TIP3    H129050   2.834   2.615   2.185  0.6498 -0.3527  1.5666
 2545TIP3    H229051   2.948   2.715   2.187  0.0154  0.3866  1.1593
 2546TIP3   OH229052   6.162   1.884  16.403  0.3125  0.8400  0.0609
 2546TIP3    H129053   6.127   1.799  16.374  2.6743  0.0673 -0.7763
 2546TIP3    H229054   6.136   1.946  16.335 -1.1893  0.7581  0.5332
 2547TIP3   OH229055   0.687   1.668   1.263  0.4379  0.1121 -0.0657
 2547TIP3    H129056   0.753   1.638   1.326  0.1173  0.7259  0.5654
 2547TIP3    H229057   0.703   1.614   1.185  2.1158  0.6968 -0.1685
 2548TIP3   OH229058   4.794   3.238  14.340 -0.0117  0.3178  0.3304
 2548TIP3    H129059   4.737   3.291  14.284  0.1816  0.2618  0.0799
 2548TIP3    H229060   4.735   3.174  14.381  0.1653 -1.1745 -1.5999
 2549TIP3   OH229061   2.629   1.311   5.237 -0.0732 -0.4358 -0.5361
 2549TIP3    H129062   2.669   1.393   5.206 -1.1500  0.6386  0.7626
 2549TIP3    H229063   2.585   1.275   5.160  0.8132 -0.0378 -1.2420
 2550TIP3   OH229064   5.717   3.442   5.080 -0.1486 -0.0245  0.0855
 2550TIP3    H129065   5.639   3.492   5.058  0.5729  0.7773 -0.7478
 2550TIP3    H229066   5.788   3.507   5.079  0.7943 -1.0281 -0.8840
 2551TIP3   OH229067   4.709   2.924   0.797  0.1504  0.2001  0.1095
 2551TIP3    H129068   4.682   2.871   0.722  0.7518  1.7273 -1.2334
 2551TIP3    H229069   4.627   2.952   0.838 -0.2758  1.5184 -1.5626
 2552TIP3   OH229070   1.113   5.463  17.116  0.2406  0.2327 -0.2024
 2552TIP3    H129071   1.191   5.431  17.071 -1.6745 -1.8375 -2.2956
 2552TIP3    H229072   1.041   5.449  17.054 -1.8711  1.8390  1.6956
 2553TIP3   OH229073   1.147   4.505   0.943 -0.0963 -0.1771 -0.0155
 2553TIP3    H129074   1.236   4.474   0.963  0.4088  1.4683  0.4288
 2553TIP3    H229075   1.097   4.486   1.022 -0.4951 -2.2456 -0.7118
 2554TIP3   OH229076   1.021   6.316  14.254 -0.1631 -0.5342 -0.1270
 2554TIP3    H129077   1.027   6.317  14.158  1.2556 -0.9515 -0.0664
 2554TIP3    H229078   1.110   6.333  14.283 -0.8263  1.0180  1.1540
 2555TIP3   OH229079   4.911   2.986  12.810  0.0461  0.1625 -0.3490
 2555TIP3    H129080   4.960   2.948  12.737  0.1788  0.5139 -0.4471
 2555TIP3    H229081   4.857   3.054  12.770 -0.3612 -0.0783 -0.2104
 2556TIP3   OH229082   1.277   3.009   5.454 -0.2296  0.3232 -0.2050
 2556TIP3    H129083   1.216   3.078   5.480  0.2390  0.9741 -0.7999
 2556TIP3    H229084   1.340   3.052   5.397 -0.0456 -0.6358 -0.7597
 2557TIP3   OH229085   0.863   4.437   5.273  0.2383 -0.0474  0.2394
 2557TIP3    H129086   0.848   4.430   5.179  3.1165  0.5852 -0.3607
 2557TIP3    H229087   0.883   4.347   5.301  0.0440 -0.1316  0.1021
 2558TIP3   OH229088   2.928   6.107   2.096 -0.1457 -0.2917  0.1167
 2558TIP3    H129089   2.837   6.078   2.095 -1.0089  2.1740  0.0192
 2558TIP3    H229090   2.932   6.177   2.031  1.3374  0.9126  1.4182
 2559TIP3   OH229091   0.564   0.326  12.545  0.0658 -0.0198  0.0852
 2559TIP3    H129092   0.650   0.294  12.571  0.1745  1.0085  1.0740
 2559TIP3    H229093   0.583   0.394  12.480 -0.1690 -1.9580 -2.1219
 2560TIP3   OH229094   2.243   4.536  11.238 -0.6336 -0.3322  0.3508
 2560TIP3    H129095   2.209   4.606  11.293 -0.8994 -1.0089  1.0734
 2560TIP3    H229096   2.249   4.575  11.151 -3.0301 -0.0747  0.2203
 2561TIP3   OH229097   6.736   1.373  16.774  0.0740 -0.2066  0.0689
 2561TIP3    H129098   6.682   1.412  16.706 -0.8183 -0.3165  0.6979
 2561TIP3    H229099   6.821   1.417  16.766  0.8633 -1.9847 -2.7640
 2562TIP3   OH229100   4.771   6.530   3.180 -0.0513  0.2647 -0.0048
 2562TIP3    H129101   4.696   6.517   3.122 -1.6013  4.5645  0.6852
 2562TIP3    H229102   4.847   6.522   3.123 -1.3255  0.5107 -1.8273
 2563TIP3   OH229103   3.794   0.108   2.198  0.0104 -0.0469 -0.0057
 2563TIP3    H129104   3.809   0.154   2.115  1.6334 -1.9742 -0.8889
 2563TIP3    H229105   3.713   0.059   2.185 -0.3365  0.5339 -0.0299
 2564TIP3   OH229106   3.680   2.713   2.486  0.5173  0.1803  0.7211
 2564TIP3    H129107   3.617   2.640   2.482 -0.4484  1.0443 -0.6662
 2564TIP3    H229108   3.681   2.738   2.578  0.1481 -0.9850  1.0596
 2565TIP3   OH229109   5.999   3.473  10.907  0.6296 -0.5367 -0.0832
 2565TIP3    H129110   6.076   3.527  10.897  1.2647 -1.7229 -2.2336
 2565TIP3    H229111   5.960   3.469  10.819 -1.7819 -0.1399  0.8864
 2566TIP3   OH229112   0.030   4.219  15.849 -0.2818  0.9381 -0.6863
 2566TIP3    H129113   0.095   4.211  15.919  0.9993  1.6739 -1.7536
 2566TIP3    H229114  -0.028   4.144  15.861  0.5186  0.4968  0.5433
 2567TIP3   OH229115   3.350   6.698   0.532  0.2619  0.4968  0.1929
 2567TIP3    H129116   3.434   6.692   0.578  0.6043 -0.6625 -0.5365
 2567TIP3    H229117   3.373   6.723   0.443 -0.1959  0.4743  0.0662
 2568TIP3   OH229118   3.461   2.891   4.910 -0.0941 -0.0783 -0.1152
 2568TIP3    H129119   3.479   2.961   4.847 -1.8639 -0.6128 -1.2777
 2568TIP3    H229120   3.419   2.936   4.984 -1.7033  0.0707 -1.0811
 2569TIP3   OH229121   3.653   5.904  16.692 -0.0289  0.3486  0.1022
 2569TIP3    H129122   3.558   5.911  16.704 -0.1314  0.6090 -0.8436
 2569TIP3    H229123   3.669   5.933  16.602  0.9131 -0.0059  0.1421
 2570TIP3   OH229124   0.141   5.563  17.176  0.3478 -0.0354  0.0450
 2570TIP3    H129125   0.130   5.611  17.094  1.2645  0.9286  0.4634
 2570TIP3    H229126   0.221   5.599  17.215  0.2702 -0.9034  1.0764
 2571TIP3   OH229127   2.130   1.099   2.079 -0.4434 -0.7873 -0.0240
 2571TIP3    H129128   2.120   1.180   2.130  1.4890 -0.5219  0.0069
 2571TIP3    H229129   2.047   1.090   2.033 -0.4423  1.6905 -0.6641
 2572TIP3   OH229130   2.463   0.759  13.666 -0.1844  0.7873  0.5379
 2572TIP3    H129131   2.508   0.779  13.585 -0.2302 -0.3507  0.2160
 2572TIP3    H229132   2.380   0.807  13.660 -1.0887 -0.8657 -1.0242
 2573TIP3   OH229133   3.952   6.666   2.026 -0.4136  0.5422 -0.0975
 2573TIP3    H129134   3.935   6.678   2.120 -1.4736  0.0792 -0.2079
 2573TIP3    H229135   3.882   6.715   1.984 -0.8804 -0.5462 -0.6186
 2574TIP3   OH229136   5.720   0.342  15.115  0.5352 -0.2333 -0.1421
 2574TIP3    H129137   5.723   0.258  15.162  0.7507  0.8529  1.9147
 2574TIP3    H229138   5.708   0.407  15.184  1.0083  1.4930 -1.6232
 2575TIP3   OH229139   5.872   1.325   4.316  0.0113 -0.2880 -0.1214
 2575TIP3    H129140   5.962   1.304   4.289 -0.4058 -1.9349 -0.2998
 2575TIP3    H229141   5.884   1.380   4.394  1.1816 -0.6468 -0.0165
 2576TIP3   OH229142   4.693   3.453  17.206  0.0781  0.0508  0.2187
 2576TIP3    H129143   4.599   3.472  17.200  0.2343  1.0720  0.8704
 2576TIP3    H229144   4.724   3.508  17.277  1.8731  2.5398 -2.3066
 2577TIP3   OH229145   6.175   3.869  11.367 -0.1812  0.0808  0.6749
 2577TIP3    H129146   6.197   3.846  11.277 -2.2259  1.2818 -0.2047
 2577TIP3    H229147   6.121   3.797  11.398 -0.4883  0.2389  0.5084
 2578TIP3   OH229148   4.249   6.266  11.512  0.5562 -0.2336  0.3023
 2578TIP3    H129149   4.166   6.224  11.491  0.6919 -0.6152  0.5114
 2578TIP3    H229150   4.227   6.358  11.523  0.1586 -0.3318  0.3653
 2579TIP3   OH229151   3.965   3.634  13.133 -0.3427  0.4495  0.0790
 2579TIP3    H129152   3.947   3.725  13.159 -0.1078  0.1875  1.2234
 2579TIP3    H229153   3.891   3.585  13.168 -1.1327  0.3505 -1.6570
 2580TIP3   OH229154   2.604   4.438  14.791 -0.2624 -0.4477 -0.1427
 2580TIP3    H129155   2.602   4.348  14.759 -0.3363 -1.0206  1.3984
 2580TIP3    H229156   2.689   4.446  14.834 -0.9139 -0.3342  1.1744
 2581TIP3   OH229157   1.791   3.977  12.848  0.2508 -0.0345  0.4427
 2581TIP3    H129158   1.835   4.042  12.903 -0.2062  1.2748 -0.7056
 2581TIP3    H229159   1.699   3.981  12.876  0.2114 -0.1411  0.3280
 2582TIP3   OH229160   6.226   5.170   1.707 -0.2179 -0.2452 -0.1553
 2582TIP3    H129161   6.315   5.139   1.717  0.1107  0.4797 -0.7062
 2582TIP3    H229162   6.205   5.156   1.615  0.7026  2.9772 -0.9813
 2583TIP3   OH229163   3.081   4.541  11.742  0.4411 -0.2630  0.3236
 2583TIP3    H129164   3.018   4.583  11.800  0.7534 -0.1461  0.5869
 2583TIP3    H229165   3.049   4.559  11.654  0.8669  1.0159  0.4075
 2584TIP3   OH229166   1.218   4.807  15.105 -0.1064 -0.7174 -0.0031
 2584TIP3    H129167   1.166   4.880  15.139  0.7297 -0.3608  0.5532
 2584TIP3    H229168   1.304   4.817  15.147 -0.1994 -2.4732  0.7203
 2585TIP3   OH229169   4.402   2.751  11.060  0.4022 -0.3655 -0.3007
 2585TIP3    H129170   4.413   2.658  11.040  0.0982 -0.4188 -0.2240
 2585TIP3    H229171   4.485   2.777  11.101  0.3837 -0.6691 -0.0672
 2586TIP3   OH229172   6.308   1.482  15.496 -0.6898 -0.3166 -0.1099
 2586TIP3    H129173   6.324   1.467  15.589 -1.1954 -2.1663 -0.2773
 2586TIP3    H229174   6.394   1.501  15.459 -0.5609  1.0393  0.7998
 2587TIP3   OH229175   5.354   0.822  16.549 -0.1131 -0.4121 -0.1129
 2587TIP3    H129176   5.431   0.790  16.596  1.2217  1.5609 -0.8529
 2587TIP3    H229177   5.281   0.771  16.585  1.2710 -1.0882  1.8889
 2588TIP3   OH229178   1.117   1.310   5.400 -0.0808 -0.3646  0.2730
 2588TIP3    H129179   1.109   1.259   5.481 -1.2666 -0.4119  0.1392
 2588TIP3    H229180   1.091   1.250   5.331 -0.3374  0.0679 -0.0099
 2589TIP3   OH229181   5.879   4.521   5.270  0.2216  0.6112  0.6081
 2589TIP3    H129182   5.873   4.530   5.175 -0.4743 -1.7868  0.3673
 2589TIP3    H229183   5.796   4.557   5.303  0.1569  0.7751  0.2681
 2590TIP3   OH229184   5.912   4.165  16.756  0.3222  0.1994  0.3387
 2590TIP3    H129185   5.897   4.077  16.791  0.3737  0.9712  2.4568
 2590TIP3    H229186   5.972   4.152  16.683  1.7904 -1.3731  1.7425
 2591TIP3   OH229187   2.368   3.822   3.072 -0.3473 -0.2011 -0.6856
 2591TIP3    H129188   2.450   3.798   3.028  0.6222  0.4396  0.6949
 2591TIP3    H229189   2.331   3.739   3.100  0.6158 -0.4226 -0.0156
 2592TIP3   OH229190   1.289   6.023  14.141  0.8026 -0.8143  0.1629
 2592TIP3    H129191   1.201   6.022  14.102 -0.2357  0.3867  2.2722
 2592TIP3    H229192   1.335   6.094  14.097  0.2863 -0.6258 -0.0772
 2593TIP3   OH229193   1.203   3.433  15.996 -0.3374 -0.6288  0.0414
 2593TIP3    H129194   1.244   3.376  15.931  0.0245 -0.5830  0.2279
 2593TIP3    H229195   1.275   3.486  16.030 -0.5613 -0.5087  0.3292
 2594TIP3   OH229196   4.772   1.536  11.004 -0.7951  0.0364  0.2292
 2594TIP3    H129197   4.690   1.547  10.956 -0.7340  0.1456  0.1485
 2594TIP3    H229198   4.801   1.448  10.982  0.1218  0.6931 -1.3351
 2595TIP3   OH229199   4.225   0.089  17.068  0.2243 -0.5559  0.0798
 2595TIP3    H129200   4.269   0.028  17.008 -2.9562 -1.3284 -1.6857
 2595TIP3    H229201   4.187   0.033  17.136  0.4087 -0.1242  0.5406
 2596TIP3   OH229202   6.186   3.970  14.835 -0.2741 -0.1332  0.1404
 2596TIP3    H129203   6.223   4.055  14.858 -0.7285 -0.1207  0.8583
 2596TIP3    H229204   6.194   3.965  14.740  1.6555 -0.1920  0.2773
 2597TIP3   OH229205   3.878   2.364   6.018 -0.2049 -0.2663  0.2672
 2597TIP3    H129206   3.935   2.441   6.019  0.5524 -0.7818  2.7550
 2597TIP3    H229207   3.887   2.328   5.930  0.5314  1.6689 -0.4949
 2598TIP3   OH229208   3.928   3.849  16.929  0.8821 -0.5374  0.5040
 2598TIP3    H129209   3.921   3.942  16.947  2.7867 -0.3369  0.4477
 2598TIP3    H229210   3.879   3.806  17.000  1.2467  0.4647  1.3770
 2599TIP3   OH229211   3.174   0.869  15.111 -0.1989  0.3492 -0.4288
 2599TIP3    H129212   3.265   0.840  15.110  0.1073  1.2848 -1.5377
 2599TIP3    H229213   3.180   0.964  15.124 -1.0796  0.2826  0.6759
 2600TIP3   OH229214   0.126   3.081  14.048 -0.0543  0.1763 -0.3160
 2600TIP3    H129215   0.054   3.087  14.111  1.4360 -0.1023  1.5047
 2600TIP3    H229216   0.106   3.002  13.997 -1.3203  0.4321 -0.2500
 2601TIP3   OH229217   5.411   4.966   1.214 -0.5276 -0.2936 -0.0614
 2601TIP3    H129218   5.392   4.931   1.127 -2.9276  1.6665 -0.4327
 2601TIP3    H229219   5.464   5.044   1.197 -0.4430 -0.2798  0.2672
 2602TIP3   OH229220   1.103   5.441  15.342  0.4093 -0.2299  0.2801
 2602TIP3    H129221   1.063   5.413  15.260  0.1983  1.4429 -0.2357
 2602TIP3    H229222   1.054   5.394  15.410 -0.3163 -0.6172 -0.4954
 2603TIP3   OH229223   1.036   4.853   3.914  0.3270  0.5154  0.4956
 2603TIP3    H129224   1.012   4.760   3.907 -1.1323  0.6660  2.7717
 2603TIP3    H229225   1.050   4.880   3.823  0.2939 -1.7820 -0.2732
 2604TIP3   OH229226   0.314   4.184   1.074 -0.1483 -0.0097  0.5365
 2604TIP3    H129227   0.355   4.267   1.100 -2.4017  2.3164 -2.5527
 2604TIP3    H229228   0.365   4.156   0.998 -0.6734 -0.3225  0.2987
 2605TIP3   OH229229   2.049   0.795   6.477 -0.4173 -0.0219  0.1782
 2605TIP3    H129230   2.111   0.728   6.508 -0.9061  0.4748  2.3908
 2605TIP3    H229231   1.968   0.776   6.525 -0.6610  1.9625  0.6137
 2606TIP3   OH229232   3.228   4.660   2.855 -0.2234 -0.3380  0.7633
 2606TIP3    H129233   3.313   4.678   2.816  0.0004  0.2489  1.5098
 2606TIP3    H229234   3.237   4.687   2.947 -0.9247 -1.1239  1.0773
 2607TIP3   OH229235   6.069   5.086  15.803  0.1936 -0.4419  0.2385
 2607TIP3    H129236   6.033   5.113  15.887 -0.2640  0.9146 -0.3630
 2607TIP3    H229237   6.143   5.145  15.789  0.4973 -0.9046 -0.1410
 2608TIP3   OH229238   5.991   1.977  11.993 -0.0591 -0.0956  0.0657
 2608TIP3    H129239   6.069   2.013  12.036  0.1451 -0.6436  0.1660
 2608TIP3    H229240   5.944   1.932  12.063 -0.6342  0.4978  0.0693
 2609TIP3   OH229241   2.044   4.845  16.077  0.1444  0.1201 -0.3860
 2609TIP3    H129242   2.135   4.856  16.104  0.1835 -0.4179 -0.2750
 2609TIP3    H229243   2.011   4.934  16.066  0.9993  0.3194 -1.4962
 2610TIP3   OH229244   6.632   6.453   1.764 -0.0419  0.1658  0.5345
 2610TIP3    H129245   6.623   6.383   1.699  1.3078  0.5376 -0.0748
 2610TIP3    H229246   6.549   6.452   1.811 -1.2627  0.1787 -1.4932
 2611TIP3   OH229247   5.397   1.605   5.165 -0.7268  0.1205  0.0301
 2611TIP3    H129248   5.411   1.604   5.070  0.8073  0.2988  0.2341
 2611TIP3    H229249   5.449   1.679   5.196 -0.9588 -0.1311  1.0445
 2612TIP3   OH229250   5.296   5.231   0.089  0.3809  0.4852 -0.4971
 2612TIP3    H129251   5.216   5.200   0.047  1.0979  1.2479 -2.5547
 2612TIP3    H229252   5.267   5.269   0.172 -0.9382 -2.3239  0.4464
 2613TIP3   OH229253   3.129   2.427  15.385 -0.3200 -0.4401 -0.0337
 2613TIP3    H129254   3.224   2.422  15.395 -0.3120 -0.3418 -0.0537
 2613TIP3    H229255   3.110   2.521  15.394 -0.6387 -0.6602  2.0834
 2614TIP3   OH229256   5.299   1.310  16.769 -0.3136 -0.0354 -0.4390
 2614TIP3    H129257   5.346   1.227  16.758  1.3045  0.5053  1.7382
 2614TIP3    H229258   5.329   1.365  16.697  1.2996 -0.2087  0.0681
 2615TIP3   OH229259   2.673   1.888   3.136  0.2248 -0.3392 -0.0343
 2615TIP3    H129260   2.766   1.879   3.116  0.4457  1.8850 -0.3550
 2615TIP3    H229261   2.670   1.928   3.223 -0.2335  2.3165 -1.1520
 2616TIP3   OH229262   2.185   3.355  11.591 -0.6838 -0.2327  0.7381
 2616TIP3    H129263   2.187   3.277  11.646 -0.5282 -1.2399 -0.6219
 2616TIP3    H229264   2.105   3.346  11.539 -0.4836  0.3363  0.3168
 2617TIP3   OH229265   1.156   3.105  11.474 -0.0602 -0.8386 -0.3533
 2617TIP3    H129266   1.189   3.017  11.454 -0.9784 -0.8008 -2.1838
 2617TIP3    H229267   1.224   3.164  11.443  0.5122 -0.8744  0.7868
 2618TIP3   OH229268   5.909   2.910   3.758 -0.1359  0.0376 -0.7120
 2618TIP3    H129269   5.912   2.867   3.672  3.0200  0.3978 -0.9245
 2618TIP3    H229270   5.911   2.838   3.821  0.1356 -0.2068 -0.9948
 2619TIP3   OH229271   4.730   0.380  15.640  0.7163  0.0207 -0.6521
 2619TIP3    H129272   4.717   0.316  15.570  1.3895 -0.6640 -0.1623
 2619TIP3    H229273   4.823   0.373  15.662 -0.0322 -2.2349  2.5950
 2620TIP3   OH229274   3.770   3.763   1.765 -0.0219  0.6541 -0.1422
 2620TIP3    H129275   3.767   3.708   1.687 -0.5492  0.6297 -0.1067
 2620TIP3    H229276   3.678   3.779   1.787  0.1207  1.2122  0.0823
 2621TIP3   OH229277   1.116   5.855  12.256  0.1438  0.2336 -0.1457
 2621TIP3    H129278   1.109   5.933  12.201  0.7623  0.4613  0.0917
 2621TIP3    H229279   1.158   5.886  12.336  1.3267 -0.5296 -0.4518
 2622TIP3   OH229280   0.782   5.655  13.452  0.1835  0.4019 -0.0236
 2622TIP3    H129281   0.730   5.603  13.514  0.5279  0.2568  0.1473
 2622TIP3    H229282   0.873   5.633  13.473  0.3628  1.5572  0.4828
 2623TIP3   OH229283   2.489   0.589  14.465 -0.4985  0.3276 -0.3396
 2623TIP3    H129284   2.436   0.611  14.542  0.1645 -0.9031  0.5113
 2623TIP3    H229285   2.547   0.665  14.453 -1.6668  1.1948 -0.5914
 2624TIP3   OH229286   6.114   3.341   3.891  0.1896 -0.2153  0.1931
 2624TIP3    H129287   6.036   3.287   3.877 -0.8343  1.6655 -2.4080
 2624TIP3    H229288   6.187   3.286   3.863 -0.6607 -0.8083 -0.9918
 2625TIP3   OH229289   2.194   2.977   1.123  0.2673 -0.3969  0.5809
 2625TIP3    H129290   2.228   3.025   1.047 -2.5070 -2.3909 -2.1505
 2625TIP3    H229291   2.172   3.046   1.186  0.5822  1.5714 -1.3300
 2626TIP3   OH229292   3.709   2.306  12.393  0.7530 -0.4746 -0.0114
 2626TIP3    H129293   3.699   2.338  12.482 -0.3960 -1.4383  0.2337
 2626TIP3    H229294   3.803   2.298  12.380  1.0532  1.7681  0.3183
 2627TIP3   OH229295   0.041   3.193  11.360 -0.3488  0.8938  0.6485
 2627TIP3    H129296   0.073   3.262  11.302 -0.0094 -1.3943 -2.1430
 2627TIP3    H229297   0.114   3.132  11.368 -1.4272 -0.4178  0.8572
 2628TIP3   OH229298   2.312   6.115  12.832 -0.7602  0.1015 -0.2471
 2628TIP3    H129299   2.376   6.113  12.762  1.2946  0.6343  1.5217
 2628TIP3    H229300   2.294   6.023  12.852 -0.7733 -0.0480 -0.9180
 2629TIP3   OH229301   5.364   6.223  17.175  0.6054 -0.1081 -0.3267
 2629TIP3    H129302   5.457   6.200  17.172  0.4907 -0.5895 -0.2972
 2629TIP3    H229303   5.351   6.278  17.098  0.5209 -1.5595 -1.3801
 2630TIP3   OH229304   0.203   1.241   2.832 -0.3707 -0.2495  0.2012
 2630TIP3    H129305   0.277   1.202   2.786 -0.2590 -0.2625  0.3904
 2630TIP3    H229306   0.166   1.304   2.769 -1.0907 -1.2740 -0.4322
 2631TIP3   OH229307   6.083   3.920   1.918  0.1171 -0.2323 -0.0143
 2631TIP3    H129308   6.051   3.880   1.999  0.7328 -0.9285 -0.1090
 2631TIP3    H229309   6.166   3.877   1.901 -0.4943 -0.8470 -1.5934
 2632TIP3   OH229310   0.272   5.490   1.798  0.5509 -0.5529  0.4337
 2632TIP3    H129311   0.192   5.437   1.801  0.5563 -0.5401  0.8927
 2632TIP3    H229312   0.255   5.562   1.858  1.1278 -0.8637  0.9915
 2633TIP3   OH229313   2.115   6.199  14.499  0.1434 -0.4440  0.1538
 2633TIP3    H129314   2.057   6.192  14.423 -0.5499  1.5191  0.4546
 2633TIP3    H229315   2.202   6.216  14.462 -0.1904  0.4880 -0.2201
 2634TIP3   OH229316   2.371   1.020  13.396  0.4013  0.5508  0.0633
 2634TIP3    H129317   2.300   0.958  13.384  1.1632 -1.0198  2.8052
 2634TIP3    H229318   2.336   1.087  13.455  0.6712  0.7588 -0.0072
 2635TIP3   OH229319   6.328   3.183   3.779  0.5377 -0.0152 -0.2018
 2635TIP3    H129320   6.395   3.203   3.713  0.2624  2.6907  0.2165
 2635TIP3    H229321   6.315   3.088   3.772  1.9873 -0.1318 -2.6006
 2636TIP3   OH229322   5.992   5.327   6.372 -0.1058  0.5592 -0.1900
 2636TIP3    H129323   5.920   5.359   6.318  0.8703  2.4339 -0.4704
 2636TIP3    H229324   5.985   5.377   6.453  0.8382  0.7358 -0.2051
 2637TIP3   OH229325   0.394   0.840   4.957  0.3054  0.0327  0.0653
 2637TIP3    H129326   0.470   0.881   4.998  0.3000 -1.3296  1.4969
 2637TIP3    H229327   0.325   0.845   5.023  0.1349 -1.7253  0.0604
 2638TIP3   OH229328   4.620   0.211  12.623 -0.2401  0.5874  0.3913
 2638TIP3    H129329   4.662   0.247  12.546  1.4155  1.6700  1.7405
 2638TIP3    H229330   4.661   0.125  12.635  1.1210  1.3225  1.2638
 2639TIP3   OH229331   2.039   5.360  13.340  0.5377 -0.1220 -0.3850
 2639TIP3    H129332   1.964   5.378  13.398  1.7696 -0.4894  1.4156
 2639TIP3    H229333   2.000   5.334  13.257 -1.3250  0.0674  0.3861
 2640TIP3   OH229334   4.718   2.938   5.095  0.7463  0.4842 -0.2712
 2640TIP3    H129335   4.809   2.947   5.067  1.4069 -1.0910  1.2211
 2640TIP3    H229336   4.718   2.963   5.187  0.1570 -1.6624  0.3733
 2641TIP3   OH229337   3.516   5.565  14.097 -0.1157 -0.5617 -0.5525
 2641TIP3    H129338   3.515   5.626  14.023  2.9800  0.6257  0.2105
 2641TIP3    H229339   3.446   5.595  14.155 -0.8994  0.0861 -1.7848
 2642TIP3   OH229340   4.714   4.040   0.857  0.0827 -0.2318  0.0907
 2642TIP3    H129341   4.666   4.054   0.776 -2.9934  3.2114  2.1898
 2642TIP3    H229342   4.806   4.053   0.834 -0.5597 -0.4565 -2.9606
 2643TIP3   OH229343   2.037   0.522   3.811 -0.0390  0.2074  0.2042
 2643TIP3    H129344   2.132   0.532   3.820  0.0651 -0.0842 -0.5273
 2643TIP3    H229345   2.018   0.437   3.850  0.1467 -0.1945 -0.5690
 2644TIP3   OH229346   0.335   1.161  12.197 -0.0673 -0.1475  0.2153
 2644TIP3    H129347   0.326   1.254  12.176  0.9639 -0.3052 -1.0415
 2644TIP3    H229348   0.387   1.160  12.278 -0.2222  0.3643  0.3261
 2645TIP3   OH229349   2.379   4.004  14.930 -0.4409 -0.4274  0.0704
 2645TIP3    H129350   2.326   3.973  15.003  1.8487 -0.2479  1.9629
 2645TIP3    H229351   2.433   3.929  14.906 -0.4004 -0.1651 -0.6731
 2646TIP3   OH229352   2.610   4.229   6.355 -0.3219 -0.3622  0.2899
 2646TIP3    H129353   2.569   4.240   6.269 -1.3644  0.4538  0.8629
 2646TIP3    H229354   2.618   4.135   6.366 -0.2218 -0.4759 -0.6801
 2647TIP3   OH229355   3.106   6.001   5.306  0.0840 -0.1724 -0.0579
 2647TIP3    H129356   3.123   5.913   5.274 -0.7922  0.1005 -1.3322
 2647TIP3    H229357   3.076   6.050   5.229 -1.8983  0.5769  1.1043
 2648TIP3   OH229358   2.347   3.580   2.839 -0.2462 -0.4172 -0.4818
 2648TIP3    H129359   2.256   3.606   2.825 -0.4279 -1.3945 -1.1658
 2648TIP3    H229360   2.348   3.548   2.930 -0.2859  0.7843 -0.0399
 2649TIP3   OH229361   3.342   5.176  15.689 -0.0212  0.5840 -0.0767
 2649TIP3    H129362   3.273   5.219  15.740 -0.7412 -0.7377  0.1027
 2649TIP3    H229363   3.422   5.189  15.740 -0.3944  0.8870  0.4337
 2650TIP3   OH229364   4.956   1.681   0.671  0.0643  0.1505 -0.4720
 2650TIP3    H129365   5.019   1.624   0.714  0.5269  2.6270  2.4284
 2650TIP3    H229366   5.004   1.762   0.654 -1.4105  0.8797 -1.4189
 2651TIP3   OH229367   2.376   4.495   3.580 -0.0173 -0.3143 -0.2646
 2651TIP3    H129368   2.300   4.553   3.569  1.0635  1.1738 -0.2020
 2651TIP3    H229369   2.363   4.426   3.515 -0.5734  0.8824 -1.4844
 2652TIP3   OH229370   0.249   2.557   5.717 -0.7686  0.2033  0.2977
 2652TIP3    H129371   0.268   2.596   5.631  1.1447 -0.2984  0.4432
 2652TIP3    H229372   0.229   2.465   5.697 -0.4172  0.1094  0.3636
 2653TIP3   OH229373   4.065   2.525   4.393  0.3833 -0.2992  0.1508
 2653TIP3    H129374   4.015   2.444   4.409 -2.0546  0.4587 -2.7107
 2653TIP3    H229375   4.006   2.595   4.422  1.0750  0.5389 -0.4264
 2654TIP3   OH229376   1.431   4.719   2.095  1.0867  0.1365  0.3299
 2654TIP3    H129377   1.396   4.775   2.164  0.6442  0.3503 -0.0612
 2654TIP3    H229378   1.499   4.771   2.053  1.6547 -0.1538  0.8739
 2655TIP3   OH229379   0.068   4.805  14.598 -0.0675 -0.4997  0.3580
 2655TIP3    H129380   0.006   4.780  14.530 -0.7163 -0.9787  1.1070
 2655TIP3    H229381   0.113   4.882  14.563 -1.6428  0.3512  0.1305
 2656TIP3   OH229382   4.776   0.203   5.446  0.1632 -0.1231  0.0307
 2656TIP3    H129383   4.847   0.206   5.510 -1.2950 -2.8530  2.0118
 2656TIP3    H229384   4.819   0.183   5.363  1.7734 -1.3605  1.0928
 2657TIP3   OH229385   0.964   2.057  11.007 -0.0777 -0.4446  0.4048
 2657TIP3    H129386   0.902   2.025  10.942  0.6963 -1.3204  0.0586
 2657TIP3    H229387   0.960   2.152  11.001 -0.4667 -0.5119 -0.4953
 2658TIP3   OH229388   4.291   1.186  12.240  0.0774  0.3989  0.0081
 2658TIP3    H129389   4.331   1.235  12.168 -0.6903  0.7947 -0.1560
 2658TIP3    H229390   4.293   1.095  12.210 -2.4442  0.7945 -1.6440
 2659TIP3   OH229391   4.191   5.201   1.601 -0.6662 -0.9786  0.5453
 2659TIP3    H129392   4.230   5.286   1.619  0.4606 -1.6148  1.2228
 2659TIP3    H229393   4.141   5.180   1.680 -1.1662 -0.8269  0.2708
 2660TIP3   OH229394   4.458   0.102  13.983 -0.3711 -0.2497  0.1856
 2660TIP3    H129395   4.474   0.189  13.948 -1.4579 -0.5144 -1.0336
 2660TIP3    H229396   4.546   0.062  13.987 -0.0731  0.1612 -1.3268
 2661TIP3   OH229397   0.164   1.823  16.208  0.1093  0.5314  0.3908
 2661TIP3    H129398   0.152   1.735  16.243  1.3609  0.6356  1.1781
 2661TIP3    H229399   0.233   1.861  16.263  0.8693  1.3638 -1.0642
 2662TIP3   OH229400   6.095   4.632  15.340  0.1192 -0.3451 -0.2967
 2662TIP3    H129401   6.132   4.685  15.269  4.3537 -1.2175  0.9586
 2662TIP3    H229402   6.110   4.541  15.312 -2.0907 -0.8367 -0.0587
 2663TIP3   OH229403   2.313   1.953  13.660 -0.0602  0.2508  0.0198
 2663TIP3    H129404   2.363   2.024  13.620 -1.6600  1.2060 -0.3885
 2663TIP3    H229405   2.263   1.915  13.588 -3.1086  2.0997  0.9713
 2664TIP3   OH229406   1.616   1.926   0.848  0.0868 -0.5803 -0.4107
 2664TIP3    H129407   1.578   1.985   0.783 -1.4297 -0.8303  0.2020
 2664TIP3    H229408   1.697   1.969   0.875  0.3067 -0.0553 -1.8272
 2665TIP3   OH229409   6.729   6.719  13.713 -0.0646 -0.3345 -0.2152
 2665TIP3    H129410   6.706   6.696  13.803 -0.8811 -1.0753 -0.6054
 2665TIP3    H229411   6.825   6.718  13.712 -0.0536 -0.8707  0.5150
 2666TIP3   OH229412   3.721   4.573   2.887  0.3161 -0.2374 -0.4876
 2666TIP3    H129413   3.650   4.631   2.858 -0.1293  1.0402  2.7297
 2666TIP3    H229414   3.680   4.515   2.951  1.5500 -1.6583 -0.9442
 2667TIP3   OH229415   2.632   5.004   1.014  0.7708  0.0287  0.3606
 2667TIP3    H129416   2.652   4.921   0.970  2.8569 -0.1841  1.5843
 2667TIP3    H229417   2.585   4.978   1.093 -2.6516  0.3922 -1.3306
 2668TIP3   OH229418   4.888   1.185   5.991 -0.9146 -0.2010 -0.0467
 2668TIP3    H129419   4.877   1.159   5.900 -0.8074 -0.2542 -0.0444
 2668TIP3    H229420   4.978   1.216   5.996 -1.0621  0.2406 -0.0696
 2669TIP3   OH229421   0.685   5.914  13.659 -0.1379 -0.2827 -0.5355
 2669TIP3    H129422   0.740   5.982  13.620 -1.5199  0.6253 -0.9715
 2669TIP3    H229423   0.644   5.870  13.584 -0.4652 -0.5552 -0.1994
 2670TIP3   OH229424   3.390   1.236  10.958  0.4161  0.0524  0.4126
 2670TIP3    H129425   3.412   1.154  10.913 -2.4670 -0.0961 -0.9589
 2670TIP3    H229426   3.313   1.213  11.011  1.7504  1.0564  2.9537
 2671TIP3   OH229427   2.183   3.995  12.434 -0.1675  0.3495  0.2561
 2671TIP3    H129428   2.244   4.015  12.506 -0.6215 -0.4941  0.8829
 2671TIP3    H229429   2.194   4.069  12.374  1.2006  0.4157  0.5350
 2672TIP3   OH229430   3.622   0.602   1.330 -0.3388 -0.3160  0.0085
 2672TIP3    H129431   3.657   0.692   1.330  1.9445 -1.1497 -0.1818
 2672TIP3    H229432   3.538   0.610   1.374  0.5971  1.6525  1.6473
 2673TIP3   OH229433   4.956   5.883  15.099  0.0024  0.4362  0.6085
 2673TIP3    H129434   4.977   5.815  15.035 -1.7825  1.3672 -1.0871
 2673TIP3    H229435   4.873   5.920  15.068 -0.4541  1.5837  2.9731
 2674TIP3   OH229436   4.844   4.368  16.524  0.0285  0.2663 -0.4761
 2674TIP3    H129437   4.856   4.295  16.462  0.6936  2.0550 -2.5881
 2674TIP3    H229438   4.803   4.437  16.472 -1.1173  1.2492  1.6120
 2675TIP3   OH229439   5.481   0.843   1.551 -0.3555  0.2547 -0.1923
 2675TIP3    H129440   5.512   0.903   1.483  0.2200 -0.5482 -0.6684
 2675TIP3    H229441   5.491   0.756   1.511 -4.4617 -0.0813 -0.9108
 2676TIP3   OH229442   6.347   0.939  12.981 -0.1206 -0.0535 -0.1515
 2676TIP3    H129443   6.408   0.979  12.920 -1.8922  0.7467 -1.4712
 2676TIP3    H229444   6.345   0.999  13.056  0.8137 -0.1923 -0.0001
 2677TIP3   OH229445   3.086   5.823  15.786  0.7935 -0.1958 -0.1730
 2677TIP3    H129446   3.081   5.888  15.856 -1.1295  0.6859 -1.0518
 2677TIP3    H229447   3.136   5.866  15.717  0.1538  0.0951 -0.4661
 2678TIP3   OH229448   2.779   0.604  11.758 -0.5708 -0.2451  0.4930
 2678TIP3    H129449   2.816   0.565  11.680  1.5140  1.9658  0.2761
 2678TIP3    H229450   2.800   0.543  11.829 -0.4069 -1.1123 -0.2908
 2679TIP3   OH229451   3.312   0.982   2.608 -0.1129  0.2681  0.2586
 2679TIP3    H129452   3.352   1.032   2.537 -1.1753  0.0016 -0.5576
 2679TIP3    H229453   3.306   0.892   2.574 -1.6159  0.3462  0.2347
 2680TIP3   OH229454   1.933   3.619  12.989 -0.4466  0.0479 -0.5966
 2680TIP3    H129455   1.954   3.563  13.064  0.2218  1.0969  0.0080
 2680TIP3    H229456   1.909   3.557  12.920  1.1672 -1.0591 -0.2255
 2681TIP3   OH229457   2.351   4.141   0.956  0.4022  0.6000 -0.2563
 2681TIP3    H129458   2.372   4.186   0.875  1.1014  0.4753 -0.1543
 2681TIP3    H229459   2.261   4.165   0.975 -0.1241 -0.2062 -1.6227
 2682TIP3   OH229460   1.743   3.371  15.655 -0.2782  0.1502 -0.1448
 2682TIP3    H129461   1.773   3.460  15.641 -1.3890  0.8642  1.6987
 2682TIP3    H229462   1.730   3.364  15.749 -1.4360 -1.5575 -0.3790
 2683TIP3   OH229463   3.753   3.555   5.682  0.2062 -0.8862  0.5591
 2683TIP3    H129464   3.764   3.505   5.762 -0.5436 -0.9800  0.6145
 2683TIP3    H229465   3.840   3.557   5.642  0.2071 -2.4643  0.4110
 2684TIP3   OH229466   6.496   3.445   2.452 -0.0576 -0.1137  0.3218
 2684TIP3    H129467   6.524   3.516   2.510  0.6605  0.5586 -0.8320
 2684TIP3    H229468   6.471   3.488   2.371  1.1083 -1.2188 -0.6681
 2685TIP3   OH229469   3.486   0.904  14.583 -0.4760 -0.0939  0.4914
 2685TIP3    H129470   3.452   0.920  14.671 -0.0715 -2.1812  1.0709
 2685TIP3    H229471   3.559   0.843  14.596 -0.4195 -0.4467 -1.2875
 2686TIP3   OH229472   0.349   0.697   2.917  0.3964  0.0351 -0.2920
 2686TIP3    H129473   0.436   0.719   2.951  0.9153 -0.4151 -1.2778
 2686TIP3    H229474   0.328   0.613   2.957  1.0778 -0.5757 -1.1813
 2687TIP3   OH229475   5.583   3.286  13.921  0.3057  0.8432 -0.1776
 2687TIP3    H129476   5.491   3.262  13.915  0.4878 -0.3498  1.1237
 2687TIP3    H229477   5.630   3.211  13.884  0.7691  1.6123 -1.2060
 2688TIP3   OH229478   3.174   2.664  15.127 -0.4346 -0.3018  0.3682
 2688TIP3    H129479   3.150   2.591  15.069  1.2098 -1.2348  0.7909
 2688TIP3    H229480   3.092   2.690  15.168 -1.1761 -1.4423 -0.3290
 2689TIP3   OH229481   2.146   4.665   5.672 -0.0771 -0.0436  0.0854
 2689TIP3    H129482   2.225   4.670   5.726  0.0553 -2.4954  0.2491
 2689TIP3    H229483   2.172   4.612   5.597 -1.3490 -0.1277 -0.3127
 2690TIP3   OH229484   6.149   2.482  14.221 -0.4469  0.0320 -0.3552
 2690TIP3    H129485   6.085   2.514  14.284 -0.5214 -0.4951 -0.1594
 2690TIP3    H229486   6.097   2.445  14.150 -0.3647  0.7063 -0.7784
 2691TIP3   OH229487   0.600   1.894   4.093 -0.1193  0.5767  0.6784
 2691TIP3    H129488   0.510   1.872   4.117  0.0537 -0.5086  0.3901
 2691TIP3    H229489   0.597   1.908   3.999  0.3461 -1.4581  0.3039
 2692TIP3   OH229490   0.324   1.752  14.307  0.2307 -0.4227 -0.0202
 2692TIP3    H129491   0.369   1.673  14.339  2.3616  0.1502 -1.3992
 2692TIP3    H229492   0.259   1.718  14.246 -0.6468 -1.2203  1.2923
 2693TIP3   OH229493   2.679   1.144  14.232  0.0287  0.5536  0.6079
 2693TIP3    H129494   2.616   1.140  14.304  0.2295 -0.2548  0.7465
 2693TIP3    H229495   2.629   1.121  14.154 -0.0241  0.6827  0.6044
 2694TIP3   OH229496   2.101   0.349   0.782  0.0225 -0.4913 -0.4574
 2694TIP3    H129497   2.069   0.270   0.740 -0.4741 -0.7833  0.4413
 2694TIP3    H229498   2.126   0.321   0.870 -0.4217  0.3999 -0.0310
 2695TIP3   OH229499   4.987   0.195   2.247  0.0481 -0.0208  0.9293
 2695TIP3    H129500   5.045   0.269   2.268  0.0544  0.4002 -0.4502
 2695TIP3    H229501   5.042   0.135   2.196 -0.1202 -0.7018  1.5401
 2696TIP3   OH229502   1.526   3.265   3.831  0.3166  0.3619  0.1125
 2696TIP3    H129503   1.451   3.284   3.775  0.2007  0.8652  0.4270
 2696TIP3    H229504   1.503   3.304   3.915 -1.7855 -4.6120  2.2138
 2697TIP3   OH229505   2.910   5.545   4.134 -0.2036 -0.8934  0.3471
 2697TIP3    H129506   2.870   5.477   4.187 -0.6571 -1.2767 -0.4722
 2697TIP3    H229507   2.901   5.625   4.186 -0.6362 -1.2621  0.8415
 2698TIP3   OH229508   3.097   3.575   6.740 -0.2595 -0.0241  0.3984
 2698TIP3    H129509   3.123   3.484   6.751 -1.4476 -0.7071 -1.9297
 2698TIP3    H229510   3.171   3.626   6.774  1.0575 -1.8388  0.3462
 2699TIP3   OH229511   1.318   5.517   2.124  0.2969  0.4892  0.0155
 2699TIP3    H129512   1.315   5.498   2.031  0.4667 -0.1673  0.1361
 2699TIP3    H229513   1.227   5.521   2.152  0.1389 -3.5333  0.6187
 2700TIP3   OH229514   0.824   6.500  14.298 -0.3972 -0.1988  0.1703
 2700TIP3    H129515   0.835   6.592  14.273 -1.1503 -0.5047 -1.4046
 2700TIP3    H229516   0.902   6.457  14.263 -0.7782 -0.3998 -0.4431
 2701TIP3   OH229517   2.839   6.289   5.785 -0.2248 -0.5944  0.0534
 2701TIP3    H129518   2.876   6.318   5.869 -0.0359 -1.0350  0.1253
 2701TIP3    H229519   2.915   6.268   5.731 -0.3158 -3.1925  0.7911
 2702TIP3   OH229520   3.888   2.248  14.522  0.8026 -0.6096 -0.2839
 2702TIP3    H129521   3.893   2.190  14.598  2.4555  0.1907  0.2569
 2702TIP3    H229522   3.890   2.336  14.559 -0.3737 -0.1882 -1.1680
 2703TIP3   OH229523   1.712   4.258   3.646  0.2930 -0.4720 -0.0218
 2703TIP3    H129524   1.671   4.328   3.697  0.0787  0.7018 -1.7402
 2703TIP3    H229525   1.668   4.178   3.676  0.4245  0.1069  1.8606
 2704TIP3   OH229526   3.433   6.075  13.961 -0.0508  0.5419 -0.2101
 2704TIP3    H129527   3.520   6.091  13.925  0.2224  0.0528  0.1996
 2704TIP3    H229528   3.382   6.043  13.887  0.8205 -1.5828  0.0235
 2705TIP3   OH229529   4.173   2.264  16.409  0.4066  0.0975  0.0922
 2705TIP3    H129530   4.079   2.282  16.416  0.6117  0.8170  1.3267
 2705TIP3    H229531   4.196   2.291  16.320 -0.3744  0.7941  0.0929
 2706TIP3   OH229532   0.039   6.496  11.809 -0.1167 -0.5071  0.2164
 2706TIP3    H129533   0.082   6.523  11.728 -1.2015  2.1521  0.4371
 2706TIP3    H229534  -0.027   6.432  11.781 -0.5052  0.4043 -1.0343
 2707TIP3   OH229535   2.107   3.626   1.567 -0.2039  0.3941 -0.0673
 2707TIP3    H129536   2.038   3.570   1.531  0.4842 -0.2769 -0.3645
 2707TIP3    H229537   2.109   3.603   1.660 -0.1874  0.2066 -0.1127
 2708TIP3   OH229538   1.964   4.914  11.691  0.8662  0.1950 -0.4407
 2708TIP3    H129539   2.005   4.995  11.721 -2.9303  2.0618  0.3423
 2708TIP3    H229540   1.971   4.855  11.765  1.1292  0.8338  0.0524
 2709TIP3   OH229541   2.723   6.511  17.155  0.2790 -0.0932 -0.4715
 2709TIP3    H129542   2.805   6.555  17.131  0.5940 -0.4071 -0.0021
 2709TIP3    H229543   2.746   6.418  17.154  0.1965 -0.1389  0.6105
 2710TIP3   OH229544   2.633   2.995  16.561 -0.7397 -0.5084  0.0472
 2710TIP3    H129545   2.676   3.068  16.518  0.4538 -0.4332  1.2900
 2710TIP3    H229546   2.701   2.928  16.569 -1.0304 -0.6755  1.3972
 2711TIP3   OH229547   0.319   4.375  11.878 -0.1677  0.2305  0.5340
 2711TIP3    H129548   0.388   4.416  11.826 -0.8982  1.6276  0.6048
 2711TIP3    H229549   0.363   4.304  11.925  1.0314  0.5599 -0.0581
 2712TIP3   OH229550   0.817   3.671   4.288  0.5082  0.0241  0.1717
 2712TIP3    H129551   0.825   3.591   4.339  0.2951 -1.0186 -1.3718
 2712TIP3    H229552   0.793   3.642   4.200 -1.8493  1.9070  0.0904
 2713TIP3   OH229553   2.085   1.664  13.962  0.0697 -0.0387 -0.2431
 2713TIP3    H129554   2.152   1.733  13.966  0.6772 -0.6644  0.7900
 2713TIP3    H229555   2.130   1.590  13.923 -0.3374 -0.1219 -0.5557
 2714TIP3   OH229556   5.392   4.895   4.140 -0.7515  0.2835 -0.1808
 2714TIP3    H129557   5.402   4.979   4.095  0.5173  1.0807  1.4824
 2714TIP3    H229558   5.445   4.904   4.219 -0.2533 -2.2515 -0.1551
 2715TIP3   OH229559   5.174   3.579   0.490 -0.7205 -0.6944  0.2253
 2715TIP3    H129560   5.210   3.499   0.452 -0.5160  0.7322 -2.8894
 2715TIP3    H229561   5.244   3.644   0.479 -1.1043  0.0859  2.1048
 2716TIP3   OH229562   0.882   5.376   2.738 -0.5723 -0.4154 -0.2575
 2716TIP3    H129563   0.878   5.378   2.643 -1.7486  0.4284 -0.2093
 2716TIP3    H229564   0.959   5.322   2.758  0.0894 -0.0294 -1.6767
 2717TIP3   OH229565   6.358   6.594  15.159  0.1602  0.3562 -0.1460
 2717TIP3    H129566   6.263   6.601  15.148 -0.7135 -1.9614  4.1229
 2717TIP3    H229567   6.386   6.682  15.186 -0.8549  0.8487 -0.6510
 2718TIP3   OH229568   1.469   5.884   3.031  0.0308 -0.0878 -0.3170
 2718TIP3    H129569   1.391   5.905   3.084  0.2423  1.4252 -0.5639
 2718TIP3    H229570   1.541   5.886   3.094  0.3491  2.1837 -0.6790
 2719TIP3   OH229571   4.104   5.853  14.599 -0.3393  0.5826 -0.2933
 2719TIP3    H129572   4.200   5.850  14.601 -0.3672  0.0461  0.8076
 2719TIP3    H229573   4.076   5.779  14.653 -1.4005 -0.1932 -1.8337
 2720TIP3   OH229574   6.234   0.532   4.601 -0.2894  0.1646  0.3455
 2720TIP3    H129575   6.168   0.584   4.555 -0.6192  0.1578  0.8078
 2720TIP3    H229576   6.190   0.501   4.679  0.0635 -0.3902  0.3292
 2721TIP3   OH229577   0.043   4.806  15.612 -0.3638  0.0038  0.0522
 2721TIP3    H129578   0.087   4.725  15.638 -1.7115 -0.4277  1.1569
 2721TIP3    H229579  -0.005   4.782  15.533  2.2814  0.8233 -1.9438
 2722TIP3   OH229580   1.484   5.537  17.173 -0.3900 -0.1232  0.1579
 2722TIP3    H129581   1.527   5.476  17.232  2.9767  0.6628 -1.2330
 2722TIP3    H229582   1.416   5.578  17.226  1.6867 -0.2499  3.1912
 2723TIP3   OH229583   5.749   6.404   0.881  0.4045  0.0899  1.0847
 2723TIP3    H129584   5.728   6.449   0.963  0.5028 -0.8591  1.6372
 2723TIP3    H229585   5.844   6.400   0.880  0.4234  0.4916  0.6962
 2724TIP3   OH229586   5.279   0.146  17.368  0.1428 -0.1009 -1.0307
 2724TIP3    H129587   5.316   0.168  17.282 -1.2607 -2.0720 -2.2347
 2724TIP3    H229588   5.189   0.179  17.364  0.4756  1.1000  0.3196
 2725TIP3   OH229589   4.875   0.398   6.998  0.0913  0.0332  0.0018
 2725TIP3    H129590   4.875   0.350   6.915 -0.9182 -1.5671  0.8920
 2725TIP3    H229591   4.965   0.389   7.031  0.3387  0.1726 -0.6110
 2726TIP3   OH229592   0.988   5.732   6.200 -0.0843 -0.1237  0.1564
 2726TIP3    H129593   0.968   5.799   6.265 -0.3479 -1.3138  1.3460
 2726TIP3    H229594   0.912   5.733   6.141 -0.2564  0.3693  0.3835
 2727TIP3   OH229595   1.322   2.826  13.724  0.0352  0.0025 -0.3381
 2727TIP3    H129596   1.379   2.848  13.797 -0.4640 -1.0543  0.3861
 2727TIP3    H229597   1.306   2.910  13.680  0.5041  0.6208  0.6357
 2728TIP3   OH229598   2.215   6.250   0.213 -0.2902 -0.0116  0.4539
 2728TIP3    H129599   2.152   6.309   0.255 -1.0548  0.2689 -0.9971
 2728TIP3    H229600   2.237   6.186   0.280 -2.3727 -0.3065  0.9355
 2729TIP3   OH229601   2.791   0.267  13.854  0.0480 -0.1076  0.2470
 2729TIP3    H129602   2.844   0.316  13.917 -0.1224  0.0345  0.2824
 2729TIP3    H229603   2.803   0.315  13.772 -1.5478  1.0786  0.6626
 2730TIP3   OH229604   0.663   1.108   5.531  0.1677  0.3521 -0.1699
 2730TIP3    H129605   0.639   1.125   5.622 -0.9055  0.4990 -0.4761
 2730TIP3    H229606   0.592   1.055   5.497  2.5582 -3.6190  0.2835
 2731TIP3   OH229607   4.099   1.851   3.392 -0.2200 -0.1047  0.2270
 2731TIP3    H129608   4.130   1.860   3.482  2.8585  0.2361 -0.7372
 2731TIP3    H229609   4.128   1.763   3.366  2.5440  1.1886 -1.5410
 2732TIP3   OH229610   6.651   5.168   3.906  0.3972  0.0346 -0.0584
 2732TIP3    H129611   6.626   5.239   3.965  0.2299 -1.9512  2.4314
 2732TIP3    H229612   6.747   5.167   3.908  0.3995  0.1863 -0.1051
 2733TIP3   OH229613   3.260   0.508  13.469 -0.4063  0.0813 -0.1560
 2733TIP3    H129614   3.341   0.546  13.502 -1.9468  1.7759  2.0377
 2733TIP3    H229615   3.276   0.490  13.377  1.9338  1.8289 -0.1571
 2734TIP3   OH229616   6.081   1.849  14.218 -0.2021  0.0060 -0.1633
 2734TIP3    H129617   6.088   1.805  14.303 -1.4965  1.7161  0.8984
 2734TIP3    H229618   6.145   1.805  14.163 -0.3659 -2.1654  1.2440
 2735TIP3   OH229619   5.676   1.476  12.925  0.1159  0.3585 -0.1377
 2735TIP3    H129620   5.595   1.456  12.877  0.2149  0.4684 -0.3524
 2735TIP3    H229621   5.733   1.401  12.907 -0.1130  0.0489  0.4109
 2736TIP3   OH229622   3.343   6.470  12.602 -0.1996 -0.4691  0.2797
 2736TIP3    H129623   3.252   6.442  12.591 -0.0193 -0.7421 -0.6318
 2736TIP3    H229624   3.357   6.532  12.530  0.4796 -0.8070  0.1185
 2737TIP3   OH229625   3.118   3.063   3.447  0.3920 -0.0416 -0.3397
 2737TIP3    H129626   3.197   3.045   3.395  0.7651  0.2264  0.1290
 2737TIP3    H229627   3.060   2.990   3.428  1.2385 -0.9037  0.2661
 2738TIP3   OH229628   3.474   4.800   6.731 -0.0686  0.5088  0.3935
 2738TIP3    H129629   3.439   4.885   6.759 -0.7391  0.1413  0.7143
 2738TIP3    H229630   3.546   4.783   6.791  0.3327  1.0387  0.0658
 2739TIP3   OH229631   1.544   1.607  13.594  0.0533 -0.3429  0.0653
 2739TIP3    H129632   1.570   1.537  13.655 -1.8788 -1.7935 -0.6703
 2739TIP3    H229633   1.534   1.563  13.510  0.1156  1.1196 -0.7380
 2740TIP3   OH229634   1.857   3.771   4.265  0.4213 -0.0138 -0.8453
 2740TIP3    H129635   1.823   3.809   4.346 -1.2664  1.3610 -2.1268
 2740TIP3    H229636   1.951   3.789   4.269  0.3508  0.2223  0.6904
 2741TIP3   OH229637   5.693   4.416   1.238 -0.1189 -0.3083  0.4488
 2741TIP3    H129638   5.694   4.349   1.170  0.1838  0.9731 -0.8684
 2741TIP3    H229639   5.752   4.484   1.206 -0.2521  0.5109  1.8277
 2742TIP3   OH229640   2.077   2.008   2.261  0.0873 -0.2136 -0.1244
 2742TIP3    H129641   2.014   1.989   2.331  2.5430 -3.1710  1.5209
 2742TIP3    H229642   2.149   2.052   2.305  0.6439  0.0839 -1.3060
 2743TIP3   OH229643   6.655   0.458   3.927  0.4929  0.7887 -0.4370
 2743TIP3    H129644   6.626   0.382   3.877  0.8099 -0.8084  1.6612
 2743TIP3    H229645   6.589   0.525   3.909  0.1214 -0.0009 -2.2249
 2744TIP3   OH229646   3.335   4.105   3.666  0.6904  0.5820  0.0979
 2744TIP3    H129647   3.371   4.105   3.754  0.6290  0.0274  0.1231
 2744TIP3    H229648   3.410   4.089   3.609  0.4517 -0.9335  0.1729
 2745TIP3   OH229649   2.101   1.650  11.302 -0.2391 -0.3177  0.0071
 2745TIP3    H129650   2.182   1.608  11.272 -0.5571 -0.3892 -0.7617
 2745TIP3    H229651   2.035   1.623  11.239 -1.1371 -1.2088  1.2852
 2746TIP3   OH229652   4.066   6.544  13.612 -0.4464 -0.3347  0.4106
 2746TIP3    H129653   4.099   6.634  13.600 -0.1786 -0.4939 -0.0632
 2746TIP3    H229654   4.075   6.504  13.526 -3.5008  0.1263 -0.2512
 2747TIP3   OH229655   3.799   6.680  17.102 -0.6144  0.1292  0.2226
 2747TIP3    H129656   3.813   6.668  17.196 -0.3274  0.9352  0.2919
 2747TIP3    H229657   3.860   6.618  17.061 -2.2758 -1.8235  0.5454
 2748TIP3   OH229658   3.567   3.050  12.397  0.4544 -0.4037 -0.7369
 2748TIP3    H129659   3.510   3.117  12.434 -1.0542  0.8183 -4.6793
 2748TIP3    H229660   3.511   2.972  12.390  1.5523 -1.5268  1.8155
 2749TIP3   OH229661   4.417   1.974  11.771  0.0342 -0.0850 -0.5015
 2749TIP3    H129662   4.470   1.946  11.697  0.2697 -0.8214 -0.0697
 2749TIP3    H229663   4.373   2.053  11.741  2.3747  1.3454 -0.4612
 2750TIP3   OH229664   1.320   2.258  14.488  0.2233 -0.3276  0.0364
 2750TIP3    H129665   1.352   2.214  14.409  0.6077 -0.4474  0.2563
 2750TIP3    H229666   1.289   2.343  14.457 -0.0145 -0.5364 -0.3064
 2751TIP3   OH229667   4.012   6.298   0.606 -0.1591  0.3054  0.1737
 2751TIP3    H129668   3.979   6.362   0.543  0.7348 -1.2838 -2.0042
 2751TIP3    H229669   3.937   6.280   0.663 -1.6860  0.1789 -1.7823
 2752TIP3   OH229670   3.727   5.374   5.691  0.1443 -0.4529 -0.0965
 2752TIP3    H129671   3.776   5.450   5.660  0.9100 -0.8509  0.1012
 2752TIP3    H229672   3.769   5.351   5.774 -0.6869 -0.5257  0.3221
 2753TIP3   OH229673   0.059   0.273   6.053 -0.0567  0.2243  0.1377
 2753TIP3    H129674   0.050   0.179   6.039 -0.7400 -0.0193  1.8570
 2753TIP3    H229675  -0.010   0.293   6.117  1.1669  1.5614  1.0831
 2754TIP3   OH229676   0.517   4.000   6.339  0.6795 -0.4132  0.4345
 2754TIP3    H129677   0.589   3.972   6.395  2.4787 -0.7846 -1.8704
 2754TIP3    H229678   0.497   3.922   6.286 -2.0226 -0.5613  1.4942
 2755TIP3   OH229679   3.100   2.785   2.481 -0.0804  0.3945 -0.2755
 2755TIP3    H129680   3.091   2.738   2.398 -0.7913 -1.4054  0.7637
 2755TIP3    H229681   3.185   2.759   2.516  0.0194  0.7916 -0.2073
 2756TIP3   OH229682   1.486   4.455  13.204 -0.1284  0.5252 -0.0501
 2756TIP3    H129683   1.507   4.548  13.212  0.4550  0.5625 -1.7528
 2756TIP3    H229684   1.525   4.416  13.283 -1.5133  1.8568  1.3718
 2757TIP3   OH229685   4.651   2.691   1.285 -0.1201 -0.0437 -0.1281
 2757TIP3    H129686   4.633   2.742   1.364 -1.8514 -1.9833  0.8139
 2757TIP3    H229687   4.637   2.753   1.213  0.5183  1.5014  1.0373
 2758TIP3   OH229688   0.730   2.671  12.138  0.1768  0.1177 -0.5126
 2758TIP3    H129689   0.706   2.609  12.206  0.2649 -1.3816 -1.7917
 2758TIP3    H229690   0.818   2.645  12.111  2.5171  3.9409  2.3367
 2759TIP3   OH229691   5.822   1.747   3.903 -0.1676  0.3337 -0.0333
 2759TIP3    H129692   5.750   1.684   3.895  0.3894 -0.0890 -2.5189
 2759TIP3    H229693   5.808   1.809   3.831  1.4447  0.7699 -0.0148
 2760TIP3   OH229694   4.066   2.641   3.188 -0.1808  0.2757 -0.1973
 2760TIP3    H129695   4.122   2.577   3.232  0.9529  1.3317 -0.0094
 2760TIP3    H229696   3.998   2.661   3.252 -0.3563 -0.4896 -0.1382
 2761TIP3   OH229697   6.162   1.659   3.112 -0.4611  0.0818  0.3886
 2761TIP3    H129698   6.209   1.743   3.111  0.9455 -0.6816 -0.8745
 2761TIP3    H229699   6.123   1.652   3.025  0.7123 -1.2341 -0.0713
 2762TIP3   OH229700   3.703   4.455  11.517  0.2376  0.4892  0.5326
 2762TIP3    H129701   3.616   4.448  11.559  0.3683  3.0387  1.3683
 2762TIP3    H229702   3.749   4.377  11.548 -0.7420  0.6640  2.6454
 2763TIP3   OH229703   5.616   4.140   4.557  0.1585 -0.3036 -0.2912
 2763TIP3    H129704   5.620   4.056   4.510  1.1415 -0.4966  0.1176
 2763TIP3    H229705   5.579   4.118   4.642 -0.7939 -0.1018 -0.6484
 2764TIP3   OH229706   3.975   5.274  11.019 -0.2052 -0.5791 -0.5686
 2764TIP3    H129707   4.011   5.202  11.070  1.2130  0.1666 -0.4434
 2764TIP3    H229708   3.883   5.252  11.005 -0.3938 -1.2504  1.5104
 2765TIP3   OH229709   0.609   4.253  14.483 -0.5991 -0.5545 -0.0540
 2765TIP3    H129710   0.669   4.179  14.469  1.0902  0.2198  2.5370
 2765TIP3    H229711   0.655   4.329  14.448 -1.4011 -0.3525 -0.7207
 2766TIP3   OH229712   0.781   3.892   2.809 -0.0667 -0.5105  0.2238
 2766TIP3    H129713   0.750   3.916   2.722 -1.3932  1.1142  1.0815
 2766TIP3    H229714   0.813   3.802   2.799 -0.6721 -0.5563 -1.8025
 2767TIP3   OH229715   4.735   0.942   2.439  0.0460  0.3970  0.6790
 2767TIP3    H129716   4.642   0.925   2.449 -0.0716  0.4350 -0.2572
 2767TIP3    H229717   4.758   0.902   2.355  0.7955  0.6847  0.7367
 2768TIP3   OH229718   1.530   2.699  17.028  0.4168 -1.0710 -0.1001
 2768TIP3    H129719   1.462   2.716  16.963 -0.1278 -0.1174  0.6949
 2768TIP3    H229720   1.585   2.631  16.988 -1.8039 -2.9495 -0.1930
 2769TIP3   OH229721   3.770   4.877   5.704 -0.3571 -0.1941  0.2138
 2769TIP3    H129722   3.759   4.950   5.644 -1.8744  0.0530  0.7279
 2769TIP3    H229723   3.781   4.800   5.647 -0.5425  0.1976 -0.3592
 2770TIP3   OH229724   6.113   5.651  13.734 -0.1150  0.1876 -0.6105
 2770TIP3    H129725   6.043   5.675  13.795  0.2727 -1.0187  0.3698
 2770TIP3    H229726   6.098   5.705  13.656 -1.9288  0.1902 -0.2935
 2771TIP3   OH229727   1.376   5.957   5.175 -0.1526 -0.0603 -0.0617
 2771TIP3    H129728   1.292   5.918   5.148  0.5588 -0.8486 -1.2127
 2771TIP3    H229729   1.353   6.048   5.198 -1.1588  0.0880 -1.4764
 2772TIP3   OH229730   0.904   3.827  10.846  0.1023 -0.4053  0.4217
 2772TIP3    H129731   0.948   3.912  10.855 -1.8829  0.4898  2.9342
 2772TIP3    H229732   0.829   3.845  10.789 -0.9394 -0.0993  1.8092
 2773TIP3   OH229733   1.445   0.071   4.318 -0.0713  0.1375 -0.3566
 2773TIP3    H129734   1.504   0.008   4.361 -1.0433 -0.0278  0.7722
 2773TIP3    H229735   1.483   0.157   4.338 -0.5184  0.0633  0.8737
 2774TIP3   OH229736   1.482   0.977   2.147 -0.0889 -0.9810 -0.7429
 2774TIP3    H129737   1.400   0.981   2.196  1.5462 -1.3228  2.2147
 2774TIP3    H229738   1.480   1.054   2.090 -1.5763  0.1693  0.7718
 2775TIP3   OH229739   2.574   6.151   2.170 -0.4698 -0.1184 -0.3878
 2775TIP3    H129740   2.552   6.119   2.257 -0.7046 -0.7060 -0.6579
 2775TIP3    H229741   2.491   6.180   2.133 -0.3554  0.2275 -0.3844
 2776TIP3   OH229742   3.152   2.198  15.761 -0.8039  0.4928 -0.0286
 2776TIP3    H129743   3.106   2.208  15.677  0.5284 -2.9802 -1.3806
 2776TIP3    H229744   3.180   2.106  15.762  0.5778  0.7827  3.5885
 2777TIP3   OH229745   4.352   2.194  15.542 -0.3185  0.0955 -0.6510
 2777TIP3    H129746   4.284   2.187  15.609  0.9088  2.8481  1.0477
 2777TIP3    H229747   4.331   2.276  15.496  0.7101 -0.0950 -1.4927
 2778TIP3   OH229748   4.552   2.751  16.998 -0.4622  0.2064 -0.0491
 2778TIP3    H129749   4.497   2.756  16.920 -0.0398  2.2384 -0.2853
 2778TIP3    H229750   4.541   2.662  17.031 -2.4511  0.0173 -1.1160
 2779TIP3   OH229751   2.980   0.449   0.747 -0.2294  0.3667 -0.4521
 2779TIP3    H129752   3.051   0.387   0.766 -0.0272  0.6227 -0.3655
 2779TIP3    H229753   2.905   0.394   0.726 -0.2550  0.0874  0.3639
 2780TIP3   OH229754   3.465   4.582  14.575 -0.5196 -0.3604 -0.2484
 2780TIP3    H129755   3.373   4.609  14.576 -0.0733  1.3872  1.2580
 2780TIP3    H229756   3.492   4.589  14.667  1.3153 -0.0547 -0.7774
 2781TIP3   OH229757   1.203   4.955  16.417 -0.1014 -0.4974  0.4206
 2781TIP3    H129758   1.218   4.994  16.331 -2.5219  0.1903  0.2460
 2781TIP3    H229759   1.230   4.864  16.407  1.2061 -0.0341 -0.5448
 2782TIP3   OH229760   1.063   4.089   2.001 -0.0224 -0.0804  0.4257
 2782TIP3    H129761   1.094   4.005   2.035 -0.2267 -0.2407  0.2214
 2782TIP3    H229762   1.121   4.154   2.041  1.0912 -0.4349 -0.5492
 2783TIP3   OH229763   5.144   3.763   6.636 -0.1831  0.6930  0.4831
 2783TIP3    H129764   5.199   3.696   6.676 -0.1793 -0.5018 -1.4007
 2783TIP3    H229765   5.206   3.821   6.590 -0.2582  1.4821  1.3464
 2784TIP3   OH229766   3.294   3.841   6.077 -0.3960 -0.5093  0.4459
 2784TIP3    H129767   3.387   3.862   6.082 -0.8978  2.2449 -0.5921
 2784TIP3    H229768   3.281   3.809   5.988 -0.3438 -1.7269  0.8497
 2785TIP3   OH229769   2.424   5.676  11.403 -0.3234 -0.3658 -0.0997
 2785TIP3    H129770   2.372   5.603  11.368 -1.6249  0.6194 -0.2786
 2785TIP3    H229771   2.489   5.693  11.334 -1.2112 -0.1421 -0.9022
 2786TIP3   OH229772   5.572   4.129  11.157  0.3907 -0.2194  0.2822
 2786TIP3    H129773   5.643   4.192  11.148  0.3419 -0.3647 -1.4874
 2786TIP3    H229774   5.615   4.046  11.177  0.5890  0.0104  0.8171
 2787TIP3   OH229775   2.471   3.798  13.392  0.0908  0.4356  0.3953
 2787TIP3    H129776   2.411   3.789  13.318  1.7461  0.0455 -0.9697
 2787TIP3    H229777   2.557   3.813  13.352  1.4585 -1.9876  2.1008
 2788TIP3   OH229778   3.066   5.205  15.337  0.6231 -0.4356  0.3055
 2788TIP3    H129779   3.137   5.261  15.369  1.1180 -0.9499  0.1454
 2788TIP3    H229780   2.992   5.263  15.326  0.6071 -0.1375  1.8183
 2789TIP3   OH229781   4.821   6.319  14.044 -0.7721  0.2138  0.0672
 2789TIP3    H129782   4.741   6.321  14.098  0.2835 -3.2894  2.0823
 2789TIP3    H229783   4.799   6.260  13.972  0.0936 -1.1570  0.9017
 2790TIP3   OH229784   4.862   0.082  13.731  0.0575 -0.1992 -0.0997
 2790TIP3    H129785   4.918   0.084  13.654 -1.1824  2.2475 -1.0507
 2790TIP3    H229786   4.915   0.119  13.801 -0.2182  1.8634 -0.9300
 2791TIP3   OH229787   3.800   5.228   4.523  0.9138 -0.2602 -0.3072
 2791TIP3    H129788   3.804   5.139   4.486 -0.4438  0.0116 -1.1602
 2791TIP3    H229789   3.849   5.282   4.460  1.7989 -0.4029  0.2473
 2792TIP3   OH229790   4.176   0.870  15.514  0.5079 -0.2376  0.1747
 2792TIP3    H129791   4.096   0.917  15.538 -0.1990 -1.7417  0.9014
 2792TIP3    H229792   4.205   0.911  15.433 -0.2814  1.1722  0.5734
 2793TIP3   OH229793   1.027   2.808  11.876  0.3725 -0.3012 -0.3910
 2793TIP3    H129794   1.063   2.775  11.958 -3.1206  2.1716  2.4687
 2793TIP3    H229795   0.968   2.739  11.845 -1.4113  0.2152  1.5941
 2794TIP3   OH229796   2.315   2.815  14.230 -0.1700 -0.2480  0.2660
 2794TIP3    H129797   2.403   2.817  14.268  0.1355 -0.2540 -0.4334
 2794TIP3    H229798   2.258   2.787  14.302  0.6327 -1.9017  0.2897
 2795TIP3   OH229799   3.631   6.097  12.258  0.1964  0.6050  0.2090
 2795TIP3    H129800   3.663   6.036  12.325  0.7852 -0.2572 -0.8136
 2795TIP3    H229801   3.583   6.163  12.307  0.6234  0.0163  1.4843
 2796TIP3   OH229802   0.942   6.001  14.556  0.4734  0.1079 -0.4436
 2796TIP3    H129803   1.031   6.029  14.577  1.4453 -2.3913 -0.9483
 2796TIP3    H229804   0.933   6.018  14.462  0.4770  0.2034 -0.4264
 2797TIP3   OH229805   5.546   6.627  14.179 -0.2565 -0.4353 -0.4452
 2797TIP3    H129806   5.457   6.604  14.151 -0.5355  0.6880 -0.5411
 2797TIP3    H229807   5.593   6.646  14.098 -0.2242 -0.0482 -0.3388
 2798TIP3   OH229808   6.566   4.362  17.230 -0.6835 -0.6827 -0.1576
 2798TIP3    H129809   6.503   4.408  17.286 -0.5503  0.3658 -0.8297
 2798TIP3    H229810   6.538   4.271  17.232 -0.8920 -0.6109  1.3248
 2799TIP3   OH229811   6.536   5.147   3.041 -0.1560  0.5314  0.2708
 2799TIP3    H129812   6.472   5.182   2.980 -0.0937  0.4156  0.1393
 2799TIP3    H229813   6.555   5.059   3.009 -2.5536 -0.8408  2.2927
 2800TIP3   OH229814   1.218   6.091  12.790  0.0091  0.3959  0.3763
 2800TIP3    H129815   1.154   6.157  12.818 -0.5610 -0.4856  1.2357
 2800TIP3    H229816   1.303   6.128  12.815 -0.2568  1.0686  0.2987
 2801TIP3   OH229817   3.404   6.700  12.991  0.2377 -0.4826  0.0068
 2801TIP3    H129818   3.343   6.718  12.919  0.2524  0.6169  0.2458
 2801TIP3    H229819   3.376   6.615  13.025 -1.0067 -0.1260 -0.0585
 2802TIP3   OH229820   5.786   1.593  13.713  0.6839  0.3027 -0.0481
 2802TIP3    H129821   5.731   1.591  13.791  0.1099  1.0461 -0.4250
 2802TIP3    H229822   5.875   1.590  13.747  0.4323 -0.9999  0.5669
 2803TIP3   OH229823   3.135   5.908  12.922 -0.7425  0.1159  0.3051
 2803TIP3    H129824   3.218   5.955  12.922 -1.2238  1.0523  1.8918
 2803TIP3    H229825   3.069   5.975  12.943 -1.6826 -0.9179  0.7652
 2804TIP3   OH229826   1.699   3.787  11.639  0.0045  0.3500  0.7708
 2804TIP3    H129827   1.731   3.716  11.584  1.8602  0.1011  2.0740
 2804TIP3    H229828   1.764   3.856  11.630 -1.7101  1.9227 -0.3807
 2805TIP3   OH229829   2.262   4.592   6.225  0.2128 -0.4304  0.4880
 2805TIP3    H129830   2.340   4.625   6.179  0.2637 -0.8263  0.2868
 2805TIP3    H229831   2.239   4.512   6.179  0.7571 -1.2971  1.6833
 2806TIP3   OH229832   0.513   0.708   3.306 -0.2367 -0.5462  0.3950
 2806TIP3    H129833   0.434   0.762   3.301 -0.0058 -0.0822  1.6456
 2806TIP3    H229834   0.584   0.770   3.322  0.2656 -1.0617  0.2138
 2807TIP3   OH229835   1.499   3.159  13.792  0.3606 -0.2818 -0.3396
 2807TIP3    H129836   1.565   3.227  13.783  0.1309 -0.2554 -2.1431
 2807TIP3    H229837   1.548   3.077  13.783  0.5852 -0.3844  1.4847
 2808TIP3   OH229838   0.769   1.507   5.462 -0.2816  0.1840 -0.4116
 2808TIP3    H129839   0.801   1.431   5.413 -0.2487  1.9457 -3.3195
 2808TIP3    H229840   0.843   1.533   5.517 -1.0749 -3.2609  2.7426
 2809TIP3   OH229841   3.776   4.714   1.154 -0.0687 -0.5609  0.0792
 2809TIP3    H129842   3.716   4.743   1.223 -1.1691  0.1720 -1.1334
 2809TIP3    H229843   3.809   4.795   1.114  0.5487 -0.9677 -0.2619
 2810TIP3   OH229844   5.783   3.240  16.501  0.4631  0.1785 -0.6451
 2810TIP3    H129845   5.806   3.296  16.576 -0.2027 -2.1690  1.4627
 2810TIP3    H229846   5.866   3.200  16.475  0.5451  0.2363 -0.4730
 2811TIP3   OH229847   0.782   1.722  16.007  0.2397 -0.6108 -0.4328
 2811TIP3    H129848   0.736   1.780  16.067 -0.6162 -0.9676 -0.7234
 2811TIP3    H229849   0.874   1.746  16.017  0.4407 -2.2344  2.7387
 2812TIP3   OH229850   1.053   5.072  12.110 -0.6127  0.2066  0.1055
 2812TIP3    H129851   0.988   5.118  12.163 -0.7697  0.3023 -0.1713
 2812TIP3    H229852   1.006   4.997  12.074 -1.1345  1.3787 -1.7524
 2813TIP3   OH229853   5.241   1.504   2.024 -0.7051 -0.1404  0.0483
 2813TIP3    H129854   5.155   1.468   2.002 -2.3871  1.8474  2.6974
 2813TIP3    H229855   5.246   1.495   2.119  0.4569  2.9228  0.3582
 2814TIP3   OH229856   0.439   4.901  13.883  1.0788 -0.0539 -0.2421
 2814TIP3    H129857   0.412   4.993  13.886  1.4151  0.0313  0.3539
 2814TIP3    H229858   0.439   4.879  13.790  1.4164  0.6776 -0.4225
 2815TIP3   OH229859   6.104   4.846  17.088 -0.0610  0.2991  0.2619
 2815TIP3    H129860   6.043   4.918  17.104 -1.2368 -0.4758 -0.6093
 2815TIP3    H229861   6.189   4.889  17.079 -0.5225  1.4424  1.0425
 2816TIP3   OH229862   0.427   0.050   1.985  0.1526 -0.1823  0.8434
 2816TIP3    H129863   0.382   0.078   1.905  2.3288  2.8875  0.5029
 2816TIP3    H229864   0.363   0.065   2.054 -0.2100  1.8699  0.1449
 2817TIP3   OH229865   1.958   5.973  12.562  0.0920 -0.6961  0.2651
 2817TIP3    H129866   1.919   5.913  12.499 -0.4660 -0.2710  0.1943
 2817TIP3    H229867   1.921   6.058  12.540 -2.6858 -0.9736  3.1066
 2818TIP3   OH229868   5.940   0.556   4.833 -0.0109  0.0509  0.3010
 2818TIP3    H129869   5.985   0.473   4.816 -0.6625 -0.4119  0.7889
 2818TIP3    H229870   5.970   0.583   4.920 -0.4270 -0.0992  0.4937
 2819TIP3   OH229871   2.234   4.381   3.127  0.0960  0.3061  0.5362
 2819TIP3    H129872   2.225   4.397   3.221 -1.9459  0.0153  0.4377
 2819TIP3    H229873   2.188   4.298   3.113  1.4839 -0.3127 -0.5463
 2820TIP3   OH229874   5.787   6.685   3.625  0.0749 -0.1915  0.3069
 2820TIP3    H129875   5.802   6.723   3.538 -1.8152 -0.1452 -0.0375
 2820TIP3    H229876   5.863   6.629   3.640  2.1374  2.3664  0.1016
 2821TIP3   OH229877   5.905   6.191   1.371  0.2917 -0.5746 -0.4188
 2821TIP3    H129878   5.828   6.247   1.360 -1.1325 -2.0094  1.5557
 2821TIP3    H229879   5.884   6.112   1.321  1.1984 -0.3740 -1.1436
 2822TIP3   OH229880   4.617   6.688   2.196  0.4808  0.0880 -0.9232
 2822TIP3    H129881   4.671   6.757   2.235  1.4403 -0.4489 -1.2754
 2822TIP3    H229882   4.597   6.630   2.269 -0.6913  0.9348 -0.5324
 2823TIP3   OH229883   2.563   4.479   4.147  0.2892 -0.0808  0.3665
 2823TIP3    H129884   2.513   4.399   4.167  2.1292 -1.6866 -1.1206
 2823TIP3    H229885   2.505   4.550   4.174 -2.1642 -1.8579  0.1323
 2824TIP3   OH229886   1.039   1.247   6.383 -0.0548  0.9110  0.4757
 2824TIP3    H129887   1.105   1.181   6.408 -0.8980  0.5861  1.9399
 2824TIP3    H229888   1.032   1.304   6.460  0.0492  2.2281 -0.4681
 2825TIP3   OH229889   3.911   3.290   2.428 -0.2655 -0.1359 -0.2120
 2825TIP3    H129890   4.003   3.265   2.421 -0.3072 -0.0323 -1.2937
 2825TIP3    H229891   3.872   3.261   2.346 -0.6707  1.9562 -0.8063
 2826TIP3   OH229892   3.078   4.518  15.937 -0.3670 -0.3435 -0.0639
 2826TIP3    H129893   3.119   4.591  15.983 -0.8667 -0.8320  1.1956
 2826TIP3    H229894   3.110   4.440  15.983 -0.1124 -0.9061 -1.1721
 2827TIP3   OH229895   0.908   5.450  14.149  0.0171 -0.2927 -0.3835
 2827TIP3    H129896   0.966   5.377  14.169 -0.0025 -0.1368  0.2846
 2827TIP3    H229897   0.929   5.516  14.215 -0.1260  0.2138 -0.8349
 2828TIP3   OH229898   4.129   6.483  14.063  0.8168 -0.6964  0.2376
 2828TIP3    H129899   4.139   6.558  14.004  0.3000 -0.7948  0.0258
 2828TIP3    H229900   4.144   6.407  14.008  0.9356 -0.7646  0.3655
 2829TIP3   OH229901   4.156   5.722   1.617 -0.2060  0.1918  0.1665
 2829TIP3    H129902   4.108   5.780   1.676 -0.7905 -0.7651  0.6477
 2829TIP3    H229903   4.248   5.744   1.632 -0.3810  0.4717  0.8956
 2830TIP3   OH229904   2.156   0.850   4.490 -0.2397  0.1483  0.1764
 2830TIP3    H129905   2.079   0.881   4.538 -1.0902  1.4742 -1.8662
 2830TIP3    H229906   2.209   0.928   4.476 -0.5828  0.0779 -1.9086
 2831TIP3   OH229907   2.750   4.537   4.798 -0.4535 -0.8097  0.1845
 2831TIP3    H129908   2.748   4.607   4.732  0.2828 -1.3691 -0.4443
 2831TIP3    H229909   2.741   4.456   4.747 -0.8465 -1.2094  0.8660
 2832TIP3   OH229910   5.594   6.737   0.206  0.1898 -0.3579 -0.3968
 2832TIP3    H129911   5.500   6.721   0.215  0.0145  0.5312 -0.5725
 2832TIP3    H229912   5.614   6.805   0.270  0.3043  0.9242 -1.7381
 2833TIP3   OH229913   1.404   0.041   5.440 -0.0900 -0.1660 -0.7557
 2833TIP3    H129914   1.403  -0.023   5.511  0.2041 -0.2309 -0.8119
 2833TIP3    H229915   1.439   0.121   5.480 -2.5423  0.6838 -0.0616
 2834TIP3   OH229916   3.434   5.562   5.997 -0.2329  0.0334 -0.2566
 2834TIP3    H129917   3.506   5.583   6.056 -1.4259 -1.6739  1.9802
 2834TIP3    H229918   3.465   5.486   5.947 -0.9635 -1.8234  1.9345
 2835TIP3   OH229919   1.618   4.170  11.633  0.1166 -0.0941 -0.0921
 2835TIP3    H129920   1.561   4.156  11.558 -0.6232 -0.9285  0.6135
 2835TIP3    H229921   1.589   4.106  11.698 -0.6939  2.0166  1.7472
 2836TIP3   OH229922   4.851   4.199  16.289  0.3778  0.1100 -0.0857
 2836TIP3    H129923   4.776   4.142  16.303 -0.2489  1.1157  0.7369
 2836TIP3    H229924   4.913   4.145  16.239  0.4443 -1.8184  1.9102
 2837TIP3   OH229925   2.313   2.339  13.939  0.2526 -0.1396 -0.1697
 2837TIP3    H129926   2.219   2.325  13.943  0.5320 -2.2437  0.4872
 2837TIP3    H229927   2.349   2.251  13.923  1.9825  0.9320 -3.0602
 2838TIP3   OH229928   3.448   1.519  17.332 -0.3702  0.3994 -0.7947
 2838TIP3    H129929   3.388   1.458  17.290 -0.1731  0.1569 -0.7275
 2838TIP3    H229930   3.400   1.551  17.409 -1.0810  1.5308 -1.6868
 2839TIP3   OH229931   5.161   2.816  13.821  0.3047 -0.6580  0.0020
 2839TIP3    H129932   5.168   2.756  13.746 -0.3581  0.8091 -1.2896
 2839TIP3    H229933   5.202   2.897  13.790 -0.4193  0.1369  1.0652
 2840TIP3   OH229934   5.856   5.315   1.477  0.1853  0.6467 -0.4908
 2840TIP3    H129935   5.905   5.314   1.395  3.0980 -0.8170  1.1055
 2840TIP3    H229936   5.891   5.390   1.525 -0.2251  0.4604  0.1130
 2841TIP3   OH229937   6.651   1.598  12.674 -0.5078  0.2070 -0.0391
 2841TIP3    H129938   6.662   1.513  12.630 -1.3166 -0.0594  0.2464
 2841TIP3    H229939   6.623   1.575  12.762 -0.0758  0.7678  0.2481
 2842TIP3   OH229940   2.396   2.994  11.104 -0.0950 -0.4608  0.1315
 2842TIP3    H129941   2.308   2.993  11.141 -0.1781  1.6719  0.0778
 2842TIP3    H229942   2.382   2.992  11.009 -0.1072  0.3574  0.1146
 2843TIP3   OH229943   5.657   4.895   3.380 -1.0272 -0.2208  0.3229
 2843TIP3    H129944   5.656   4.799   3.383  1.7755 -0.3656 -0.2169
 2843TIP3    H229945   5.631   4.917   3.290  0.0872 -0.6091 -0.1117
 2844TIP3   OH229946   1.205   3.738   2.157  0.2334  0.2855 -0.3093
 2844TIP3    H129947   1.217   3.644   2.174 -1.2263  0.1941  0.2935
 2844TIP3    H229948   1.162   3.771   2.235 -0.6216  1.1668 -1.1366
 2845TIP3   OH229949   0.339   0.059   2.271  0.0838 -0.8174  0.3727
 2845TIP3    H129950   0.410   0.014   2.317  2.0097  1.2900 -0.3262
 2845TIP3    H229951   0.371   0.149   2.261 -2.1465 -0.1261 -1.1878
 2846TIP3   OH229952   4.676   1.372   3.925  0.0591 -0.2814  0.3152
 2846TIP3    H129953   4.686   1.466   3.915  0.0524 -0.3172 -0.0561
 2846TIP3    H229954   4.586   1.360   3.955 -0.6634 -0.2885 -1.7019
 2847TIP3   OH229955   5.301   2.488   2.648  0.2040  0.3721 -0.8544
 2847TIP3    H129956   5.251   2.549   2.704  0.7721  0.1909 -0.1350
 2847TIP3    H229957   5.238   2.461   2.581 -0.3950  0.8599 -0.5067
 2848TIP3   OH229958   0.794   5.975   3.028  0.2052 -0.6566 -0.0175
 2848TIP3    H129959   0.860   6.044   3.039 -2.3335  1.9553  0.0058
 2848TIP3    H229960   0.739   5.983   3.106  0.4738 -3.6286  0.6033
 2849TIP3   OH229961   5.421   2.020  17.121  0.6076  0.0108  0.2043
 2849TIP3    H129962   5.391   1.976  17.042 -0.6452  0.9109  0.1371
 2849TIP3    H229963   5.516   2.022  17.114  0.6679 -2.1119 -0.0650
 2850TIP3   OH229964   5.459   6.725   1.088 -0.2108  0.3795  0.0846
 2850TIP3    H129965   5.518   6.651   1.075  2.3751  2.3702 -0.4432
 2850TIP3    H229966   5.372   6.690   1.069  0.8627 -2.4945 -0.0514
 2851TIP3   OH229967   2.394   5.179  16.734  0.4727 -0.1213 -0.1188
 2851TIP3    H129968   2.389   5.236  16.811  1.2128 -2.1791  1.5566
 2851TIP3    H229969   2.488   5.163  16.722  0.4235  0.7021 -1.9161
 2852TIP3   OH229970   6.337   3.445  12.769 -0.0398  0.2131 -0.6492
 2852TIP3    H129971   6.312   3.533  12.796 -0.1376 -0.1243  0.3877
 2852TIP3    H229972   6.431   3.439  12.790 -0.6926 -1.0456  2.5454
 2853TIP3   OH229973   2.937   0.490  12.783  0.4369  0.0141 -0.0342
 2853TIP3    H129974   2.860   0.438  12.763  0.0947  0.8145 -0.8305
 2853TIP3    H229975   2.998   0.428  12.825 -1.3274 -0.2352  2.3905
 2854TIP3   OH229976   0.964   2.994   1.949  0.3315  0.0611 -0.2393
 2854TIP3    H129977   0.992   2.958   1.865  0.2595  0.5712 -0.4848
 2854TIP3    H229978   1.025   3.066   1.965 -0.7031  1.0666 -0.6900
 2855TIP3   OH229979   4.990   2.889  15.075  0.1293  0.5348 -0.5203
 2855TIP3    H129980   4.994   2.934  15.160  2.0581  1.1868 -0.8946
 2855TIP3    H229981   4.970   2.959  15.013  0.3404  0.3618 -0.7823
 2856TIP3   OH229982   1.185   1.981  16.822 -0.2411  0.3841  0.3531
 2856TIP3    H129983   1.146   1.960  16.737  1.2027  0.9307 -0.4757
 2856TIP3    H229984   1.277   1.958  16.812 -0.3805 -1.2959  2.4197
 2857TIP3   OH229985   5.555   4.979   0.346  0.2391  0.8650 -0.0134
 2857TIP3    H129986   5.494   4.909   0.324  1.2597  0.0681 -0.3712
 2857TIP3    H229987   5.502   5.043   0.395 -1.0680  0.6275 -1.0778
 2858TIP3   OH229988   1.577   1.622   4.989  0.1019  0.0652 -0.7849
 2858TIP3    H129989   1.587   1.533   4.956  0.7786  0.1102 -0.7243
 2858TIP3    H229990   1.619   1.677   4.922  0.1893  0.2829 -0.5525
 2859TIP3   OH229991   3.323   3.021  16.110  0.2660 -0.4064  0.4294
 2859TIP3    H129992   3.358   3.065  16.188  0.9391  0.1680 -0.1833
 2859TIP3    H229993   3.312   2.930  16.137 -2.9396  0.3953  2.3259
 2860TIP3   OH229994   0.505   1.160   2.396  0.6195  0.2966 -0.4216
 2860TIP3    H129995   0.427   1.132   2.349 -0.0183 -0.6238  1.1368
 2860TIP3    H229996   0.542   1.079   2.431  1.2794  0.9265  0.3627
 2861TIP3   OH229997   6.146   1.001  15.560 -0.0402  0.0249 -0.7072
 2861TIP3    H129998   6.152   1.077  15.502 -1.4791  0.0266 -0.8763
 2861TIP3    H229999   6.231   0.958  15.551 -0.2318  0.0011 -2.8585
 2862TIP3   OH230000   4.225   2.699   5.091 -0.6278  0.0272 -0.4688
 2862TIP3    H130001   4.288   2.701   5.163 -0.2084  1.6515 -0.8428
 2862TIP3    H230002   4.145   2.737   5.128 -0.6904  0.0396 -0.6165
 2863TIP3   OH230003   5.396   3.371   3.779  0.1190 -0.1147 -0.2348
 2863TIP3    H130004   5.483   3.375   3.818  0.0699 -3.1259  0.4418
 2863TIP3    H230005   5.396   3.439   3.712  0.9577  3.9751  3.4044
 2864TIP3   OH230006   4.410   4.285  13.775 -0.3620 -0.5307  0.0786
 2864TIP3    H130007   4.486   4.311  13.722  1.3142 -1.9764  1.6302
 2864TIP3    H230008   4.335   4.318  13.726  1.1865  0.0960 -2.0604
 2865TIP3   OH230009   0.481   2.359  11.500 -0.0616 -0.3818  0.0322
 2865TIP3    H130010   0.467   2.438  11.447 -0.0713 -1.6120 -1.9065
 2865TIP3    H230011   0.551   2.313  11.454 -0.9746 -2.1392  0.3365
 2866TIP3   OH230012   6.724   1.297   0.909 -0.3567  0.7812 -0.3861
 2866TIP3    H130013   6.648   1.248   0.876 -0.4333  1.8694 -1.9619
 2866TIP3    H230014   6.794   1.233   0.912 -0.5617  0.4217 -2.0084
 2867TIP3   OH230015   3.657   2.933   6.915 -0.9112  0.4483 -0.0506
 2867TIP3    H130016   3.735   2.987   6.927 -0.0941 -0.2354 -1.9536
 2867TIP3    H230017   3.585   2.988   6.946  0.0979  1.9038 -0.2086
 2868TIP3   OH230018   5.519   4.207  15.268  0.4366 -0.1781  1.1561
 2868TIP3    H130019   5.496   4.235  15.179 -1.6334 -0.4127  1.5679
 2868TIP3    H230020   5.487   4.117  15.274 -0.9586  0.3773  2.6334
 2869TIP3   OH230021   2.591   3.800   2.936  0.4859  0.1919  0.4711
 2869TIP3    H130022   2.561   3.816   2.846 -0.7604 -2.6248  0.3092
 2869TIP3    H230023   2.673   3.752   2.925 -0.0628 -0.8303  0.8221
 2870TIP3   OH230024   3.143   0.325   3.072  0.7339  0.0990 -0.5544
 2870TIP3    H130025   3.180   0.266   3.005 -1.0630 -2.3588  0.4489
 2870TIP3    H230026   3.091   0.388   3.023  0.8265 -0.5954 -1.5687
 2871TIP3   OH230027   0.121   0.762  13.754 -0.2585 -0.1538  0.3009
 2871TIP3    H130028   0.150   0.752  13.844 -0.6508 -1.8217  0.2869
 2871TIP3    H230029   0.158   0.846  13.725  2.3111 -0.9101  1.0954
 2872TIP3   OH230030   2.117   2.873  15.609  0.1053  0.1443 -0.2428
 2872TIP3    H130031   2.039   2.894  15.557  1.5494  1.7320 -1.8858
 2872TIP3    H230032   2.149   2.958  15.639  0.9540 -0.5304  0.8319
 2873TIP3   OH230033   3.982   1.068   6.514  0.1781 -0.3164 -0.2918
 2873TIP3    H130034   4.028   1.094   6.594 -0.1412 -1.0425  0.1377
 2873TIP3    H230035   3.925   1.142   6.495 -0.6345 -0.6199  0.8520
 2874TIP3   OH230036   3.904   6.749  12.897 -0.1072  0.2599 -0.3891
 2874TIP3    H130037   3.896   6.845  12.894 -2.8070  0.1044 -0.7526
 2874TIP3    H230038   3.961   6.727  12.824  0.0986  1.5701 -0.6471
 2875TIP3   OH230039   3.428   1.460   3.108 -0.4014 -0.4402  0.2016
 2875TIP3    H130040   3.459   1.384   3.158  2.1056 -0.6590 -1.4929
 2875TIP3    H230041   3.482   1.532   3.138  0.4945 -0.3748 -1.4341
 2876TIP3   OH230042   5.364   0.784   5.515 -0.4026  0.6582  0.1147
 2876TIP3    H130043   5.301   0.823   5.454 -0.9076 -0.1205  0.1231
 2876TIP3    H230044   5.393   0.704   5.471 -1.9417 -0.7460  1.5052
 2877TIP3   OH230045   5.274   1.687  13.543 -0.3438  0.6488  0.3525
 2877TIP3    H130046   5.291   1.632  13.466  1.6166  1.3629  0.2222
 2877TIP3    H230047   5.186   1.722  13.528 -1.6861 -2.3337  0.4291
 2878TIP3   OH230048   6.539   2.308  16.079  0.0796 -0.3814  0.2888
 2878TIP3    H130049   6.615   2.283  16.027 -0.6475 -0.4293 -0.8129
 2878TIP3    H230050   6.556   2.399  16.105 -0.3150  0.2921 -1.6188
 2879TIP3   OH230051   1.175   2.450   2.548  0.2227 -0.2528  0.3317
 2879TIP3    H130052   1.177   2.443   2.643 -0.5578 -2.0007  0.2524
 2879TIP3    H230053   1.219   2.371   2.516 -1.8923 -1.0939 -0.7279
 2880TIP3   OH230054   6.603   2.973  11.031 -0.8008  0.0783 -0.1833
 2880TIP3    H130055   6.661   2.998  10.959  0.1976  0.5439  0.7410
 2880TIP3    H230056   6.594   3.054  11.082  0.8370 -0.8596  1.7526
 2881TIP3   OH230057   0.891   4.647   0.186  0.3956  0.2049  0.2100
 2881TIP3    H130058   0.907   4.572   0.130 -0.5478  0.2141 -0.0858
 2881TIP3    H230059   0.797   4.645   0.203  0.5717  0.5263  1.3328
 2882TIP3   OH230060   3.121   0.426   5.368  0.0970 -0.2217  0.4062
 2882TIP3    H130061   3.029   0.444   5.384 -0.2006  0.2561 -1.6226
 2882TIP3    H230062   3.128   0.331   5.378 -0.0985 -0.0588  2.7261
 2883TIP3   OH230063   2.554   0.955  12.715 -0.2844 -0.2332 -0.4623
 2883TIP3    H130064   2.630   0.897  12.715 -0.3472 -0.3930 -2.3935
 2883TIP3    H230065   2.529   0.962  12.622 -0.2053  2.9713 -0.3620
 2884TIP3   OH230066   6.522   0.917  16.744 -0.4164  0.1179 -0.8103
 2884TIP3    H130067   6.607   0.962  16.742  0.0666 -0.7849 -1.0678
 2884TIP3    H230068   6.487   0.934  16.831 -0.3351  1.1488 -0.9661
 2885TIP3   OH230069   3.826   3.601   0.743 -0.3154  0.3138  0.3111
 2885TIP3    H130070   3.807   3.679   0.795  0.4420 -0.9951  2.6800
 2885TIP3    H230071   3.920   3.586   0.755 -0.3149 -0.6048 -0.6800
 2886TIP3   OH230072   3.460   0.264  14.816 -0.3391  0.6396 -0.5788
 2886TIP3    H130073   3.383   0.294  14.768  0.0139  1.8731 -0.4248
 2886TIP3    H230074   3.526   0.332  14.799  0.3219  0.2250  0.2691
 2887TIP3   OH230075   3.924   6.362  16.834  0.2987 -0.3234  0.1734
 2887TIP3    H130076   3.988   6.359  16.764  0.1376 -1.9244  0.0735
 2887TIP3    H230077   3.841   6.384  16.791  0.0863 -1.8734 -0.2529
 2888TIP3   OH230078   6.332   4.886  14.279 -0.3315  0.4643  0.0517
 2888TIP3    H130079   6.393   4.894  14.206  0.9830 -0.1928  1.0184
 2888TIP3    H230080   6.346   4.965  14.331  0.3649 -0.0928  0.7355
 2889TIP3   OH230081   3.554   1.787   1.879  0.0951  0.0573  0.2550
 2889TIP3    H130082   3.500   1.859   1.849  1.5647  0.4018 -1.8123
 2889TIP3    H230083   3.513   1.709   1.843  0.9872  0.3345 -1.4769
 2890TIP3   OH230084   3.667   0.346   4.721  1.3152  0.1216 -0.2601
 2890TIP3    H130085   3.580   0.377   4.698  1.0019 -0.9821 -0.5919
 2890TIP3    H230086   3.710   0.423   4.760  1.0347  1.3793 -2.2959
 2891TIP3   OH230087   3.712   3.843  15.522 -0.2519  0.1519  0.3114
 2891TIP3    H130088   3.749   3.832  15.609  2.1393 -1.1232 -0.7694
 2891TIP3    H230089   3.688   3.936  15.518 -1.0904  0.0829  2.5310
 2892TIP3   OH230090   2.209   0.311  11.629 -0.7679  0.5813  0.3842
 2892TIP3    H130091   2.290   0.358  11.652  0.8024 -1.5607 -0.4149
 2892TIP3    H230092   2.187   0.262  11.707 -0.9691  0.7102  0.4087
 2893TIP3   OH230093   5.369   1.039  16.766 -0.9059  0.4063  0.2948
 2893TIP3    H130094   5.305   1.042  16.695 -1.3297  3.0965  0.6717
 2893TIP3    H230095   5.346   0.961  16.817 -1.3424 -0.8865 -1.7889
 2894TIP3   OH230096   6.541   3.503  11.932  0.2402  0.2990 -0.6015
 2894TIP3    H130097   6.606   3.556  11.979  0.7227 -0.5556 -0.2853
 2894TIP3    H230098   6.571   3.504  11.841 -1.4360  3.0887 -1.2369
 2895TIP3   OH230099   6.163   5.308   3.930  0.7430  1.1495 -0.0423
 2895TIP3    H130100   6.189   5.265   4.011 -0.9242  0.1833  0.0036
 2895TIP3    H230101   6.223   5.273   3.864  0.2258 -0.3186  0.2366
 2896TIP3   OH230102   6.646   2.993   3.235 -0.1310 -0.1337  0.1227
 2896TIP3    H130103   6.601   2.940   3.300  1.5147 -0.7594  0.8144
 2896TIP3    H230104   6.589   3.068   3.221 -0.1775  0.4436  2.9065
 2897TIP3   OH230105   6.617   3.504   1.992  0.3401  0.4186 -0.0251
 2897TIP3    H130106   6.663   3.514   2.075 -2.4852  0.6051  1.6146
 2897TIP3    H230107   6.621   3.591   1.951  0.8295  0.6043  0.4098
 2898TIP3   OH230108   1.769   2.109  14.640 -0.1814 -0.2553 -0.1171
 2898TIP3    H130109   1.815   2.026  14.656 -1.7368 -1.5900 -2.0034
 2898TIP3    H230110   1.719   2.124  14.719  1.5270 -0.0871  0.9868
 2899TIP3   OH230111   4.407   6.213   2.357 -0.9009  0.3897  0.2766
 2899TIP3    H130112   4.497   6.181   2.368 -0.8287  0.0035 -1.1890
 2899TIP3    H230113   4.368   6.152   2.294 -1.0229  2.6503 -1.9572
 2900TIP3   OH230114   2.767   5.454  11.541  0.1578  0.1822 -0.0551
 2900TIP3    H130115   2.790   5.545  11.521  0.0813  0.4303  0.8936
 2900TIP3    H230116   2.757   5.453  11.637  0.5773 -0.9267 -0.0140
 2901TIP3   OH230117   1.128   2.149   1.032  0.4997 -0.0277 -0.1576
 2901TIP3    H130118   1.087   2.230   1.002 -2.8386 -1.3859  0.2530
 2901TIP3    H230119   1.131   2.093   0.955  1.4539 -0.0377 -0.1276
 2902TIP3   OH230120   0.834   2.234  13.956  0.0982  0.0426  0.1543
 2902TIP3    H130121   0.833   2.147  13.995 -0.0592  0.4324  1.0240
 2902TIP3    H230122   0.861   2.218  13.865 -0.8809 -1.0162  0.0276
 2903TIP3   OH230123   5.791   0.130  12.787 -0.3763 -0.1782 -0.6410
 2903TIP3    H130124   5.869   0.130  12.842  1.7940  0.3791 -3.4271
 2903TIP3    H230125   5.787   0.219  12.751 -3.2231  0.2546  0.4838
 2904TIP3   OH230126   3.830   4.976  13.458  0.4045  0.2349 -0.0511
 2904TIP3    H130127   3.892   5.020  13.516 -0.5567  0.9041  0.5043
 2904TIP3    H230128   3.746   5.021  13.474 -0.5157 -1.4810  0.1955
 2905TIP3   OH230129   6.205   1.563  12.347 -0.1124  0.4166  0.2990
 2905TIP3    H130130   6.276   1.613  12.306 -1.0900  1.2404 -0.4311
 2905TIP3    H230131   6.185   1.610  12.428  0.0251  0.3018  0.4012
 2906TIP3   OH230132   4.793   1.956   2.230 -0.3904 -0.0561 -0.1766
 2906TIP3    H130133   4.860   2.009   2.274 -1.0239  1.1526 -0.6072
 2906TIP3    H230134   4.830   1.868   2.227 -0.3511 -0.2503  2.9055
 2907TIP3   OH230135   4.614   5.546  12.635 -0.3153  0.7045  0.3149
 2907TIP3    H130136   4.565   5.627  12.647 -1.1012  1.0663 -3.8474
 2907TIP3    H230137   4.547   5.479  12.618  0.4370 -0.1053  0.4474
 2908TIP3   OH230138   0.312   0.653  16.689 -0.4797 -0.0161 -0.7490
 2908TIP3    H130139   0.389   0.681  16.640 -0.1387  1.6329  0.6051
 2908TIP3    H230140   0.285   0.571  16.648  2.1462 -0.8000 -1.0968
 2909TIP3   OH230141   2.187   1.632   3.898 -0.1467 -0.3528  0.0222
 2909TIP3    H130142   2.244   1.613   3.824  0.3593  1.6724 -0.1769
 2909TIP3    H230143   2.173   1.727   3.894 -4.9341 -0.8519 -0.9524
 2910TIP3   OH230144   4.156   0.931   2.208  0.6348  0.2859 -0.5887
 2910TIP3    H130145   4.247   0.919   2.180  0.7357  0.2422 -0.2492
 2910TIP3    H230146   4.116   0.845   2.194  0.4197  0.5281 -1.5364
 2911TIP3   OH230147   2.687   2.534  16.997 -0.0761  0.6616  0.7275
 2911TIP3    H130148   2.603   2.568  17.027 -0.0178 -0.1303  1.8305
 2911TIP3    H230149   2.664   2.464  16.936 -0.2323  0.1001  1.4209
 2912TIP3   OH230150   5.742   4.203  12.603  0.2474  0.0817 -0.1699
 2912TIP3    H130151   5.774   4.173  12.518  0.3781 -1.1528  0.2914
 2912TIP3    H230152   5.653   4.169  12.608 -0.3236  1.4506 -0.4277
 2913TIP3   OH230153   4.057   3.408   4.564 -0.2215 -0.0533  0.2481
 2913TIP3    H130154   4.007   3.337   4.525  0.3608 -1.0048  1.2027
 2913TIP3    H230155   4.095   3.371   4.644  2.4528  0.4544 -0.6732
 2914TIP3   OH230156   5.093   1.849  12.825 -0.1730 -0.2315  0.9224
 2914TIP3    H130157   5.116   1.756  12.829 -0.2365 -0.4995 -2.3119
 2914TIP3    H230158   4.998   1.850  12.814  0.0486  0.0302 -1.3530
 2915TIP3   OH230159   2.590   0.880  13.427  0.2066 -0.4328  0.3318
 2915TIP3    H130160   2.657   0.913  13.368  1.1336  0.0439  1.6114
 2915TIP3    H230161   2.512   0.931  13.406  1.2767  1.8000  1.4214
 2916TIP3   OH230162   5.874   1.055   2.981 -0.5766  0.0153  0.1095
 2916TIP3    H130163   5.885   1.038   2.888  0.3078  0.0967  0.1952
 2916TIP3    H230164   5.879   1.151   2.989  0.2428 -0.0392  0.3417
 2917TIP3   OH230165   6.627   1.726  17.250  0.3982  0.3171 -0.1621
 2917TIP3    H130166   6.606   1.792  17.316 -4.3651 -0.3558 -0.6309
 2917TIP3    H230167   6.626   1.775  17.167 -1.7190  0.0134 -0.3716
 2918TIP3   OH230168   5.856   6.365   6.275  0.2011 -0.1601 -0.1348
 2918TIP3    H130169   5.815   6.290   6.318  1.1384 -1.7585 -1.8678
 2918TIP3    H230170   5.824   6.441   6.323 -0.2477 -1.6917  2.1409
 2919TIP3   OH230171   5.182   2.132   4.526 -0.0250  0.1885  0.2806
 2919TIP3    H130172   5.256   2.191   4.543  0.7580  0.4010 -3.1482
 2919TIP3    H230173   5.223   2.047   4.511 -0.7565 -0.2804  0.8611
 2920TIP3   OH230174   3.750   4.354  15.292  0.2185  0.5784  0.2225
 2920TIP3    H130175   3.705   4.378  15.373  0.8740 -0.9545  1.0899
 2920TIP3    H230176   3.704   4.276  15.262  0.9679  0.2226 -0.0148
 2921TIP3   OH230177   1.852   2.664  12.394 -0.4188  0.7291  0.3060
 2921TIP3    H130178   1.804   2.726  12.339 -1.0009 -0.5782 -0.6916
 2921TIP3    H230179   1.822   2.578  12.367  0.4324 -0.0247  1.6162
 2922TIP3   OH230180   5.223   5.164  12.102 -0.7437  0.1012  0.0586
 2922TIP3    H130181   5.263   5.249  12.121 -0.6374  0.6872 -2.5059
 2922TIP3    H230182   5.130   5.182  12.094 -0.5783  0.3017 -1.8507
 2923TIP3   OH230183   1.452   0.588  13.189  0.5862 -0.2330  0.0886
 2923TIP3    H130184   1.444   0.494  13.170  0.5308 -0.0489 -0.8484
 2923TIP3    H230185   1.449   0.593  13.284  0.4246 -1.1701  0.1476
 2924TIP3   OH230186   4.330   4.218   4.663 -0.4097  0.0464  0.1692
 2924TIP3    H130187   4.367   4.306   4.650 -1.8965  0.6303 -0.3623
 2924TIP3    H230188   4.406   4.160   4.664  0.5549  1.2535 -0.2272
 2925TIP3   OH230189   5.122   3.283  12.862 -0.3828 -0.2564 -0.6210
 2925TIP3    H130190   5.065   3.211  12.832 -0.7188 -0.5820  0.7004
 2925TIP3    H230191   5.066   3.361  12.858 -0.4412 -0.3061 -0.7816
 2926TIP3   OH230192   5.253   6.209   0.912 -0.1752  0.2058  0.5966
 2926TIP3    H130193   5.226   6.133   0.964 -0.5947 -0.0331  0.0442
 2926TIP3    H230194   5.309   6.260   0.970 -0.0074 -0.4560  1.0248
 2927TIP3   OH230195   3.814   5.813   4.032 -0.3776  0.2301  0.2666
 2927TIP3    H130196   3.901   5.784   4.061  0.5182  0.9884 -1.4684
 2927TIP3    H230197   3.788   5.880   4.096  0.8274  0.7701  0.2195
 2928TIP3   OH230198   4.950   4.424  16.114 -0.1866  0.2471 -0.3538
 2928TIP3    H130199   4.855   4.418  16.125 -0.1361 -0.9060 -0.4022
 2928TIP3    H230200   4.976   4.337  16.084  1.1107 -0.0271  1.3923
 2929TIP3   OH230201   1.133   4.854   5.784  0.1486 -0.8719  0.2366
 2929TIP3    H130202   1.194   4.782   5.766 -0.1979 -1.3234  0.8172
 2929TIP3    H230203   1.166   4.893   5.865  0.1248 -0.6099  0.1199
 2930TIP3   OH230204   6.523   3.796  15.484 -0.4016 -0.1334 -0.1999
 2930TIP3    H130205   6.491   3.719  15.531 -0.0769  0.0077  0.2629
 2930TIP3    H230206   6.579   3.760  15.415  0.8836 -0.2925  0.8685
 2931TIP3   OH230207   6.018   4.587  17.011  0.3629 -0.1616 -0.0135
 2931TIP3    H130208   6.066   4.669  17.005  0.3715 -0.1488  0.2104
 2931TIP3    H230209   6.042   4.539  16.932  1.3797 -0.4966  0.4882
 2932TIP3   OH230210   5.552   0.645  11.251 -0.5576  1.0415  0.6302
 2932TIP3    H130211   5.584   0.577  11.192  0.0486  1.3882  0.5524
 2932TIP3    H230212   5.508   0.597  11.321  0.3833  0.5352  0.8921
 2933TIP3   OH230213   5.506   3.825   2.839  0.5186  0.2427 -0.2373
 2933TIP3    H130214   5.538   3.883   2.907  1.1887  0.4311 -0.7052
 2933TIP3    H230215   5.563   3.841   2.764  0.8363 -1.1446 -0.3292
 2934TIP3   OH230216   2.749   1.532  10.800  0.1971 -0.5532  0.1806
 2934TIP3    H130217   2.712   1.446  10.780  0.9914 -0.4443 -1.9259
 2934TIP3    H230218   2.843   1.515  10.815  0.5260  0.0354 -1.1021
 2935TIP3   OH230219   1.535   6.395  13.720 -0.6363  0.2376  0.1181
 2935TIP3    H130220   1.480   6.334  13.672 -0.2235  0.2882 -0.4363
 2935TIP3    H230221   1.624   6.377  13.688 -0.3037  0.0079  1.1515
 2936TIP3   OH230222   1.495   0.388   4.957  0.2315 -0.6639 -0.4177
 2936TIP3    H130223   1.425   0.418   5.015  0.3486 -2.5038  0.7656
 2936TIP3    H230224   1.473   0.425   4.871 -0.9874  0.5640  0.3867
 2937TIP3   OH230225   0.464   4.656  14.661  0.6992  0.4407  0.3469
 2937TIP3    H130226   0.520   4.592  14.705 -0.7433 -0.5231  0.8650
 2937TIP3    H230227   0.376   4.618  14.666 -0.0439  1.9985 -0.2383
 2938TIP3   OH230228   4.016   6.492   3.928 -0.2868 -0.7301 -0.1723
 2938TIP3    H130229   4.003   6.558   3.996 -0.5400 -1.5175  0.5567
 2938TIP3    H230230   4.021   6.543   3.847  1.8699  0.4229  0.5809
 2939TIP3   OH230231   6.025   5.097   2.554  0.2952 -0.5540  0.2070
 2939TIP3    H130232   5.987   5.142   2.479 -0.6776  0.2537  1.1388
 2939TIP3    H230233   5.950   5.052   2.595  0.9036 -1.4190  0.4086
 2940TIP3   OH230234   6.740   6.511  13.985  0.1152 -0.1084 -0.1048
 2940TIP3    H130235   6.778   6.439  13.934  0.9131  1.2629 -1.5622
 2940TIP3    H230236   6.814   6.571  13.999 -0.8615  1.1840 -0.3447
 2941TIP3   OH230237   0.548   2.993   0.903 -0.3579 -0.3865  0.0290
 2941TIP3    H130238   0.475   2.938   0.931  0.6432 -2.0517 -0.4709
 2941TIP3    H230239   0.585   3.028   0.984 -1.1510 -0.2738  0.3446
 2942TIP3   OH230240   2.390   0.020   1.204 -0.0135 -0.4271 -0.4343
 2942TIP3    H130241   2.368   0.071   1.126 -0.1400  0.6699  0.2973
 2942TIP3    H230242   2.485   0.018   1.207  0.0900 -3.1333 -2.2874
 2943TIP3   OH230243   5.553   4.929  11.365 -0.1642  0.0296  0.2482
 2943TIP3    H130244   5.539   4.916  11.271 -0.4916 -0.5490  0.3676
 2943TIP3    H230245   5.625   4.992  11.371 -0.8262  0.8571 -0.3861
 2944TIP3   OH230246   2.841   5.391   1.294 -0.6003  0.5680  0.0295
 2944TIP3    H130247   2.867   5.481   1.312 -1.2782  0.8489 -0.3517
 2944TIP3    H230248   2.816   5.355   1.379 -0.2626  0.7194  0.1922
 2945TIP3   OH230249   5.500   0.821  13.642  0.6409 -0.3161 -0.0718
 2945TIP3    H130250   5.491   0.908  13.604 -0.9236 -0.0113  0.9055
 2945TIP3    H230251   5.522   0.764  13.568  1.6491  0.8731 -0.7326
 2946TIP3   OH230252   3.921   3.909   4.955 -0.1702  0.0527  0.0287
 2946TIP3    H130253   3.868   3.885   5.031 -1.7771  0.3410 -0.9729
 2946TIP3    H230254   3.869   3.883   4.880  0.6164  1.3488 -1.0127
 2947TIP3   OH230255   0.483   4.473   3.622 -0.3054  0.2848 -0.1023
 2947TIP3    H130256   0.470   4.555   3.575  0.5608  0.7179  0.3973
 2947TIP3    H230257   0.397   4.453   3.658 -0.9815 -0.0419 -1.8140
 2948TIP3   OH230258   1.632   1.156   4.454  0.5839 -0.1117  0.1730
 2948TIP3    H130259   1.684   1.132   4.378  1.3265  3.2327 -0.5239
 2948TIP3    H230260   1.696   1.178   4.521  0.0617  1.3691  0.2218
 2949TIP3   OH230261   4.779   6.399   0.008  0.0050  0.2742 -0.3344
 2949TIP3    H130262   4.829   6.450  -0.056  0.7750 -1.4401 -1.1907
 2949TIP3    H230263   4.702   6.452   0.028  0.4122  1.4235 -1.7058
 2950TIP3   OH230264   4.611   4.387  13.562  0.5457 -0.3364 -0.4781
 2950TIP3    H130265   4.562   4.442  13.501  1.2592  1.3273  0.3626
 2950TIP3    H230266   4.699   4.426  13.562  0.8957 -1.0904  0.6367
 2951TIP3   OH230267   3.659   5.647   2.202  0.3618  0.4091  0.0381
 2951TIP3    H130268   3.632   5.621   2.290 -0.1539 -0.1326 -0.2776
 2951TIP3    H230269   3.584   5.628   2.146  0.6986  0.7066 -0.5317
 2952TIP3   OH230270   6.281   1.073  15.997  0.0189  0.3209 -0.7463
 2952TIP3    H130271   6.360   1.039  15.957  0.2836  1.1516 -0.9610
 2952TIP3    H230272   6.304   1.162  16.024 -0.5449  0.2246  0.0858
 2953TIP3   OH230273   3.529   4.333  14.101  0.6175  1.0852  0.1654
 2953TIP3    H130274   3.624   4.348  14.091  0.3781  2.6909  0.0618
 2953TIP3    H230275   3.492   4.358  14.016  0.4028 -3.2541 -1.2796
 2954TIP3   OH230276   3.327   6.678  12.055  0.0362 -0.1907 -0.3338
 2954TIP3    H130277   3.406   6.641  12.093  1.0758  1.6630 -0.5808
 2954TIP3    H230278   3.358   6.737  11.986 -1.5036  1.1478  0.0433
 2955TIP3   OH230279   4.724   6.006   4.169 -0.3927  0.7439 -0.2771
 2955TIP3    H130280   4.720   5.991   4.074 -0.3911  2.6394 -0.6094
 2955TIP3    H230281   4.815   5.992   4.192  0.5863  4.3210 -1.3782
 2956TIP3   OH230282   2.772   3.537   0.005 -0.1995  0.3818 -0.2161
 2956TIP3    H130283   2.858   3.557  -0.032 -0.1943 -0.5010 -0.7065
 2956TIP3    H230284   2.790   3.474   0.075 -0.4965 -0.3618 -0.7886
 2957TIP3   OH230285   2.291   0.683   6.031 -0.1477 -0.3051 -0.9651
 2957TIP3    H130286   2.384   0.665   6.042 -0.3138 -0.6191 -0.0019
 2957TIP3    H230287   2.279   0.770   6.067 -0.3553 -0.5543 -0.4308
 2958TIP3   OH230288   1.929   2.786  16.825  0.8329  0.1348  1.0331
 2958TIP3    H130289   1.954   2.696  16.805 -1.0156 -0.1252 -0.3791
 2958TIP3    H230290   1.969   2.838  16.755 -0.5267  0.0059  0.1261
 2959TIP3   OH230291   0.061   4.538   0.592 -0.1756 -0.5847 -0.2085
 2959TIP3    H130292  -0.006   4.488   0.544  0.2062  1.8504 -3.6817
 2959TIP3    H230293   0.141   4.522   0.542  1.0167 -0.3394  1.5580
 2960TIP3   OH230294   2.943   6.235  17.243 -0.3368 -0.7143  0.2131
 2960TIP3    H130295   2.956   6.248  17.337 -1.1372 -0.2237  0.2682
 2960TIP3    H230296   2.906   6.147  17.235 -0.7271 -0.5661  0.3992
 2961TIP3   OH230297   5.801   5.912   3.132  0.5239 -0.3131 -0.5150
 2961TIP3    H130298   5.869   5.979   3.124  0.5135 -0.2695 -0.2296
 2961TIP3    H230299   5.775   5.915   3.224  1.5426 -1.7055 -0.1615
 2962TIP3   OH230300   0.791   1.833   4.579 -0.4562  0.0216  0.0398
 2962TIP3    H130301   0.767   1.793   4.495 -2.1742  1.1035 -0.0252
 2962TIP3    H230302   0.756   1.774   4.645 -0.8128  0.1545 -0.0295
 2963TIP3   OH230303   3.183   0.883   1.123  0.2138  0.4719  0.6558
 2963TIP3    H130304   3.277   0.866   1.133  0.4830  0.7157 -1.1111
 2963TIP3    H230305   3.177   0.936   1.044 -1.5653 -1.2624 -0.4422
 2964TIP3   OH230306   6.691   1.684   2.258 -0.0515  0.4113 -0.4760
 2964TIP3    H130307   6.750   1.751   2.292  0.7824 -0.8812  0.7514
 2964TIP3    H230308   6.734   1.652   2.178  1.7647 -1.5098  1.1464
 2965TIP3   OH230309   5.310   4.595   1.929  0.2092 -0.1720 -0.0715
 2965TIP3    H130310   5.238   4.537   1.904 -0.3332  0.6959 -0.5268
 2965TIP3    H230311   5.333   4.641   1.849  0.7040  0.1827  0.2719
 2966TIP3   OH230312   4.693   3.965  14.460 -0.5101 -0.2822 -0.2227
 2966TIP3    H130313   4.786   3.986  14.471 -0.6755  1.0795 -1.1632
 2966TIP3    H230314   4.687   3.926  14.372 -0.8424 -0.1789 -0.2492
 2967TIP3   OH230315   1.998   0.259  15.185  0.1452 -0.2362 -0.1560
 2967TIP3    H130316   2.058   0.332  15.170  0.3334 -0.6956 -1.8192
 2967TIP3    H230317   2.051   0.180  15.172 -0.0845 -0.6940  1.4812
 2968TIP3   OH230318   2.827   5.238  14.137  0.2492 -0.2069 -0.0002
 2968TIP3    H130319   2.859   5.200  14.218  1.1490 -1.1954 -0.7907
 2968TIP3    H230320   2.902   5.285  14.101 -0.5706  1.5452  0.4665
 2969TIP3   OH230321   5.552   4.632  11.769 -0.1113  0.0976  0.6569
 2969TIP3    H130322   5.601   4.673  11.698  1.5561 -0.8922  1.1520
 2969TIP3    H230323   5.505   4.559  11.728  1.2296 -0.7714  0.5956
 2970TIP3   OH230324   3.805   2.961   0.451  0.0431 -0.1085 -0.0994
 2970TIP3    H130325   3.831   2.879   0.493  0.9415 -0.3896 -1.1683
 2970TIP3    H230326   3.881   3.018   0.458 -0.9100  1.0561  1.5573
 2971TIP3   OH230327   3.998   3.020   2.231  0.7265  0.0071  0.7358
 2971TIP3    H130328   3.952   2.986   2.155 -1.4189  2.8916  0.5725
 2971TIP3    H230329   3.938   3.006   2.304  1.9034 -0.8979  1.5706
 2972TIP3   OH230330   3.628   0.067  14.098  0.0469  0.2062 -0.0269
 2972TIP3    H130331   3.579   0.140  14.062  1.0173 -0.0376 -1.9853
 2972TIP3    H230332   3.712   0.104  14.124  0.5021 -0.1470 -0.9255
 2973TIP3   OH230333   1.859   4.134   0.802 -0.0097 -0.5970  0.0239
 2973TIP3    H130334   1.923   4.090   0.747 -0.7281 -0.4369 -0.9693
 2973TIP3    H230335   1.807   4.063   0.839 -0.3463 -0.6506 -0.5435
 2974TIP3   OH230336   1.438   6.446  16.495 -0.4460  0.0279  0.4033
 2974TIP3    H130337   1.357   6.457  16.446  0.4282 -0.5677 -1.2680
 2974TIP3    H230338   1.499   6.508  16.455 -0.2072  0.8747  2.0134
 2975TIP3   OH230339   3.198   4.397   4.587 -0.0233  0.7872  0.1714
 2975TIP3    H130340   3.117   4.350   4.566 -0.3165  0.5017  1.8246
 2975TIP3    H230341   3.170   4.484   4.612 -0.1976 -0.0872  3.4729
 2976TIP3   OH230342   3.216   2.267  14.628 -0.3387  0.0658  0.3066
 2976TIP3    H130343   3.310   2.278  14.621 -0.5276  0.6755 -2.3414
 2976TIP3    H230344   3.202   2.173  14.616 -0.1668  0.3083 -2.4768
 2977TIP3   OH230345   5.947   0.528  16.242  0.2830  0.1567 -1.1855
 2977TIP3    H130346   5.875   0.591  16.240  0.4760  0.4190 -0.2161
 2977TIP3    H230347   6.023   0.578  16.273  0.3641 -0.5986 -0.1016
 2978TIP3   OH230348   3.517   6.226   4.751 -0.3423  0.0945 -0.0800
 2978TIP3    H130349   3.586   6.252   4.812 -0.8712  0.5994  0.3157
 2978TIP3    H230350   3.563   6.204   4.670  0.5100 -1.9325  0.8925
 2979TIP3   OH230351   1.804   0.797   1.531 -0.6740  0.0331 -0.4078
 2979TIP3    H130352   1.891   0.835   1.541  1.4304 -4.3848  1.0034
 2979TIP3    H230353   1.789   0.792   1.437  0.4494  1.1423 -0.6592
 2980TIP3   OH230354   1.328   6.079  14.705 -0.4923  0.4959  0.3511
 2980TIP3    H130355   1.393   6.050  14.641 -1.5548 -1.5324  0.0895
 2980TIP3    H230356   1.360   6.163  14.736  0.9166  0.7566 -1.6240
 2981TIP3   OH230357   3.200   5.365   5.231 -0.1403 -0.2807 -0.0613
 2981TIP3    H130358   3.230   5.441   5.181 -1.2366  0.4596  0.3694
 2981TIP3    H230359   3.262   5.295   5.209  0.7738  0.6833 -0.6102
 2982TIP3   OH230360   2.224   3.148   1.417  0.4208  0.6386  0.3375
 2982TIP3    H130361   2.290   3.211   1.443  1.3482 -0.3145  0.3477
 2982TIP3    H230362   2.142   3.198   1.413  0.8071  1.4624  2.0881
 2983TIP3   OH230363   2.656   6.362   0.536 -0.1536 -0.4063  0.6511
 2983TIP3    H130364   2.566   6.334   0.522  0.1653 -1.4722  0.6961
 2983TIP3    H230365   2.710   6.292   0.501  0.7394  1.4362 -1.9770
 2984TIP3   OH230366   6.703   0.808  11.838  0.1123  0.5061  0.0673
 2984TIP3    H130367   6.646   0.808  11.762 -0.4346 -0.5048  0.4630
 2984TIP3    H230368   6.733   0.718  11.846  0.8285  0.7762  0.5635
 2985TIP3   OH230369   5.831   2.309  13.328 -0.5280 -0.2766 -0.0099
 2985TIP3    H130370   5.783   2.375  13.379 -0.0628 -0.0772  0.1762
 2985TIP3    H230371   5.813   2.226  13.372 -1.7890 -0.4102 -0.7183
 2986TIP3   OH230372   2.414   4.878   4.932 -0.0289  0.0350 -0.6293
 2986TIP3    H130373   2.453   4.792   4.949  0.0009 -0.1894 -1.7054
 2986TIP3    H230374   2.353   4.893   5.004 -0.2695 -1.0428 -0.5984
 2987TIP3   OH230375   5.707   0.498  16.880 -0.0520  0.4814  0.4675
 2987TIP3    H130376   5.648   0.565  16.847  1.1771  2.6297  2.2969
 2987TIP3    H230377   5.791   0.516  16.838  0.0309 -0.7028  0.0735
 2988TIP3   OH230378   0.038   4.357  14.256 -0.1084 -0.0736 -0.4809
 2988TIP3    H130379  -0.045   4.375  14.213  0.0503  0.5059 -0.5539
 2988TIP3    H230380   0.100   4.416  14.214 -0.2425  1.6378  1.5350
 2989TIP3   OH230381   5.353   5.045   4.800  0.5799  0.4410 -0.6978
 2989TIP3    H130382   5.371   4.971   4.742  0.8448  0.5090 -0.7021
 2989TIP3    H230383   5.425   5.045   4.862  0.3531  0.4350 -0.4325
 2990TIP3   OH230384   3.310   5.332   2.525 -0.7000  0.0809 -0.2316
 2990TIP3    H130385   3.385   5.357   2.471 -0.9908  0.2048 -0.5842
 2990TIP3    H230386   3.331   5.366   2.612  0.4852 -1.4564  0.1254
 2991TIP3   OH230387   2.497   1.507  15.317  0.2372 -0.1712 -0.1398
 2991TIP3    H130388   2.439   1.480  15.388 -1.4849  0.6108 -1.2012
 2991TIP3    H230389   2.481   1.601  15.306  0.3941 -0.2901 -1.6207
 2992TIP3   OH230390   2.328   5.111   1.481 -0.1394  0.3229  0.4264
 2992TIP3    H130391   2.344   5.017   1.491  1.3985  0.4654 -0.4768
 2992TIP3    H230392   2.255   5.116   1.420 -0.4217 -0.2885  0.7035
 2993TIP3   OH230393   6.033   6.678  13.942 -0.1402  0.2362 -0.6613
 2993TIP3    H130394   6.068   6.594  13.972 -1.1441  0.3070  0.8295
 2993TIP3    H230395   6.036   6.672  13.846  1.0997 -0.9306 -0.5818
 2994TIP3   OH230396   0.309   0.483  15.563 -0.4518  1.0013 -0.4413
 2994TIP3    H130397   0.354   0.424  15.502  1.9330  0.6867  1.4735
 2994TIP3    H230398   0.221   0.446  15.570  0.4411 -1.3843 -0.6035
 2995TIP3   OH230399   1.596   3.364   0.778  0.0015  0.1033 -0.1631
 2995TIP3    H130400   1.534   3.419   0.825  1.8156 -0.0118  2.6089
 2995TIP3    H230401   1.649   3.425   0.728 -1.3351  0.3258 -1.3670
 2996TIP3   OH230402   5.251   2.590   6.521  0.3833  0.7306  0.5817
 2996TIP3    H130403   5.283   2.679   6.538  1.1492  0.4456  0.6926
 2996TIP3    H230404   5.162   2.602   6.489 -0.0041  1.4747  1.8637
 2997TIP3   OH230405   4.839   2.198   5.919 -1.0505 -0.3909  0.2739
 2997TIP3    H130406   4.808   2.214   6.008  0.8551 -0.8968  1.0827
 2997TIP3    H230407   4.796   2.116   5.893 -0.5507 -0.9966  1.2981
 2998TIP3   OH230408   6.737   6.103   4.220  0.4166  0.2958  0.1345
 2998TIP3    H130409   6.715   6.065   4.135  1.8699  0.7596 -0.4775
 2998TIP3    H230410   6.697   6.190   4.217  1.3391  0.7078 -0.5094
 2999TIP3   OH230411   4.937   1.051  13.430 -0.3261 -0.1218 -0.4659
 2999TIP3    H130412   4.946   0.956  13.434  1.3410 -0.0382 -1.3714
 2999TIP3    H230413   4.993   1.077  13.356  1.2466  1.7739  1.2718
 3000TIP3   OH230414   2.583   5.349  13.581 -0.2059  0.1298 -0.1332
 3000TIP3    H130415   2.625   5.433  13.598  0.0036  0.1336 -0.6458
 3000TIP3    H230416   2.597   5.334  13.487 -0.6441 -0.2560 -0.1413
 3001TIP3   OH230417   5.746   5.413  16.505 -0.1294  0.1898 -0.0159
 3001TIP3    H130418   5.770   5.467  16.429 -0.7613  1.2831  0.5316
 3001TIP3    H230419   5.821   5.355  16.517  1.7670  2.6074  0.8358
 3002TIP3   OH230420   2.941   1.315  10.763 -0.5801  0.3155 -0.6927
 3002TIP3    H130421   2.976   1.380  10.703 -0.7146  0.5404 -0.5315
 3002TIP3    H230422   2.910   1.245  10.707  0.2641  0.0422 -0.8303
 3003TIP3   OH230423   0.146   1.340  15.215  0.2717  0.0138 -0.5842
 3003TIP3    H130424   0.242   1.334  15.219  0.2700  0.2262 -0.1869
 3003TIP3    H230425   0.116   1.302  15.298  0.0806  1.3261 -0.0149
 3004TIP3   OH230426   0.232   4.113  12.083 -0.2467 -0.0011  0.2101
 3004TIP3    H130427   0.313   4.092  12.129 -0.5581  0.1991  0.8586
 3004TIP3    H230428   0.180   4.162  12.147 -1.2728 -0.9563  0.1203
 3005TIP3   OH230429   3.776   1.032   5.273 -0.2631  0.3931  0.6041
 3005TIP3    H130430   3.704   1.089   5.301  0.0085  0.1105  1.9409
 3005TIP3    H230431   3.851   1.061   5.325  0.8771  1.3185 -1.4431
 3006TIP3   OH230432   1.833   5.555  15.621 -0.9278  0.5974  0.8869
 3006TIP3    H130433   1.756   5.499  15.614  0.6079 -1.4146 -2.6561
 3006TIP3    H230434   1.820   5.622  15.554  0.8736 -0.6614 -0.8660
 3007TIP3   OH230435   2.865   4.838   4.321 -0.2733 -0.1603  0.2550
 3007TIP3    H130436   2.920   4.908   4.286 -0.7706  0.9574  1.6281
 3007TIP3    H230437   2.845   4.783   4.245  1.6885  0.0829 -0.5086
 3008TIP3   OH230438   0.293   0.579  14.864 -0.1343  0.3386  0.1530
 3008TIP3    H130439   0.378   0.613  14.836 -0.8607  0.3591 -2.2716
 3008TIP3    H230440   0.230   0.628  14.812 -1.6647  0.2924  1.8655
 3009TIP3   OH230441   6.349   0.811   5.042  0.7495 -0.0219  0.1757
 3009TIP3    H130442   6.435   0.769   5.055  2.3875  2.9793 -0.0047
 3009TIP3    H230443   6.315   0.771   4.962  0.8463 -2.8882  1.4428
 3010TIP3   OH230444   5.702   0.360   4.862  0.3553 -0.0616  0.0716
 3010TIP3    H130445   5.640   0.414   4.811 -0.3913 -0.2695  0.7378
 3010TIP3    H230446   5.788   0.398   4.843 -0.0832  0.8971 -0.0563
 3011TIP3   OH230447   0.111   0.813   3.399 -0.2953 -0.1288 -0.0639
 3011TIP3    H130448   0.159   0.826   3.317 -0.4312 -0.2011 -0.1551
 3011TIP3    H230449   0.173   0.840   3.468  0.0289 -0.6270 -0.1576
 3012TIP3   OH230450   6.543   1.161  17.355 -0.1987  0.1975  0.0217
 3012TIP3    H130451   6.449   1.175  17.351 -0.4462 -1.5012 -1.5547
 3012TIP3    H230452   6.581   1.243  17.324 -1.1595  0.7347  0.2270
 3013TIP3   OH230453   0.316   5.505   5.290 -0.1487  1.2124  0.3646
 3013TIP3    H130454   0.328   5.510   5.385 -1.2732  1.6383  0.4988
 3013TIP3    H230455   0.395   5.543   5.253  0.9306 -0.2218  1.0982
 3014TIP3   OH230456   6.599   4.766  11.614 -0.1961  0.0481  0.4137
 3014TIP3    H130457   6.639   4.776  11.527 -1.0704 -1.2017 -0.1690
 3014TIP3    H230458   6.654   4.818  11.672  2.1828 -1.4425 -0.3550
 3015TIP3   OH230459   5.232   5.339  11.456 -0.2624  0.6171 -0.4070
 3015TIP3    H130460   5.184   5.342  11.539 -2.0284 -1.2170 -1.2867
 3015TIP3    H230461   5.216   5.424  11.416 -0.4793  1.0310  0.5206
 3016TIP3   OH230462   3.858   4.150   6.833  0.2620  0.9557  0.1331
 3016TIP3    H130463   3.768   4.179   6.845 -0.1944 -0.0476 -0.6987
 3016TIP3    H230464   3.873   4.089   6.905 -0.3896 -0.3336 -0.7858
 3017TIP3   OH230465   2.698   6.209   1.813 -0.4656 -0.1513  0.2736
 3017TIP3    H130466   2.759   6.279   1.836 -0.4853  1.1963 -3.1980
 3017TIP3    H230467   2.755   6.139   1.779 -0.5461 -1.4279  2.5433
 3018TIP3   OH230468   0.429   2.157  16.974 -0.0831 -0.1391 -0.2983
 3018TIP3    H130469   0.511   2.136  17.020 -0.7421  0.3020  1.1484
 3018TIP3    H230470   0.452   2.155  16.882  1.5684 -0.0546  0.0781
 3019TIP3   OH230471   5.958   0.517  14.135  0.0216 -0.4133 -0.1973
 3019TIP3    H130472   6.025   0.483  14.194  0.0319 -0.2440 -0.1084
 3019TIP3    H230473   5.966   0.612  14.143 -0.3331 -0.3945 -0.0675
 3020TIP3   OH230474   0.001   1.371   6.691 -0.3227  0.0247 -0.0590
 3020TIP3    H130475  -0.004   1.277   6.704  0.7393  0.0554  0.6781
 3020TIP3    H230476  -0.040   1.386   6.606 -1.0472 -1.0251  0.1011
 3021TIP3   OH230477   3.383   0.893  14.071 -0.1005 -1.0234 -0.2708
 3021TIP3    H130478   3.380   0.863  14.162  0.3677 -0.5635 -0.0999
 3021TIP3    H230479   3.337   0.976  14.071  0.5131 -0.6729 -0.3079
 3022TIP3   OH230480   3.252   5.303  16.298  0.2803 -0.6632 -0.1220
 3022TIP3    H130481   3.262   5.211  16.274  4.1111 -0.7318  1.0705
 3022TIP3    H230482   3.272   5.351  16.217  0.2642 -0.8799 -0.2550
 3023TIP3   OH230483   5.151   1.758  17.296 -0.4017  0.2498  0.5439
 3023TIP3    H130484   5.237   1.719  17.279  0.0589  1.6237 -0.5662
 3023TIP3    H230485   5.090   1.703  17.247  0.2946  1.1524 -1.4463
 3024TIP3   OH230486   1.896   2.655   1.364 -0.3100  0.5082 -0.1156
 3024TIP3    H130487   1.918   2.718   1.434 -0.9411  0.9918 -0.3469
 3024TIP3    H230488   1.927   2.697   1.284 -2.3664  1.4078 -0.5129
 3025TIP3   OH230489   0.456   0.526   0.583  0.3172  0.1732 -0.2531
 3025TIP3    H130490   0.501   0.448   0.614  1.3267  1.0092  0.4810
 3025TIP3    H230491   0.520   0.570   0.527 -0.0618  0.7226 -0.2626
 3026TIP3   OH230492   5.571   3.504  16.713  0.0377  0.5716 -0.6360
 3026TIP3    H130493   5.649   3.451  16.727 -1.1020 -0.6593  1.4964
 3026TIP3    H230494   5.537   3.476  16.627  1.6416  0.8162 -1.3792
 3027TIP3   OH230495   4.941   6.697   3.969  0.4297  0.7442  0.4873
 3027TIP3    H130496   5.011   6.643   3.933  0.1489  1.1741 -0.7912
 3027TIP3    H230497   4.907   6.648   4.043 -0.0094 -0.9832 -0.7907
 3028TIP3   OH230498   0.422   1.173  13.164  0.3504  0.7379 -0.0236
 3028TIP3    H130499   0.333   1.183  13.195 -0.0171 -0.3053 -0.6743
 3028TIP3    H230500   0.419   1.202  13.073  0.4330 -0.2134 -0.3438
 3029TIP3   OH230501   1.270   2.385  16.185  0.3434 -0.2942  0.0107
 3029TIP3    H130502   1.226   2.469  16.172  0.9339 -0.0088 -0.1785
 3029TIP3    H230503   1.255   2.337  16.104  0.7245 -0.0386 -0.2124
 3030TIP3   OH230504   2.437   2.252  12.539  0.0840  0.4295 -0.0525
 3030TIP3    H130505   2.531   2.271  12.544  0.3878 -0.0781 -2.5324
 3030TIP3    H230506   2.405   2.311  12.470 -1.3236  0.2196  0.3986
 3031TIP3   OH230507   1.270   6.523  16.140 -0.0113  0.3627 -0.3783
 3031TIP3    H130508   1.282   6.615  16.160  2.1518  0.2522 -0.8614
 3031TIP3    H230509   1.351   6.497  16.095 -0.5528 -1.7615 -0.2777
 3032TIP3   OH230510   1.694   2.939  16.837  0.0731  0.8179 -0.1305
 3032TIP3    H130511   1.637   2.877  16.791  0.9233  0.5808 -0.8990
 3032TIP3    H230512   1.774   2.890  16.854 -0.2539  0.8746  1.7285
 3033TIP3   OH230513   2.650   4.181   2.739  0.2971 -0.2346  0.0045
 3033TIP3    H130514   2.600   4.132   2.804  0.3157  0.7364  0.7767
 3033TIP3    H230515   2.629   4.273   2.756 -0.0391  0.0289 -1.6662
 3034TIP3   OH230516   3.072   2.499   4.518 -0.2099  0.7617 -0.0089
 3034TIP3    H130517   3.019   2.533   4.590 -0.0750  1.2331 -0.1259
 3034TIP3    H230518   3.148   2.461   4.561 -0.5114  0.3309  0.1425
 3035TIP3   OH230519   2.319   4.054  14.586 -0.0034  0.4544  0.1619
 3035TIP3    H130520   2.266   4.064  14.665  0.8208  1.1896  0.6521
 3035TIP3    H230521   2.286   4.121  14.526  0.0316  0.5694  0.2709
 3036TIP3   OH230522   3.712   4.796  13.694 -0.4994 -0.0536  0.0346
 3036TIP3    H130523   3.799   4.802  13.732  0.3108 -1.4346 -1.5026
 3036TIP3    H230524   3.660   4.859  13.744  0.7818 -0.8389  2.4997
 3037TIP3   OH230525   6.237   2.780   6.252  0.1768 -0.0996  0.3424
 3037TIP3    H130526   6.260   2.810   6.340  0.3580 -2.6369  1.2520
 3037TIP3    H230527   6.316   2.736   6.221 -0.2830 -0.2878 -0.5841
 3038TIP3   OH230528   1.954   1.151  16.204 -0.0776 -0.1310 -0.3469
 3038TIP3    H130529   2.043   1.122  16.223 -0.1213  0.5758  1.0813
 3038TIP3    H230530   1.913   1.077  16.159  1.0168 -0.7189 -0.4010
 3039TIP3   OH230531   0.224   0.512   3.361  0.3111 -0.0190  0.4219
 3039TIP3    H130532   0.309   0.505   3.405  0.7228  1.5836 -0.0406
 3039TIP3    H230533   0.183   0.589   3.402 -1.5507 -1.5529  1.6123
 3040TIP3   OH230534   2.694   1.807   5.041  0.7104 -0.4390 -0.2289
 3040TIP3    H130535   2.765   1.838   4.984  0.7197 -1.7360 -0.9467
 3040TIP3    H230536   2.628   1.772   4.981  0.4135 -1.2036  0.5235
 3041TIP3   OH230537   6.706   2.924  16.266 -0.1230 -0.8158  0.6047
 3041TIP3    H130538   6.692   2.893  16.177  0.7062  0.3077  0.0512
 3041TIP3    H230539   6.631   2.891  16.316 -1.6228  0.1403 -0.9391
 3042TIP3   OH230540   0.733   6.678  15.303  0.2457 -0.1609  0.2649
 3042TIP3    H130541   0.737   6.722  15.388  1.8176 -2.5309  1.5432
 3042TIP3    H230542   0.809   6.712  15.255 -0.6688  1.2154 -0.2489
 3043TIP3   OH230543   0.751   1.669  16.560  0.2372 -0.9221 -0.4203
 3043TIP3    H130544   0.824   1.620  16.597  0.7963  0.2470  0.0775
 3043TIP3    H230545   0.673   1.620  16.587  0.6754 -0.6039  1.5537
 3044TIP3   OH230546   2.003   2.238   4.403 -0.3412 -0.2546  0.1454
 3044TIP3    H130547   1.976   2.297   4.474 -0.4410 -0.5936  0.3900
 3044TIP3    H230548   1.943   2.164   4.409 -0.4329 -0.2246 -0.3805
 3045TIP3   OH230549   2.170   1.592   1.824 -0.0756  0.3939  0.2463
 3045TIP3    H130550   2.221   1.673   1.820  0.3244  0.1505  0.3251
 3045TIP3    H230551   2.161   1.575   1.918 -1.5932  1.2278  0.2867
 3046TIP3   OH230552   5.326   1.810   5.686  0.2636  0.4565  0.4280
 3046TIP3    H130553   5.318   1.793   5.592  2.0492  1.6518  0.0013
 3046TIP3    H230554   5.361   1.729   5.722 -1.4816 -0.3966  0.2724
 3047TIP3   OH230555   1.075   1.000  10.766  0.3080  0.8133 -0.0123
 3047TIP3    H130556   1.083   0.929  10.703  1.3491  1.0806 -0.2094
 3047TIP3    H230557   1.010   0.970  10.829  0.2812 -0.0436 -0.4400
 3048TIP3   OH230558   3.356   5.499  17.185 -0.0911  0.1353 -0.2402
 3048TIP3    H130559   3.435   5.463  17.143  0.1057  1.5204 -1.1050
 3048TIP3    H230560   3.300   5.423  17.198  1.0279 -0.7545 -0.3978
 3049TIP3   OH230561   3.959   4.396  15.550 -0.2643  0.4832  0.3293
 3049TIP3    H130562   3.941   4.365  15.461 -2.3126  1.5814  0.3050
 3049TIP3    H230563   4.011   4.475  15.537  1.7873 -0.8070  0.2646
 3050TIP3   OH230564   2.592   4.272  11.687  0.5446  0.7509  0.2368
 3050TIP3    H130565   2.631   4.267  11.600  0.0818 -0.2706  0.0728
 3050TIP3    H230566   2.507   4.229  11.678  0.4947  0.6299  1.1874
 3051TIP3   OH230567   4.277   4.807  12.524  0.0119  0.2494 -0.1717
 3051TIP3    H130568   4.287   4.757  12.605  0.3711  1.9211  0.8539
 3051TIP3    H230569   4.188   4.787  12.495 -0.0260 -0.5881  0.4615
 3052TIP3   OH230570   3.845   3.298   0.722 -0.9874  0.0286  0.0439
 3052TIP3    H130571   3.806   3.336   0.801  2.1202 -0.2823  1.8896
 3052TIP3    H230572   3.908   3.364   0.693  0.4515 -1.3274 -0.0276
 3053TIP3   OH230573   5.928   5.969  14.411  0.1733 -0.2115 -0.2298
 3053TIP3    H130574   5.845   6.004  14.381 -0.4204 -2.6347 -1.6863
 3053TIP3    H230575   5.931   5.988  14.505 -0.9549  1.8630 -0.5826
 3054TIP3   OH230576   4.807   4.755  12.993 -0.3607  0.1973 -0.1385
 3054TIP3    H130577   4.742   4.684  12.990  1.0908 -1.1570 -1.3563
 3054TIP3    H230578   4.793   4.803  12.911  1.2501 -1.1840 -1.2945
 3055TIP3   OH230579   6.642   2.908   0.578  0.1395 -0.4038  0.0899
 3055TIP3    H130580   6.629   2.958   0.498 -2.7326  1.4328  1.5497
 3055TIP3    H230581   6.698   2.964   0.633  0.8928 -1.0087 -0.0351
 3056TIP3   OH230582   0.320   3.072   5.252 -0.0683 -0.0158  0.6470
 3056TIP3    H130583   0.312   3.040   5.341 -0.8882 -1.4509  0.0894
 3056TIP3    H230584   0.253   3.024   5.203 -1.7655  2.9067 -0.1538
 3057TIP3   OH230585   5.008   1.837  15.527  1.0950  0.2068  0.2986
 3057TIP3    H130586   5.013   1.932  15.513  0.4317  0.0820 -0.9719
 3057TIP3    H230587   5.026   1.825  15.620 -2.3970  1.9123  1.3576
 3058TIP3   OH230588   0.513   3.923   4.451 -1.1764 -0.0278 -0.2639
 3058TIP3    H130589   0.558   3.909   4.368  0.5299 -0.4569  0.6869
 3058TIP3    H230590   0.540   3.849   4.506 -1.7501  0.5902  0.8871
 3059TIP3   OH230591   1.230   6.331   3.068  0.6227  0.4632 -0.5259
 3059TIP3    H130592   1.315   6.311   3.107 -0.0231 -3.2529 -0.5979
 3059TIP3    H230593   1.207   6.252   3.019 -2.7495  1.4043 -0.7625
 3060TIP3   OH230594   4.916   2.738   6.375  0.3500 -0.1358  0.0306
 3060TIP3    H130595   4.960   2.656   6.398  0.0707 -0.0380  0.9553
 3060TIP3    H230596   4.926   2.793   6.453 -1.3039 -0.0785  0.2302
 3061TIP3   OH230597   2.240   3.458  17.110  0.1415 -0.7491 -0.1892
 3061TIP3    H130598   2.194   3.540  17.128 -0.5878 -1.1785 -0.0605
 3061TIP3    H230599   2.252   3.457  17.015  0.6035 -0.2673 -0.1462
 3062TIP3   OH230600   4.605   5.111   6.018 -0.1716 -0.9908  0.2686
 3062TIP3    H130601   4.514   5.134   6.036  0.1149  0.8478 -0.3225
 3062TIP3    H230602   4.655   5.152   6.089  0.4755  1.6266 -1.5028
 3063TIP3   OH230603   1.144   0.629   0.525  0.2349  0.5167  0.1020
 3063TIP3    H130604   1.073   0.691   0.545 -2.2740 -1.8957 -0.6783
 3063TIP3    H230605   1.174   0.654   0.438 -1.5317  0.0279 -0.6811
 3064TIP3   OH230606   6.287   1.200  16.344 -0.1198  0.3393 -0.7122
 3064TIP3    H130607   6.196   1.208  16.315 -0.3900 -1.8021 -0.6504
 3064TIP3    H230608   6.290   1.116  16.390  2.5167 -1.1979 -3.3284
 3065TIP3   OH230609   1.018   4.764   5.460 -0.1916  0.2139 -0.1411
 3065TIP3    H130610   0.928   4.752   5.429 -0.2477 -1.8395  0.6934
 3065TIP3    H230611   1.026   4.859   5.473 -2.1880  0.4533 -0.3345
 3066TIP3   OH230612   3.185   3.459   1.239  0.0303  0.9884  0.0468
 3066TIP3    H130613   3.171   3.365   1.245  1.1351  0.2943 -4.3949
 3066TIP3    H230614   3.241   3.480   1.313  0.2323 -1.9494  0.8378
 3067TIP3   OH230615   4.844   3.851  15.910  0.6294  0.1980 -0.0096
 3067TIP3    H130616   4.762   3.872  15.866  0.8064  2.8855  0.7385
 3067TIP3    H230617   4.897   3.808  15.843 -0.9118 -0.4526 -0.8599
 3068TIP3   OH230618   3.662   1.420  12.651 -0.1766  0.0928  0.7095
 3068TIP3    H130619   3.608   1.493  12.681  0.4395  0.4182  1.0432
 3068TIP3    H230620   3.614   1.385  12.576 -0.6723  0.5992  0.7760
 3069TIP3   OH230621   3.913   3.040  13.640 -0.4363  0.3394  0.2733
 3069TIP3    H130622   3.900   3.132  13.615 -0.7353 -0.0549 -1.1086
 3069TIP3    H230623   3.891   2.991  13.561 -0.8639 -0.9641  1.1713
 3070TIP3   OH230624   1.568   5.980  12.694  0.5796  0.0485  0.3936
 3070TIP3    H130625   1.477   5.964  12.720  0.4732  0.5706  0.3603
 3070TIP3    H230626   1.618   5.966  12.774  0.6573 -1.7720  0.0536
 3071TIP3   OH230627   6.144   1.233  14.334 -0.1043  0.3426 -0.2588
 3071TIP3    H130628   6.177   1.251  14.423 -0.6798  0.9530 -0.1569
 3071TIP3    H230629   6.154   1.139  14.324 -0.3031  0.2203  0.5727
 3072TIP3   OH230630   6.252   6.020   4.148  0.0780  0.2094 -0.2101
 3072TIP3    H130631   6.158   6.005   4.160 -0.0706  0.0122 -1.4779
 3072TIP3    H230632   6.262   6.114   4.157  0.0213  0.1000  1.4311
 3073TIP3   OH230633   0.308   1.642   3.255 -0.2454  0.2790 -0.0499
 3073TIP3    H130634   0.288   1.723   3.301 -0.6937 -0.0228  0.2963
 3073TIP3    H230635   0.258   1.575   3.301 -0.9407  0.0109 -1.1350
 3074TIP3   OH230636   4.797   4.970  12.817 -0.2006  0.1146  0.3335
 3074TIP3    H130637   4.756   4.908  12.757  0.6894 -1.0461  0.8625
 3074TIP3    H230638   4.731   5.037  12.832 -2.3534 -2.1923  1.9992
 3075TIP3   OH230639   1.363   0.858   2.783  0.0212 -0.0374 -0.4838
 3075TIP3    H130640   1.345   0.913   2.707  1.2729 -0.0660 -0.8223
 3075TIP3    H230641   1.302   0.784   2.774 -0.5027  0.4444 -0.9348
 3076TIP3   OH230642   0.185   5.318  13.501 -0.5427 -0.1833  0.3121
 3076TIP3    H130643   0.160   5.331  13.410 -1.5783  1.1442  0.7642
 3076TIP3    H230644   0.274   5.353  13.507  0.0212 -1.3999 -0.4304
 3077TIP3   OH230645   5.781   1.587  17.147  0.1106 -0.7075 -0.3408
 3077TIP3    H130646   5.870   1.553  17.139 -0.1573 -1.1794 -1.4335
 3077TIP3    H230647   5.788   1.659  17.210  1.4166 -0.1803 -1.0711
 3078TIP3   OH230648   0.317   6.432  11.849  0.1738 -0.3093 -0.1454
 3078TIP3    H130649   0.233   6.469  11.821 -0.1439 -0.4402  0.6214
 3078TIP3    H230650   0.312   6.340  11.824  0.3543 -0.1837 -0.6738
 3079TIP3   OH230651   0.795   0.254   2.246  0.9901  0.3427  0.3487
 3079TIP3    H130652   0.727   0.242   2.179  0.3641  0.7443  0.9003
 3079TIP3    H230653   0.875   0.271   2.197  0.9609 -1.3503 -0.3587
 3080TIP3   OH230654   6.646   6.045   2.847  0.0253  0.0049 -0.2208
 3080TIP3    H130655   6.626   5.972   2.788 -0.4565  0.2008 -0.3013
 3080TIP3    H230656   6.596   6.027   2.926  0.0122  0.1766 -0.1899
 3081TIP3   OH230657   5.508   4.812  17.210 -0.7583  0.1734  0.3446
 3081TIP3    H130658   5.427   4.786  17.165 -0.2189  0.3751 -0.7671
 3081TIP3    H230659   5.484   4.891  17.259 -1.0128  0.8105 -0.7636
 3082TIP3   OH230660   5.897   1.395   5.386  0.1683  0.0689  0.0429
 3082TIP3    H130661   5.916   1.310   5.426 -0.9567 -0.1259  0.1940
 3082TIP3    H230662   5.887   1.454   5.461 -1.2234 -0.1428  0.0385
 3083TIP3   OH230663   1.566   4.836   5.832 -0.3729 -0.4669  0.3939
 3083TIP3    H130664   1.608   4.835   5.746 -2.2956  2.3984 -0.7526
 3083TIP3    H230665   1.485   4.787   5.819 -1.8464  1.9476 -0.2796
 3084TIP3   OH230666   1.449   4.107   0.508  0.5334  0.1610  0.0507
 3084TIP3    H130667   1.447   4.152   0.424  1.5835  0.3591  0.1193
 3084TIP3    H230668   1.357   4.090   0.528  0.2021  1.0564 -0.6287
 3085TIP3   OH230669   4.026   4.877   1.917  0.5624  0.4605  0.3285
 3085TIP3    H130670   4.115   4.869   1.883  0.8132  0.3756  0.9910
 3085TIP3    H230671   3.998   4.786   1.931 -0.3731  0.3750 -1.7229
 3086TIP3   OH230672   0.850   1.862   0.656 -0.7030  0.1290  0.1985
 3086TIP3    H130673   0.896   1.820   0.583  0.0546  0.7465  0.3100
 3086TIP3    H230674   0.790   1.795   0.688  2.4101 -1.9826  2.2026
 3087TIP3   OH230675   4.057   5.836   5.401 -0.3184  0.0778 -0.2592
 3087TIP3    H130676   4.056   5.889   5.480 -1.0844 -0.0901 -0.1484
 3087TIP3    H230677   4.149   5.816   5.386 -0.0963  0.7803  0.1366
 3088TIP3   OH230678   4.588   1.090   5.399  1.0310  0.7476 -0.0321
 3088TIP3    H130679   4.569   1.051   5.484  2.5890  0.2140  0.0955
 3088TIP3    H230680   4.643   1.025   5.354  0.1424  0.9535 -1.5169
 3089TIP3   OH230681   2.024   2.795  12.779 -0.1181 -0.0745 -0.5293
 3089TIP3    H130682   2.118   2.807  12.768  0.0110  0.7351  1.1701
 3089TIP3    H230683   1.985   2.873  12.738  0.0797  0.6141  0.5726
 3090TIP3   OH230684   3.657   4.003  10.835 -0.4861 -0.7851  0.0767
 3090TIP3    H130685   3.751   3.987  10.827 -0.7343 -1.6593 -1.7559
 3090TIP3    H230686   3.621   3.972  10.752 -2.2351  0.8219  0.1696
 3091TIP3   OH230687   6.252   5.700   6.164  0.4234  0.0676 -0.8378
 3091TIP3    H130688   6.171   5.650   6.178  0.5125 -0.3678 -1.7923
 3091TIP3    H230689   6.263   5.751   6.244  0.1663 -1.2253  0.0456
 3092TIP3   OH230690   5.217   3.436   4.684  0.2670  0.0101 -0.0944
 3092TIP3    H130691   5.289   3.498   4.684  0.5970 -0.3729 -0.1078
 3092TIP3    H230692   5.182   3.439   4.773 -2.1475  3.0105 -0.9768
 3093TIP3   OH230693   0.689   3.668  17.174 -0.8313  0.1764  0.2237
 3093TIP3    H130694   0.602   3.629  17.187 -0.3527 -0.9361  0.1912
 3093TIP3    H230695   0.676   3.761  17.192 -1.5834 -0.2730  2.3211
 3094TIP3   OH230696   2.230   6.253   5.031  0.1702  0.4676  0.3233
 3094TIP3    H130697   2.188   6.257   5.117  0.1936 -0.0190  0.3582
 3094TIP3    H230698   2.237   6.160   5.011  1.9104  0.5031  0.6539
 3095TIP3   OH230699   2.511   0.413   4.991  0.3424  0.0683 -0.4364
 3095TIP3    H130700   2.528   0.376   5.078  2.0078  0.9820 -0.3394
 3095TIP3    H230701   2.516   0.508   5.003  1.7189  0.1897 -1.7196
 3096TIP3   OH230702   0.624   2.179  15.537  0.2524 -0.0650  0.0744
 3096TIP3    H130703   0.689   2.243  15.509 -0.1999 -0.7754 -3.0090
 3096TIP3    H230704   0.592   2.212  15.621  1.7347  2.4414 -0.2488
 3097TIP3   OH230705   5.671   2.133  14.513 -0.6668 -0.1918 -0.2439
 3097TIP3    H130706   5.649   2.070  14.582 -1.4994  0.6260  0.2619
 3097TIP3    H230707   5.742   2.185  14.551 -2.7424  1.8749  1.0611
 3098TIP3   OH230708   0.699   0.069   5.421  0.3102 -0.9401 -0.5048
 3098TIP3    H130709   0.663  -0.013   5.386 -0.6659 -0.4113 -0.8021
 3098TIP3    H230710   0.628   0.104   5.476  1.5001 -1.3412  1.3787
 3099TIP3   OH230711   1.676   3.541   1.676 -0.6463 -0.4417 -0.1325
 3099TIP3    H130712   1.714   3.511   1.759 -1.0060  1.3831  0.7647
 3099TIP3    H230713   1.582   3.528   1.687 -0.8499  1.2510  0.4411
 3100TIP3   OH230714   3.719   0.533   0.156  0.0959 -0.0118 -0.3130
 3100TIP3    H130715   3.801   0.583   0.149  0.2323 -0.4135 -1.8089
 3100TIP3    H230716   3.737   0.450   0.113 -1.4269  0.3226 -1.6867
 3101TIP3   OH230717   2.652   1.857   3.725 -0.2651 -0.1773 -0.0537
 3101TIP3    H130718   2.675   1.767   3.703  1.0089  0.2856 -0.6716
 3101TIP3    H230719   2.709   1.879   3.799 -0.5104  0.1687  0.0345
 3102TIP3   OH230720   2.134   5.957  17.254  0.4103  0.4233 -0.1590
 3102TIP3    H130721   2.046   5.994  17.256  0.6744  1.2959 -2.1855
 3102TIP3    H230722   2.151   5.943  17.161  1.3485 -2.4093  0.3536
 3103TIP3   OH230723   0.862   4.241   3.044  0.1088 -0.5130 -0.5025
 3103TIP3    H130724   0.824   4.306   3.103 -0.8643  0.6501 -2.3204
 3103TIP3    H230725   0.830   4.265   2.957  3.0287 -0.9725 -1.8397
 3104TIP3   OH230726   4.088   1.629  13.241  0.5056 -0.3520 -0.6694
 3104TIP3    H130727   4.071   1.715  13.202  0.5921  0.9798  1.9958
 3104TIP3    H230728   4.007   1.580  13.224  0.2175  0.4377 -1.7302
 3105TIP3   OH230729   2.301   0.622  16.410 -0.5504  0.0378  0.1743
 3105TIP3    H130730   2.271   0.708  16.443 -0.6487 -0.4559  1.4416
 3105TIP3    H230731   2.308   0.634  16.316  3.0169  2.5717  0.5486
 3106TIP3   OH230732   4.077   2.338  12.085  0.3037 -0.1822 -0.2364
 3106TIP3    H130733   4.051   2.398  12.154  0.4429 -0.0856 -0.2693
 3106TIP3    H230734   4.033   2.256  12.107  0.3989 -0.1696  0.0019
 3107TIP3   OH230735   2.481   2.693   6.060 -0.1426 -0.6693  0.5151
 3107TIP3    H130736   2.402   2.660   6.102 -1.8445  1.5815 -0.7324
 3107TIP3    H230737   2.454   2.713   5.971  2.0309 -0.4329 -0.1400
 3108TIP3   OH230738   1.618   2.376  16.668 -0.5445 -0.3939 -0.2893
 3108TIP3    H130739   1.542   2.387  16.725  1.1846  0.7156  1.9378
 3108TIP3    H230740   1.655   2.292  16.693 -1.2160 -1.1275 -1.6636
 3109TIP3   OH230741   3.125   3.187   0.683  0.2616 -0.1664 -0.1190
 3109TIP3    H130742   3.159   3.099   0.696  0.9154  0.1578  0.4140
 3109TIP3    H230743   3.192   3.245   0.720  0.6188  0.6383 -1.9215
 3110TIP3   OH230744   1.543   6.263   3.967  0.0119 -0.0059  0.3886
 3110TIP3    H130745   1.568   6.191   4.026 -0.4769 -0.6657 -0.1917
 3110TIP3    H230746   1.510   6.331   4.025  1.2048  0.0733  1.0145
 3111TIP3   OH230747   0.545   1.613  11.397 -0.3533  0.6315  0.4336
 3111TIP3    H130748   0.634   1.583  11.382 -1.1815 -1.1809 -1.4091
 3111TIP3    H230749   0.553   1.707  11.412  2.0152  0.2044  2.4129
 3112TIP3   OH230750   4.192   6.547   2.566  0.0879 -0.4707 -0.5377
 3112TIP3    H130751   4.255   6.541   2.494  1.7896  1.3345  0.6804
 3112TIP3    H230752   4.207   6.634   2.603 -2.1002 -0.5842  0.7983
 3113TIP3   OH230753   4.982   3.023  14.494  0.5068  0.0760  0.6114
 3113TIP3    H130754   5.010   3.081  14.423 -0.6063  0.2063  0.2626
 3113TIP3    H230755   4.927   2.957  14.451  0.7609 -0.5343  1.1864
 3114TIP3   OH230756   6.685   0.214   4.964 -0.6801 -0.6925  0.1992
 3114TIP3    H130757   6.614   0.169   4.917  0.2292 -3.2139  1.0834
 3114TIP3    H230758   6.765   0.187   4.919 -0.1803  2.6931 -1.2496
 3115TIP3   OH230759   2.921   0.590  11.507  0.0002 -0.0601 -0.4764
 3115TIP3    H130760   2.883   0.664  11.459  0.4142  0.9448  0.6845
 3115TIP3    H230761   2.983   0.630  11.568  0.0654 -1.3512  0.3511
 3116TIP3   OH230762   2.854   0.289   5.163 -0.3393 -0.0836  0.0187
 3116TIP3    H130763   2.894   0.220   5.216  0.0425 -0.0337 -0.1984
 3116TIP3    H230764   2.762   0.288   5.188 -0.2979 -0.5328  0.1681
 3117TIP3   OH230765   1.809   0.641  11.544  0.7021 -0.2273 -0.3773
 3117TIP3    H130766   1.803   0.600  11.630  1.2186 -0.4163 -0.4280
 3117TIP3    H230767   1.721   0.676  11.527 -0.3198 -2.8947 -1.1206
 3118TIP3   OH230768   3.934   1.690  11.162 -0.2783 -0.7563  0.0445
 3118TIP3    H130769   4.005   1.642  11.118 -1.1551 -2.8685  0.8084
 3118TIP3    H230770   3.898   1.746  11.093  1.0941 -0.8085 -0.7704
 3119TIP3   OH230771   3.808   0.405  12.078  0.5025 -0.0046 -0.3416
 3119TIP3    H130772   3.851   0.320  12.081 -0.9858 -0.8025 -0.2751
 3119TIP3    H230773   3.771   0.410  11.990 -0.6909 -0.1273  0.1325
 3120TIP3   OH230774   3.466   3.433  12.737 -0.2719 -0.2637  0.4341
 3120TIP3    H130775   3.398   3.477  12.787 -0.6959 -1.1215  0.6204
 3120TIP3    H230776   3.471   3.345  12.774 -0.0435 -0.6585 -0.5084
 3121TIP3   OH230777   1.861   4.211   2.292  0.3150  0.0232  0.4936
 3121TIP3    H130778   1.892   4.177   2.208 -2.0530  0.3761 -0.5970
 3121TIP3    H230779   1.811   4.139   2.331  0.2926  0.2941  0.9723
 3122TIP3   OH230780   2.226   1.572   4.791  0.1233  0.2852 -0.5200
 3122TIP3    H130781   2.283   1.503   4.825 -0.3002 -0.6288 -1.6119
 3122TIP3    H230782   2.137   1.540   4.806 -0.0821  0.6439 -0.9275
 3123TIP3   OH230783   3.088   1.492  10.610  0.0122  0.3459 -0.3287
 3123TIP3    H130784   3.027   1.559  10.578  1.6015  0.5187 -3.3749
 3123TIP3    H230785   3.174   1.534  10.605  0.9578 -1.6006 -1.5123
 3124TIP3   OH230786   6.337   1.782  13.027  0.6795  0.0762 -0.2218
 3124TIP3    H130787   6.255   1.812  13.067  0.1773 -0.6382 -0.6885
 3124TIP3    H230788   6.364   1.708  13.081  0.0794 -0.7960 -1.0821
 3125TIP3   OH230789   3.256   1.776  13.916 -0.1810 -0.3508  0.4089
 3125TIP3    H130790   3.183   1.813  13.965 -0.5059 -0.6240  0.1389
 3125TIP3    H230791   3.216   1.742  13.836  0.0919 -1.4099  0.7097
 3126TIP3   OH230792   0.287   3.593   6.064  0.3091 -0.2723 -0.1981
 3126TIP3    H130793   0.195   3.568   6.058  0.5030 -0.9880 -0.2686
 3126TIP3    H230794   0.330   3.520   6.108  1.1547 -0.7557 -1.7447
 3127TIP3   OH230795   3.254   5.335   2.210  0.4074 -0.3152 -0.2503
 3127TIP3    H130796   3.254   5.349   2.304 -1.5858 -0.8728 -0.1254
 3127TIP3    H230797   3.162   5.334   2.185  0.7787 -2.4214 -1.8561
 3128TIP3   OH230798   1.872   2.376  15.735 -0.2118 -0.2826  0.4390
 3128TIP3    H130799   1.833   2.371  15.823 -1.0466  1.9639  0.2493
 3128TIP3    H230800   1.955   2.421  15.749 -0.5945  0.5708  0.0331
 3129TIP3   OH230801   4.981   6.251   4.366  0.3778  0.1640 -0.2370
 3129TIP3    H130802   5.028   6.170   4.347  1.2613  0.7587 -0.6636
 3129TIP3    H230803   5.049   6.312   4.394 -0.3327  0.6372  0.4873
 3130TIP3   OH230804   2.624   3.329   5.470 -0.1087  0.0601  0.4755
 3130TIP3    H130805   2.704   3.324   5.522  1.0813  3.4235 -0.7261
 3130TIP3    H230806   2.559   3.369   5.529  0.7440  2.2667  0.0391
 3131TIP3   OH230807   3.172   4.524  12.477 -0.5397  0.9929  0.1591
 3131TIP3    H130808   3.187   4.618  12.492  0.6663  0.7814  0.3372
 3131TIP3    H230809   3.258   4.490  12.451 -1.5270  0.5028 -2.9777
 3132TIP3   OH230810   0.712   3.104   0.020  0.7954 -0.2426  0.2669
 3132TIP3    H130811   0.703   3.028  -0.037 -0.3229 -0.7272  1.0523
 3132TIP3    H230812   0.801   3.136   0.004  0.6931 -0.6943 -1.3072
 3133TIP3   OH230813   1.678   5.167  11.632  0.4249  0.0739 -0.4511
 3133TIP3    H130814   1.671   5.231  11.703  2.2253  0.5562 -0.6527
 3133TIP3    H230815   1.687   5.220  11.553  1.2363 -0.4251 -0.7060
 3134TIP3   OH230816   0.140   5.457  15.556  0.1661 -0.5545  0.7686
 3134TIP3    H130817   0.088   5.388  15.517  0.0622 -0.2826  0.4162
 3134TIP3    H230818   0.083   5.497  15.621  0.1904 -0.7353  0.8994
 3135TIP3   OH230819   1.322   5.615   4.358 -0.0118  0.6952 -0.3052
 3135TIP3    H130820   1.281   5.609   4.444  0.8916 -2.9154  0.0224
 3135TIP3    H230821   1.254   5.584   4.298  0.1716  0.7942 -0.5625
 3136TIP3   OH230822   3.492   4.003   5.521 -0.3861 -0.1121  0.0493
 3136TIP3    H130823   3.413   3.962   5.486 -0.4775  0.6897 -0.7231
 3136TIP3    H230824   3.555   3.931   5.530 -0.3357 -0.3526 -1.8562
 3137TIP3   OH230825   3.868   1.547  13.671  0.1458  0.0698 -0.2682
 3137TIP3    H130826   3.906   1.479  13.615  0.9115  0.2272  0.0480
 3137TIP3    H230827   3.894   1.629  13.629  1.1968  0.2022  0.6049
 3138TIP3   OH230828   0.990   3.693   4.775 -0.6112  0.4518  0.1273
 3138TIP3    H130829   1.034   3.691   4.860 -0.7887  1.0199  0.2311
 3138TIP3    H230830   1.000   3.783   4.744 -0.7074  0.2951 -0.3716
 3139TIP3   OH230831   1.586   2.489  16.205 -0.0377 -0.7145  0.1127
 3139TIP3    H130832   1.638   2.495  16.285  2.3189 -1.1143 -1.2796
 3139TIP3    H230833   1.560   2.397  16.200  2.3127 -1.4199 -0.9233
 3140TIP3   OH230834   0.311   5.340   3.391  0.3945  0.0297 -0.2171
 3140TIP3    H130835   0.257   5.306   3.463  1.0768 -1.6092 -0.4216
 3140TIP3    H230836   0.361   5.411   3.430 -0.4456  0.2446  0.4992
 3141TIP3   OH230837   1.654   6.593   5.576 -0.6690  0.0649  0.4501
 3141TIP3    H130838   1.561   6.600   5.598 -0.6931 -0.7520  0.6195
 3141TIP3    H230839   1.689   6.681   5.593 -1.7335  0.8609 -1.2190
 3142TIP3   OH230840   2.372   6.725  12.386 -0.3376  0.3451  0.1529
 3142TIP3    H130841   2.392   6.752  12.476 -1.5182  0.2040  0.4741
 3142TIP3    H230842   2.386   6.630  12.386 -1.2803  0.1982  0.4642
 3143TIP3   OH230843   2.199   3.348   4.447 -0.3669  0.0287  0.2679
 3143TIP3    H130844   2.153   3.269   4.418 -1.0177 -0.0749  1.5159
 3143TIP3    H230845   2.137   3.419   4.432  0.1231  0.2823 -0.6182
 3144TIP3   OH230846   5.865   5.785  11.673  0.4198  0.5709  0.4693
 3144TIP3    H130847   5.881   5.808  11.764  0.2599 -1.0046  0.9214
 3144TIP3    H230848   5.928   5.717  11.653 -0.4588 -0.0925 -0.1655
 3145TIP3   OH230849   1.700   4.565  14.077  0.2050  0.0707 -0.3033
 3145TIP3    H130850   1.758   4.599  14.008  0.3912  0.9296  0.2628
 3145TIP3    H230851   1.760   4.539  14.147 -0.1181  1.8536  0.6756
 3146TIP3   OH230852   1.785   0.820   1.012  0.4020  0.0514  0.3631
 3146TIP3    H130853   1.827   0.734   1.001  0.8873  0.4765 -1.4593
 3146TIP3    H230854   1.761   0.847   0.924 -1.6747  0.8780  1.1270
 3147TIP3   OH230855   4.163   5.985   0.505  0.3218  0.1989  0.5088
 3147TIP3    H130856   4.229   5.916   0.498 -0.1484 -0.4355  1.8991
 3147TIP3    H230857   4.148   5.994   0.600 -0.4203  1.4430  0.2902
 3148TIP3   OH230858   5.511   5.066   5.007  0.2368  0.3734 -0.0667
 3148TIP3    H130859   5.497   5.010   5.083 -0.0440  0.1112 -0.3116
 3148TIP3    H230860   5.566   5.137   5.040 -0.6469  0.7591  0.6128
 3149TIP3   OH230861   5.855   1.135   2.507  0.2430 -0.5067 -0.1077
 3149TIP3    H130862   5.909   1.094   2.440 -0.6356 -0.3565 -0.9355
 3149TIP3    H230863   5.913   1.198   2.549  0.3659  0.6728 -1.9192
 3150TIP3   OH230864   3.384   3.796   3.983 -0.2821 -0.5684  0.4691
 3150TIP3    H130865   3.377   3.704   4.007  0.0707 -0.8407 -0.4262
 3150TIP3    H230866   3.306   3.837   4.019 -0.2089 -1.1224  1.2805
 3151TIP3   OH230867   2.946   5.178  12.054 -0.3869 -0.4275 -0.2645
 3151TIP3    H130868   3.037   5.154  12.042 -0.5951 -0.8946 -0.9085
 3151TIP3    H230869   2.897   5.126  11.991 -1.2248 -0.9965  0.8074
 3152TIP3   OH230870   0.673   1.860   6.130  0.0632 -0.1162  0.3441
 3152TIP3    H130871   0.766   1.881   6.137  0.2665 -0.9985  0.4571
 3152TIP3    H230872   0.630   1.920   6.191  0.8735 -1.5738  2.4924
 3153TIP3   OH230873   6.131   3.177   1.410  0.0720 -0.2569  0.1188
 3153TIP3    H130874   6.136   3.106   1.474 -0.0064 -2.2765 -1.9918
 3153TIP3    H230875   6.212   3.169   1.359 -0.7521  0.0130 -1.2862
 3154TIP3   OH230876   0.888   0.074   4.764 -0.0323 -0.4154 -0.0923
 3154TIP3    H130877   0.805   0.034   4.739 -1.0552  1.7229 -0.3629
 3154TIP3    H230878   0.947   0.054   4.691 -0.8579 -0.4186 -0.7818
 3155TIP3   OH230879   5.016   0.223  17.307 -0.3034  0.0807  0.2410
 3155TIP3    H130880   4.983   0.312  17.294  0.7883  0.6654  1.3574
 3155TIP3    H230881   4.953   0.183  17.367 -1.2818 -0.2166 -0.9433
 3156TIP3   OH230882   2.511   3.417   4.224  0.0711 -0.0195 -0.1505
 3156TIP3    H130883   2.597   3.460   4.233 -0.3379  0.4032  2.8315
 3156TIP3    H230884   2.530   3.324   4.239  0.1494 -0.1083 -0.7601
 3157TIP3   OH230885   3.715   4.861  12.327 -0.1897 -0.0636 -0.2667
 3157TIP3    H130886   3.661   4.934  12.295  1.3629  1.1278 -0.2884
 3157TIP3    H230887   3.761   4.897  12.402  2.8024 -0.0134 -1.9633
 3158TIP3   OH230888   3.586   3.532  12.513  0.5075  0.2716  0.4740
 3158TIP3    H130889   3.539   3.523  12.596 -1.4790 -2.7306 -0.8185
 3158TIP3    H230890   3.603   3.442  12.485  0.2174  1.1302 -2.8566
 3159TIP3   OH230891   1.302   4.370   5.332 -0.9482  0.2531 -0.7478
 3159TIP3    H130892   1.280   4.298   5.391  1.7495  1.7810  2.4503
 3159TIP3    H230893   1.329   4.327   5.250  1.0806 -2.5410  1.1845
 3160TIP3   OH230894   5.466   3.716  14.630 -0.2730 -0.3106 -0.6806
 3160TIP3    H130895   5.429   3.718  14.718  0.4485 -2.7568 -0.2529
 3160TIP3    H230896   5.559   3.739  14.642  0.2701 -2.4467 -0.4734
 3161TIP3   OH230897   0.802   3.184  15.087 -0.0171 -0.5392 -0.3787
 3161TIP3    H130898   0.853   3.185  15.168  0.0672  0.3587 -0.4357
 3161TIP3    H230899   0.741   3.257  15.097  0.5586  0.1114 -1.4837
 3162TIP3   OH230900   3.336   3.731  15.974 -0.0640  0.0045  0.8763
 3162TIP3    H130901   3.421   3.747  15.935 -0.5273  0.9621  0.2303
 3162TIP3    H230902   3.340   3.776  16.059  0.2411 -0.3994  1.0837
 3163TIP3   OH230903   5.620   3.735  16.227 -0.7441  0.4086  0.2086
 3163TIP3    H130904   5.621   3.639  16.237  0.1012  0.3230 -0.5970
 3163TIP3    H230905   5.698   3.764  16.274  0.4943  0.4440 -1.8026
 3164TIP3   OH230906   1.780   3.421   3.915 -0.3112  0.1742  0.3553
 3164TIP3    H130907   1.854   3.370   3.946  0.5267  0.6112 -0.8375
 3164TIP3    H230908   1.732   3.445   3.994  1.6620  1.1661  1.3395
 3165TIP3   OH230909   4.560   0.810  15.189 -0.2671 -0.1220 -0.3816
 3165TIP3    H130910   4.565   0.780  15.099  1.4625 -0.8947 -0.0620
 3165TIP3    H230911   4.613   0.748  15.239  0.9883  1.7448  0.7615
 3166TIP3   OH230912   1.344   2.263  16.431  0.1602 -0.2499 -0.1632
 3166TIP3    H130913   1.422   2.213  16.407  1.0930  1.8085 -1.6825
 3166TIP3    H230914   1.324   2.315  16.354 -2.7064 -0.6047  0.2145
 3167TIP3   OH230915   4.486   2.531   2.545  0.8053 -0.2054 -0.3072
 3167TIP3    H130916   4.401   2.494   2.569  0.1870  0.8742 -0.7258
 3167TIP3    H230917   4.480   2.543   2.450  1.5279 -0.3420 -0.3741
 3168TIP3   OH230918   0.230   0.165  15.653 -0.4032 -0.1593 -0.2285
 3168TIP3    H130919   0.160   0.122  15.703 -0.4074  1.5749  1.3671
 3168TIP3    H230920   0.183   0.220  15.589 -0.4649 -0.2452 -0.2575
 3169TIP3   OH230921   3.048   3.834  15.937  0.0962  0.4372 -0.0099
 3169TIP3    H130922   2.979   3.781  15.977  1.5148 -1.8996 -0.4688
 3169TIP3    H230923   3.099   3.772  15.885  0.4068  2.7212 -2.6591
 3170TIP3   OH230924   6.003   3.449  16.326 -0.6014  0.3232 -0.1450
 3170TIP3    H130925   6.075   3.406  16.371 -1.7011 -0.6601  0.7603
 3170TIP3    H230926   6.029   3.450  16.234  1.0479  1.0422  0.3055
 3171TIP3   OH230927   0.764   2.453   4.949 -0.1668  0.1638 -0.2667
 3171TIP3    H130928   0.767   2.370   4.901  2.0222 -0.8994  1.4973
 3171TIP3    H230929   0.671   2.474   4.954 -0.7011 -1.4984 -1.8645
 3172TIP3   OH230930   3.503   5.958  15.902 -0.0226  0.2702 -0.8680
 3172TIP3    H130931   3.476   5.895  15.835  2.2173 -0.8332 -0.8027
 3172TIP3    H230932   3.420   5.987  15.942 -1.1940 -1.6108 -1.7851
 3173TIP3   OH230933   3.246   0.480  13.938 -0.0768 -0.1572  0.3420
 3173TIP3    H130934   3.251   0.571  13.908 -0.7753 -0.5394 -1.0385
 3173TIP3    H230935   3.330   0.442  13.913 -0.5101 -0.3723 -0.8808
 3174TIP3   OH230936   5.496   2.807  13.874 -0.4749 -0.1468  0.1193
 3174TIP3    H130937   5.447   2.888  13.887  1.6498  1.0902  0.7974
 3174TIP3    H230938   5.496   2.764  13.960  0.6978  0.5089  0.4638
 3175TIP3   OH230939   1.351   5.373   5.577 -0.0117 -0.0659 -0.5497
 3175TIP3    H130940   1.338   5.405   5.488  0.5470 -1.1459 -1.0401
 3175TIP3    H230941   1.280   5.311   5.591  1.2158 -1.6626 -1.1306
 3176TIP3   OH230942   1.581   6.066   4.136 -0.0232  0.2719 -0.3019
 3176TIP3    H130943   1.662   6.021   4.159 -0.4486 -2.0067 -2.7248
 3176TIP3    H230944   1.516   6.033   4.198  0.8219  2.3494  1.8599
 3177TIP3   OH230945   5.686   2.292  15.382 -0.3422  0.2651  0.2486
 3177TIP3    H130946   5.698   2.198  15.371  0.7894  0.1590  1.9795
 3177TIP3    H230947   5.622   2.316  15.315 -1.2759 -1.8642  0.3077
 3178TIP3   OH230948   5.185   4.991  14.748 -0.0988  0.1599 -0.6611
 3178TIP3    H130949   5.171   5.061  14.685  0.7255  0.5618 -0.4169
 3178TIP3    H230950   5.221   4.919  14.697 -1.9012 -0.4694 -1.0900
 3179TIP3   OH230951   1.096   5.296   3.660  0.5174  0.8366  0.1477
 3179TIP3    H130952   1.138   5.233   3.719  1.4583  1.2840 -0.0249
 3179TIP3    H230953   1.113   5.381   3.700 -1.2415  0.9869  0.6865
 3180TIP3   OH230954   4.991   1.669   5.737 -0.2592  0.4794 -0.2672
 3180TIP3    H130955   5.021   1.682   5.647 -0.9248 -1.5093 -0.8408
 3180TIP3    H230956   5.025   1.583   5.761 -0.6850  0.6785  1.1405
 3181TIP3   OH230957   2.420   4.315  12.337 -0.1493 -0.3427 -0.0128
 3181TIP3    H130958   2.342   4.290  12.289  0.8067 -2.9325 -0.3850
 3181TIP3    H230959   2.388   4.340  12.424 -1.7275  2.8337 -1.3125
 3182TIP3   OH230960   3.164   4.227  17.078  0.4697  0.1873 -0.4193
 3182TIP3    H130961   3.231   4.294  17.066  0.4927  0.4825  1.0920
 3182TIP3    H230962   3.157   4.218  17.173 -0.7245 -0.7583 -0.5773
 3183TIP3   OH230963   2.599   3.717  15.187 -0.2110 -0.1790  0.0678
 3183TIP3    H130964   2.574   3.696  15.097  0.0369 -0.3342  0.0321
 3183TIP3    H230965   2.543   3.791  15.212 -0.1499 -0.0157 -0.2792
 3184TIP3   OH230966   2.469   5.920   3.715  0.4707 -0.1571 -0.0522
 3184TIP3    H130967   2.533   5.861   3.754 -0.4566 -0.2480  1.4175
 3184TIP3    H230968   2.448   5.880   3.631  2.6619  0.1333 -0.8089
 3185TIP3   OH230969   2.216   3.256   2.471 -0.2526  0.0028 -0.3403
 3185TIP3    H130970   2.215   3.172   2.516 -0.7800 -0.1656 -0.6473
 3185TIP3    H230971   2.283   3.307   2.516 -1.0859  0.0130  0.9552
 3186TIP3   OH230972   3.733   4.850  10.674 -0.3635 -0.4152 -0.0868
 3186TIP3    H130973   3.701   4.787  10.739 -1.8159  0.6815  0.3153
 3186TIP3    H230974   3.653   4.885  10.634  0.4363  0.6396 -0.8043
 3187TIP3   OH230975   2.417   2.980   6.120  0.4239  0.0519  1.1483
 3187TIP3    H130976   2.442   2.889   6.134 -0.7254 -0.3723  0.5386
 3187TIP3    H230977   2.412   2.990   6.025 -1.4711  0.1431  1.2094
 3188TIP3   OH230978   2.652   0.095   1.236  0.0368  0.1701 -0.2098
 3188TIP3    H130979   2.701   0.144   1.171  0.4144 -1.3748 -1.1390
 3188TIP3    H230980   2.712   0.027   1.267 -0.9014 -0.6193 -0.0343
 3189TIP3   OH230981   3.835   1.092  13.486  0.1420  0.2186  0.5964
 3189TIP3    H130982   3.796   1.027  13.545  1.7224 -0.3400  1.0583
 3189TIP3    H230983   3.906   1.046  13.442 -0.0199  1.0715 -0.6161
 3190TIP3   OH230984   0.509   3.918   0.318 -0.1146  0.2689 -0.0222
 3190TIP3    H130985   0.547   3.849   0.372 -0.5046  1.4497  1.8401
 3190TIP3    H230986   0.584   3.964   0.281  0.1832  0.0241  0.2683
 3191TIP3   OH230987   4.171   4.155  11.265 -0.6194  0.4841 -0.3037
 3191TIP3    H130988   4.149   4.217  11.335  1.6955  0.5472  0.4478
 3191TIP3    H230989   4.125   4.075  11.288  1.5401 -0.1089  2.4170
 3192TIP3   OH230990   3.968   3.477  11.364 -0.6059 -0.7059  0.2680
 3192TIP3    H130991   3.977   3.438  11.451 -0.1325 -1.5637 -0.1495
 3192TIP3    H230992   3.956   3.402  11.306 -2.6920 -0.0730 -0.2136
 3193TIP3   OH230993   5.132   2.027  17.282  0.3496 -0.2145  0.6371
 3193TIP3    H130994   5.108   1.941  17.316  1.6201 -0.3925  1.1686
 3193TIP3    H230995   5.182   2.008  17.203  0.9347  0.0021  0.9446
 3194TIP3   OH230996   3.167   3.749   1.715  0.5534  0.1502 -1.1244
 3194TIP3    H130997   3.250   3.726   1.673  0.8135  0.6863 -0.9110
 3194TIP3    H230998   3.165   3.696   1.795  0.8134  0.3159 -1.0039
 3195TIP3   OH230999   1.911   1.438   5.194 -0.5176  0.5965  0.6064
 3195TIP3    H131000   1.829   1.389   5.184  0.1732 -0.3070 -0.9997
 3195TIP3    H231001   1.960   1.388   5.259 -0.4536  0.0008  0.1157
 3196TIP3   OH231002   2.565   6.012   4.993 -0.8775  0.1094  0.7267
 3196TIP3    H131003   2.515   6.024   5.073 -2.0780 -0.1920  0.0417
 3196TIP3    H231004   2.529   6.076   4.931  0.4721  0.7949  0.6043
 3197TIP3   OH231005   4.837   4.254   1.957  0.0329 -0.7481  0.4631
 3197TIP3    H131006   4.751   4.246   1.998  0.0703 -2.0136  0.3334
 3197TIP3    H231007   4.821   4.239   1.864  0.0342  1.5705  0.0431
 3198TIP3   OH231008   2.725   1.639   2.448  0.5214  0.0557  0.4490
 3198TIP3    H131009   2.788   1.685   2.505 -0.1052  0.4648  0.8329
 3198TIP3    H231010   2.641   1.649   2.494  0.2539 -0.8574  0.1638
 3199TIP3   OH231011   2.253   1.693   1.095 -0.4657 -1.0006 -0.1272
 3199TIP3    H131012   2.290   1.605   1.105  2.1583 -0.1023 -0.8293
 3199TIP3    H231013   2.305   1.747   1.154 -1.6863  0.1759 -0.0959
 3200TIP3   OH231014   4.003   0.199   4.526 -0.2131 -0.0663  0.1535
 3200TIP3    H131015   4.053   0.146   4.465 -2.4312 -1.8245 -0.2666
 3200TIP3    H231016   3.940   0.245   4.472 -1.1080 -0.3419  0.9357
 3201TIP3   OH231017   3.378   2.025   5.222  0.2296  0.1065  0.1271
 3201TIP3    H131018   3.297   2.054   5.265 -0.1973 -1.1363  0.1967
 3201TIP3    H231019   3.429   2.105   5.211 -1.3825  1.0788 -0.7426
 3202TIP3   OH231020   0.062   4.388   0.219  0.3533 -0.0149  0.5123
 3202TIP3    H131021   0.068   4.366   0.125  0.2681  0.2639  0.4432
 3202TIP3    H231022   0.076   4.304   0.263  2.7029  0.1943  0.3181
 3203TIP3   OH231023   6.000   1.997   3.977  0.2482  0.0181  0.1133
 3203TIP3    H131024   6.032   1.954   4.056 -3.0588  0.4180  1.8444
 3203TIP3    H231025   5.980   1.926   3.916  1.4964 -0.3882  0.1619
 3204TIP3   OH231026   1.841   4.166   5.122  1.1011 -0.4402  0.2817
 3204TIP3    H131027   1.825   4.156   5.216  1.8553  0.9955  0.5797
 3204TIP3    H231028   1.793   4.093   5.083  0.7295 -1.0405  1.7678
 3205TIP3   OH231029   1.540   5.771  13.964  0.1363 -0.2969 -0.0968
 3205TIP3    H131030   1.518   5.855  14.004  0.0064  0.4113 -1.5819
 3205TIP3    H231031   1.617   5.741  14.011 -0.3742  0.1905  1.0758
 3206TIP3   OH231032   6.372   1.530  11.916 -0.1654 -0.0559 -0.1370
 3206TIP3    H131033   6.410   1.616  11.900 -0.1625 -0.1643 -0.7326
 3206TIP3    H231034   6.431   1.489  11.979 -0.7296  0.7615  0.9385
 3207TIP3   OH231035   6.348   6.440   0.571 -0.1984 -0.1367  0.2401
 3207TIP3    H131036   6.294   6.370   0.535 -0.6400 -0.6714  1.8790
 3207TIP3    H231037   6.294   6.519   0.560 -0.2975 -0.2786 -0.3105
 3208TIP3   OH231038   3.374   5.663   3.664  0.0972  0.3085 -0.1222
 3208TIP3    H131039   3.460   5.646   3.627  0.7977  1.8677  0.6846
 3208TIP3    H231040   3.323   5.584   3.645  1.4045 -0.2483 -1.4475
 3209TIP3   OH231041   2.988   0.321   0.385 -0.5164 -0.1489 -0.8187
 3209TIP3    H131042   2.925   0.378   0.428 -0.1314  0.3119 -0.8506
 3209TIP3    H231043   2.996   0.245   0.443  1.4409  1.3068  0.9885
 3210TIP3   OH231044   6.007   1.676   5.260 -0.4926 -0.2766  0.2123
 3210TIP3    H131045   5.923   1.717   5.281 -0.8402 -0.6338 -0.4337
 3210TIP3    H231046   5.993   1.583   5.275  0.0432 -0.2613  0.8805
 3211TIP3   OH231047   4.989   2.738   1.086 -0.3150  0.3323 -0.2389
 3211TIP3    H131048   5.082   2.758   1.092 -0.6790  1.7608  1.5724
 3211TIP3    H231049   4.947   2.800   1.146 -2.5378  0.3581 -1.7050
 3212TIP3   OH231050   6.078   1.625   2.846  0.2380  0.0058 -0.0661
 3212TIP3    H131051   5.983   1.621   2.854  0.3426 -0.6833  1.0985
 3212TIP3    H231052   6.095   1.706   2.798 -0.8733  0.9547  1.0727
 3213TIP3   OH231053   2.704   5.620  13.763 -0.1980  0.4419  0.4205
 3213TIP3    H131054   2.664   5.647  13.680 -0.5187 -3.8778 -1.0744
 3213TIP3    H231055   2.635   5.573  13.809  0.8868  0.0059  1.6826
 3214TIP3   OH231056   2.076   6.547  17.436  0.2995 -0.1131 -0.1257
 3214TIP3    H131057   2.077   6.562  17.530  1.0306  0.4913 -0.2207
 3214TIP3    H231058   2.168   6.545  17.411  0.1068  0.1224 -0.8879
 3215TIP3   OH231059   5.040   2.922  15.429  0.1675 -0.0799 -0.7670
 3215TIP3    H131060   4.991   2.972  15.494 -0.1549 -0.2261 -0.8991
 3215TIP3    H231061   5.056   2.837  15.470  0.3258 -0.0280 -0.7189
 3216TIP3   OH231062   1.093   0.752  14.916 -0.3740 -0.1215 -0.5525
 3216TIP3    H131063   1.071   0.810  14.990 -1.1141 -1.5072  0.3504
 3216TIP3    H231064   1.187   0.764  14.904 -0.5850  1.6474 -0.7389
 3217TIP3   OH231065   3.812   5.346  13.704 -0.2377  0.3287  0.3931
 3217TIP3    H131066   3.762   5.269  13.732 -1.6599 -0.5840 -3.9987
 3217TIP3    H231067   3.769   5.419  13.748 -2.0077 -0.9472  0.9154
 3218TIP3   OH231068   5.687   3.935  13.102 -0.0462 -0.4696 -0.0577
 3218TIP3    H131069   5.698   3.920  13.008  0.9712  0.0627 -0.0376
 3218TIP3    H231070   5.592   3.940  13.115 -0.1831 -0.1596 -1.1179
 3219TIP3   OH231071   4.291   2.722   0.177  0.1757 -0.3434  0.2945
 3219TIP3    H131072   4.372   2.758   0.212 -0.6426  1.9962 -0.0031
 3219TIP3    H231073   4.316   2.637   0.141  2.4665  0.2497  0.3091
 3220TIP3   OH231074   0.161   2.451   2.021 -0.1503  0.2209 -0.2181
 3220TIP3    H131075   0.124   2.364   2.004 -1.7888  1.1656 -1.7858
 3220TIP3    H231076   0.226   2.436   2.090  0.0600 -2.3410 -0.8703
 3221TIP3   OH231077   1.637   5.031   2.693  0.1337  0.1562 -0.3030
 3221TIP3    H131078   1.668   5.067   2.610  1.6721  0.0865  0.2064
 3221TIP3    H231079   1.613   4.941   2.673  0.1423  0.2558 -0.7605
 3222TIP3   OH231080   1.707   5.979   2.183 -0.4813 -0.4615 -0.1094
 3222TIP3    H131081   1.683   6.063   2.144 -3.8421 -1.5271 -0.6763
 3222TIP3    H231082   1.639   5.963   2.248 -0.1819 -2.9200 -0.3192
 3223TIP3   OH231083   0.321   1.846   2.154  0.1251  0.3194 -0.2474
 3223TIP3    H131084   0.305   1.765   2.202  0.5040  0.4000  0.0230
 3223TIP3    H231085   0.253   1.906   2.185 -0.8270 -0.2171 -1.2483
 3224TIP3   OH231086   2.016   3.015   2.810  0.3572  0.4800 -0.4283
 3224TIP3    H131087   2.011   3.073   2.886 -0.8207 -0.1076 -0.0441
 3224TIP3    H231088   2.095   2.963   2.825  0.8631  1.2703 -0.2774
 3225TIP3   OH231089   6.229   5.381  14.744 -1.1263 -0.3713  0.8067
 3225TIP3    H131090   6.231   5.460  14.690 -1.1308 -0.1441  1.1374
 3225TIP3    H231091   6.321   5.358  14.758 -1.0720  0.5378  2.1016
 3226TIP3   OH231092   1.496   4.239   0.747  0.2599 -0.0754  0.2269
 3226TIP3    H131093   1.527   4.199   0.665 -1.5196  2.2182 -1.7197
 3226TIP3    H231094   1.418   4.188   0.770 -1.4333  1.4705 -1.7022
 3227TIP3   OH231095   5.109   1.411   4.931 -0.1660  0.2900  0.2046
 3227TIP3    H131096   5.058   1.492   4.927 -2.5243 -1.1471 -0.6831
 3227TIP3    H231097   5.052   1.344   4.894  1.6066 -1.8630  1.0992
 3228TIP3   OH231098   0.549   6.239  12.234 -0.3416  0.2688  0.5229
 3228TIP3    H131099   0.643   6.246  12.254 -0.1394  1.1576 -0.6336
 3228TIP3    H231100   0.505   6.259  12.316  0.4661  1.9087  0.5928
 3229TIP3   OH231101   0.995   2.007  11.262  0.3711  0.0867 -0.4826
 3229TIP3    H131102   0.967   2.035  11.175  0.8954  0.5245 -0.5179
 3229TIP3    H231103   1.091   2.007  11.258  0.3997 -0.2476 -0.0166
 3230TIP3   OH231104   1.345   1.081  12.320  0.0175 -0.2225  0.6516
 3230TIP3    H131105   1.344   1.066  12.226  0.0321 -0.7033  0.7255
 3230TIP3    H231106   1.309   1.000  12.357  1.5337 -0.7094  1.1443
 3231TIP3   OH231107   2.210   0.868  13.607 -0.3998  0.5140  0.5104
 3231TIP3    H131108   2.146   0.826  13.665  0.0354 -0.0391  0.6068
 3231TIP3    H231109   2.174   0.856  13.519 -1.3959  1.9498  0.7015
 3232TIP3   OH231110   0.983   0.526  12.542  0.2695 -0.3138  0.5451
 3232TIP3    H131111   0.928   0.460  12.500  1.2786 -0.9810  0.2549
 3232TIP3    H231112   0.931   0.556  12.617 -1.5293  0.8539 -1.0830
 3233TIP3   OH231113   1.661   3.136   5.585  0.2759  0.1258 -0.1141
 3233TIP3    H131114   1.678   3.207   5.646  2.5972 -0.2052 -0.2661
 3233TIP3    H231115   1.667   3.177   5.498 -1.5459  0.3103 -0.1888
 3234TIP3   OH231116   0.579   2.609  13.259 -0.1522  0.0769  0.0854
 3234TIP3    H131117   0.662   2.586  13.300 -0.3651  0.5069  0.7635
 3234TIP3    H231118   0.512   2.574  13.317 -0.4680  1.4933  0.6382
 3235TIP3   OH231119   2.677   1.452  15.524  0.0340 -0.1959  0.4455
 3235TIP3    H131120   2.621   1.484  15.595 -0.3372  1.8861 -0.7116
 3235TIP3    H231121   2.629   1.472  15.444  1.5073 -0.2447 -0.4941
 3236TIP3   OH231122   6.480   1.275   3.716 -0.4169 -0.1977  0.2839
 3236TIP3    H131123   6.424   1.213   3.762 -0.4854  0.2600  0.8282
 3236TIP3    H231124   6.420   1.344   3.687  0.1457  1.6814  3.1644
 3237TIP3   OH231125   0.982   1.915  15.996 -0.0390  0.4469  0.0602
 3237TIP3    H131126   0.965   1.939  15.905  1.0394  1.0931  0.0054
 3237TIP3    H231127   1.063   1.863  15.992  0.9707  1.8831  0.7892
 3238TIP3   OH231128   2.110   0.697  16.166 -0.8078  0.1025 -0.0969
 3238TIP3    H131129   2.195   0.743  16.169 -0.6881 -0.0630 -0.7319
 3238TIP3    H231130   2.107   0.660  16.078 -1.1702 -0.6129  0.2151
 3239TIP3   OH231131   6.707   2.255   1.723  0.0511  0.2618 -0.2173
 3239TIP3    H131132   6.707   2.264   1.628 -0.1195 -1.0981 -0.3734
 3239TIP3    H231133   6.699   2.160   1.738  0.5174  0.4100  1.1412
 3240TIP3   OH231134   4.659   5.106   1.100 -0.0181  0.2730  0.2246
 3240TIP3    H131135   4.663   5.047   1.025 -0.2591  0.0050  0.4230
 3240TIP3    H231136   4.573   5.092   1.138 -0.2045  0.9827  0.0900
 3241TIP3   OH231137   2.146   3.610   5.256 -0.3161  0.4951 -0.5955
 3241TIP3    H131138   2.068   3.573   5.298 -0.4380 -0.2459 -1.4645
 3241TIP3    H231139   2.129   3.704   5.253 -0.4221  0.5501  0.7554
 3242TIP3   OH231140   0.910   3.969  13.542  0.0543  0.0861  0.0650
 3242TIP3    H131141   0.957   4.049  13.518  1.1955 -0.7213 -0.5103
 3242TIP3    H231142   0.829   3.999  13.582  0.7923  1.5310  0.5217
 3243TIP3   OH231143   0.660   2.190   2.414  0.4979 -0.5408  0.6802
 3243TIP3    H131144   0.608   2.152   2.343  0.7033 -0.9199  0.7264
 3243TIP3    H231145   0.719   2.251   2.370  0.4346 -0.5652  0.5593
 3244TIP3   OH231146   6.750   1.575  13.910  0.2934 -0.0119  0.0684
 3244TIP3    H131147   6.840   1.591  13.938 -0.0370 -0.8113  1.6993
 3244TIP3    H231148   6.740   1.627  13.830  1.9089  0.8079  0.3644
 3245TIP3   OH231149   3.433   1.980  13.470 -0.1350 -0.3427 -0.0072
 3245TIP3    H131150   3.423   1.941  13.383 -3.1770  2.2349 -0.9993
 3245TIP3    H231151   3.495   2.051  13.458  0.6645 -0.9585  0.3602
 3246TIP3   OH231152   1.404   1.985  16.233  0.3861 -0.2293  0.1309
 3246TIP3    H131153   1.418   1.922  16.162  0.4068  0.7437 -0.7533
 3246TIP3    H231154   1.346   1.939  16.294  1.0890 -1.4116 -0.0517
 3247TIP3   OH231155   2.399   5.511   3.895  0.7457 -0.3654 -0.0953
 3247TIP3    H131156   2.474   5.570   3.884  1.1417 -0.4068  1.9310
 3247TIP3    H231157   2.328   5.568   3.923 -0.5205 -0.0857 -3.4627
 3248TIP3   OH231158   5.589   3.781  15.066 -0.2027 -0.7521 -0.0244
 3248TIP3    H131159   5.569   3.702  15.116  0.2486 -0.8110  0.0651
 3248TIP3    H231160   5.659   3.754  15.006  1.0347 -0.0413  1.0552
 3249TIP3   OH231161   0.044   6.739   1.518  0.1212 -0.2084 -0.0816
 3249TIP3    H131162   0.024   6.798   1.446  0.1091 -1.0496 -0.7900
 3249TIP3    H231163   0.135   6.758   1.540 -0.4362  1.3972  1.0040
 3250TIP3   OH231164   0.673   2.456   0.933  0.4279  0.8403 -0.4980
 3250TIP3    H131165   0.600   2.518   0.935 -1.1620 -0.9439  1.8774
 3250TIP3    H231166   0.701   2.448   1.024  1.1007 -1.2740 -0.8311
 3251TIP3   OH231167   4.445   4.447  11.509  0.0282  0.3481 -0.2306
 3251TIP3    H131168   4.464   4.363  11.467  0.8454 -0.5414  1.7801
 3251TIP3    H231169   4.405   4.500  11.440 -0.2892 -1.5984 -1.6308
 3252TIP3   OH231170   3.524   1.592   5.054 -0.3720  0.3050 -0.4806
 3252TIP3    H131171   3.472   1.512   5.052  2.2562 -1.5843  0.2286
 3252TIP3    H231172   3.554   1.603   4.963  0.5305 -0.4789 -0.2947
 3253TIP3   OH231173   1.111   6.097   0.408  0.2646 -0.6652 -0.2254
 3253TIP3    H131174   1.042   6.108   0.343 -0.2905 -1.5052  0.1970
 3253TIP3    H231175   1.111   6.003   0.426  0.6080 -0.4810  0.7741
 3254TIP3   OH231176   0.980   4.824  14.630 -0.4814 -0.5938 -0.7687
 3254TIP3    H131177   0.949   4.779  14.709 -0.2540 -1.7707 -1.3326
 3254TIP3    H231178   1.075   4.830  14.641 -0.4241 -0.9815 -1.0740
 3255TIP3   OH231179   4.319   4.557  16.466  0.6726  0.2240 -0.4095
 3255TIP3    H131180   4.253   4.625  16.452 -0.0684 -0.2375  0.6799
 3255TIP3    H231181   4.319   4.543  16.561  1.7850 -0.3457 -0.4726
 3256TIP3   OH231182   4.182   5.905   3.170  0.6915 -0.1504  0.4081
 3256TIP3    H131183   4.196   5.946   3.084  1.6983  0.9349  1.0508
 3256TIP3    H231184   4.207   5.973   3.233 -1.3469 -0.4465  1.6060
 3257TIP3   OH231185   3.159   1.650  12.277 -0.6869 -0.1942 -0.0208
 3257TIP3    H131186   3.134   1.742  12.270 -1.3267 -0.3900 -0.3944
 3257TIP3    H231187   3.168   1.621  12.186  3.9330  0.6258 -0.0459
 3258TIP3   OH231188   3.967   2.099  15.739 -0.1021 -0.1394 -0.2410
 3258TIP3    H131189   4.020   2.022  15.716 -2.0413 -0.9710 -2.3742
 3258TIP3    H231190   4.031   2.166  15.763  1.8549 -1.3376 -1.7722
 3259TIP3   OH231191   2.718   5.206   1.917 -0.7544  0.0569  0.0704
 3259TIP3    H131192   2.756   5.125   1.951  2.2851  1.5357  0.4766
 3259TIP3    H231193   2.706   5.189   1.823  2.2499 -0.1275 -0.3682
 3260TIP3   OH231194   3.771   3.494   2.585  0.1191  0.6725 -0.2394
 3260TIP3    H131195   3.853   3.446   2.585  0.8358  1.8354  0.3067
 3260TIP3    H231196   3.795   3.582   2.615 -1.7659  0.2482  3.0493
 3261TIP3   OH231197   0.496   3.554   2.699  0.2125  0.5140  0.3136
 3261TIP3    H131198   0.542   3.470   2.699 -0.7719 -0.0919  2.3140
 3261TIP3    H231199   0.429   3.544   2.631  0.3174 -0.2241  0.3095
 3262TIP3   OH231200   2.808   2.425   3.970 -0.6189 -0.1714  0.4223
 3262TIP3    H131201   2.786   2.480   3.894  1.0067  1.6362  1.1762
 3262TIP3    H231202   2.739   2.446   4.033 -0.0595  1.0220  0.6764
 3263TIP3   OH231203   0.736   3.450   4.411  0.1903  0.0539 -0.1301
 3263TIP3    H131204   0.737   3.373   4.355  0.2061 -1.4570  1.8656
 3263TIP3    H231205   0.811   3.440   4.470 -1.5206 -0.0511  2.1915
 3264TIP3   OH231206   2.931   5.145  16.089  0.1196  0.1607  0.6045
 3264TIP3    H131207   2.988   5.082  16.044 -0.7251 -2.9466  3.4998
 3264TIP3    H231208   2.855   5.153  16.031  1.0582  0.0641 -0.7103
 3265TIP3   OH231209   5.018   4.939   5.010  0.2945 -0.2450 -0.2179
 3265TIP3    H131210   5.025   4.885   4.931 -0.2422 -1.9651  0.8541
 3265TIP3    H231211   4.962   5.012   4.984 -0.3060 -1.0641 -1.2933
 3266TIP3   OH231212   1.479   4.128  15.777  0.0865  0.1966  1.0514
 3266TIP3    H131213   1.462   4.053  15.720  1.1220  1.1818 -0.6590
 3266TIP3    H231214   1.503   4.089  15.861 -2.2892 -1.2985  1.1253
 3267TIP3   OH231215   0.856   2.986  12.004 -0.0993 -0.2432  0.0871
 3267TIP3    H131216   0.917   3.049  12.043 -1.5949  2.2742 -1.3180
 3267TIP3    H231217   0.908   2.937  11.941  0.7045  1.2155 -0.4365
 3268TIP3   OH231218   0.888   6.734   4.185 -0.0952 -0.4383  0.0375
 3268TIP3    H131219   0.920   6.666   4.127  0.2724  0.6199 -1.0487
 3268TIP3    H231220   0.964   6.761   4.236  0.1613  0.2102 -0.6482
 3269TIP3   OH231221   4.703   4.930  15.477  0.4458 -0.2079  0.8949
 3269TIP3    H131222   4.753   4.859  15.517  1.0757  1.4726  3.3130
 3269TIP3    H231223   4.699   4.998  15.544 -0.2030  2.0407 -1.2471
 3270TIP3   OH231224   0.929   0.194  13.165  0.0536  0.2159  0.6226
 3270TIP3    H131225   0.903   0.250  13.239  1.0400 -0.2197  1.3250
 3270TIP3    H231226   1.012   0.156  13.192  0.7560  0.5364 -1.0001
 3271TIP3   OH231227   1.013   2.289   3.139 -0.3647  0.3577  0.6094
 3271TIP3    H131228   1.077   2.302   3.209  0.0083 -0.1796  0.3752
 3271TIP3    H231229   0.939   2.247   3.182 -1.2723  2.4374  1.2200
 3272TIP3   OH231230   4.890   5.274   2.744 -0.0587  0.1566 -0.0206
 3272TIP3    H131231   4.958   5.341   2.734  0.9591 -0.9050 -0.3013
 3272TIP3    H231232   4.931   5.204   2.794 -1.1221 -0.2667  0.2924
 3273TIP3   OH231233   2.695   4.746  13.711 -0.0450 -0.3223  0.9828
 3273TIP3    H131234   2.663   4.814  13.652  0.6285  1.2883  2.3803
 3273TIP3    H231235   2.630   4.676  13.704 -1.4201  0.9518  0.3836
 3274TIP3   OH231236   3.031   6.573   5.500 -0.0822 -0.3007 -0.3230
 3274TIP3    H131237   3.012   6.483   5.474  0.8279 -0.5906 -0.0363
 3274TIP3    H231238   3.126   6.573   5.518 -0.3269  0.3593  1.1047
 3275TIP3   OH231239   5.948   2.742  16.581 -0.0362  0.6427 -0.8214
 3275TIP3    H131240   5.877   2.786  16.534  0.5598 -0.0886 -2.4779
 3275TIP3    H231241   5.944   2.778  16.670 -2.0232  1.1200 -1.0675
 3276TIP3   OH231242   6.319   3.727  15.261 -0.1121  0.3363 -0.2538
 3276TIP3    H131243   6.366   3.779  15.327  0.4093 -1.0342  0.4979
 3276TIP3    H231244   6.244   3.781  15.238  1.1106  2.0102 -0.5133
 3277TIP3   OH231245   2.197   4.186  12.222 -0.1757  1.2322 -0.3742
 3277TIP3    H131246   2.243   4.150  12.147  2.2987  2.6056  0.3752
 3277TIP3    H231247   2.116   4.222  12.186 -1.2984 -2.1456 -1.5901
 3278TIP3   OH231248   2.517   0.224  13.060 -0.0298  0.5806  0.2749
 3278TIP3    H131249   2.509   0.134  13.091  2.1536  0.4398  0.5759
 3278TIP3    H231250   2.440   0.238  13.005  0.0982 -1.8187 -0.6120
 3279TIP3   OH231251   3.622   6.185  13.172  0.3402 -0.1402 -0.5306
 3279TIP3    H131252   3.620   6.174  13.077  0.3372 -2.1876 -0.3547
 3279TIP3    H231253   3.688   6.122  13.201  1.4198  1.5102  0.7307
 3280TIP3   OH231254   4.245   5.720   3.369 -0.0848  0.1290 -0.2526
 3280TIP3    H131255   4.208   5.781   3.305  0.2289 -0.0481 -0.6041
 3280TIP3    H231256   4.242   5.768   3.452 -0.0885  0.5235 -0.4775
 3281TIP3   OH231257   3.233   0.818   0.812 -0.5720 -0.0521  0.2598
 3281TIP3    H131258   3.285   0.891   0.845 -0.4823 -0.0097  0.0237
 3281TIP3    H231259   3.294   0.768   0.759 -0.6796 -0.2037  0.2804
 3282TIP3   OH231260   2.086   3.182  14.164  0.3415 -0.2393  0.3015
 3282TIP3    H131261   2.031   3.226  14.099 -3.4213 -1.8653  2.0653
 3282TIP3    H231262   2.102   3.095  14.128 -0.3687 -0.5864  0.7924
 3283TIP3   OH231263   6.468   6.403  14.500 -0.5151  0.7695 -0.2633
 3283TIP3    H131264   6.393   6.444  14.544 -0.9759  0.0593 -0.3644
 3283TIP3    H231265   6.467   6.439  14.412 -1.0745  0.3579 -0.4317
 3284TIP3   OH231266   6.389   4.903  15.176 -0.4081  0.0865  0.5487
 3284TIP3    H131267   6.314   4.847  15.157 -1.2263  0.5991  2.0411
 3284TIP3    H231268   6.444   4.898  15.098 -1.7500 -0.6963 -0.3888
 3285TIP3   OH231269   2.549   5.144   4.930  0.2603  0.3979  0.2010
 3285TIP3    H131270   2.491   5.077   4.966  0.1030  0.7774  0.6617
 3285TIP3    H231271   2.545   5.130   4.835 -0.2968  0.1850  0.2487
 3286TIP3   OH231272   6.337   6.275   1.651  0.0319  0.2647  0.0452
 3286TIP3    H131273   6.242   6.286   1.656  0.0798  0.8775 -0.3604
 3286TIP3    H231274   6.363   6.325   1.574  0.8001  0.8909  0.6950
 3287TIP3   OH231275   0.429   5.083   2.321  0.7119  0.0202 -0.9541
 3287TIP3    H131276   0.384   4.999   2.315  1.2663 -0.2093 -2.1347
 3287TIP3    H231277   0.405   5.130   2.241 -2.1763  2.3529  1.0666
 3288TIP3   OH231278   1.668   4.589  11.994  0.1093  0.4499 -0.2203
 3288TIP3    H131279   1.638   4.568  11.905  1.2509 -0.3980 -0.4326
 3288TIP3    H231280   1.635   4.517  12.048 -0.4111  0.8596  0.0168
 3289TIP3   OH231281   0.205   6.527  17.405 -0.7902 -0.0372 -0.3423
 3289TIP3    H131282   0.225   6.464  17.474 -1.6866  0.0577  0.0141
 3289TIP3    H231283   0.260   6.500  17.331  1.9371  1.2128  1.0947
 3290TIP3   OH231284   1.079   5.148  12.923  0.2571  0.8891  0.2072
 3290TIP3    H131285   1.167   5.176  12.950  1.1935 -0.7925 -0.8856
 3290TIP3    H231286   1.094   5.101  12.840 -1.5347 -0.3121  0.5163
 3291TIP3   OH231287   5.852   5.743  12.356  0.2912 -0.3529 -0.2118
 3291TIP3    H131288   5.796   5.716  12.283  1.1645 -0.5682 -0.8273
 3291TIP3    H231289   5.913   5.806  12.317  0.1502  0.2771  0.5591
 3292TIP3   OH231290   5.204   3.932   3.373 -0.4084  0.0971 -0.4809
 3292TIP3    H131291   5.177   4.017   3.339  2.1729  0.6110 -1.4500
 3292TIP3    H231292   5.282   3.951   3.425 -1.9407 -1.2198  2.5823
 3293TIP3   OH231293   0.703   0.605  12.954  0.0223  0.3786  0.0159
 3293TIP3    H131294   0.754   0.526  12.970 -0.2003  0.0087 -1.0386
 3293TIP3    H231295   0.699   0.613  12.858  1.2301  2.4305  0.0624
 3294TIP3   OH231296   4.565   1.167  12.752  0.0212 -0.1389 -0.7043
 3294TIP3    H131297   4.629   1.166  12.824 -0.3972  1.9929 -0.2462
 3294TIP3    H231298   4.486   1.128  12.790 -0.0253  0.4660 -0.1589
 3295TIP3   OH231299   3.464   0.671   2.198  0.0093 -0.0185 -0.0520
 3295TIP3    H131300   3.552   0.681   2.163 -0.2054  1.3327 -0.2690
 3295TIP3    H231301   3.466   0.588   2.246  1.3506 -0.0755 -0.1758
 3296TIP3   OH231302   6.023   4.346   5.795 -0.0245 -0.2377 -0.3730
 3296TIP3    H131303   5.934   4.362   5.763  0.3778 -0.5998 -1.7373
 3296TIP3    H231304   6.013   4.334   5.890 -1.3273  0.4036 -0.4131
 3297TIP3   OH231305   6.033   4.347  17.248 -0.4214  0.1729  0.2263
 3297TIP3    H131306   6.067   4.291  17.318  1.3558 -0.7746 -1.2933
 3297TIP3    H231307   6.020   4.287  17.174  0.4011  1.5505 -1.0868
 3298TIP3   OH231308   3.271   4.207  12.565 -0.1451  0.2346  0.0906
 3298TIP3    H131309   3.304   4.262  12.494 -1.0903 -0.1250 -0.6527
 3298TIP3    H231310   3.261   4.268  12.639  1.3621  0.5012  0.1075
 3299TIP3   OH231311   1.562   3.902  13.183 -0.5673 -0.4921 -0.1967
 3299TIP3    H131312   1.637   3.843  13.175  1.1442  1.5437 -0.1131
 3299TIP3    H231313   1.528   3.909  13.094 -0.5023 -1.2292 -0.2873
 3300TIP3   OH231314   0.697   0.093   0.739  0.4054  0.2936 -0.2790
 3300TIP3    H131315   0.634   0.105   0.809  0.2633 -2.8318  0.2942
 3300TIP3    H231316   0.656   0.133   0.662  0.7828  4.2122  1.3648
 3301TIP3   OH231317   0.541   3.118   1.677 -0.1609  0.3782 -0.1598
 3301TIP3    H131318   0.515   3.207   1.651  1.7929  1.2275  0.5882
 3301TIP3    H231319   0.571   3.128   1.767  0.2878 -1.0197 -0.1400
 3302TIP3   OH231320   1.238   2.364  15.523 -0.9292  0.2163 -0.4189
 3302TIP3    H131321   1.298   2.365  15.597  1.1458  1.9299 -1.9820
 3302TIP3    H231322   1.228   2.272  15.501 -0.1875 -0.2072  0.9313
 3303TIP3   OH231323   1.521   1.336  16.593 -0.0706 -1.0702  0.5157
 3303TIP3    H131324   1.559   1.389  16.662  1.1449 -1.0534 -0.1468
 3303TIP3    H231325   1.596   1.295  16.550 -0.7240 -0.4256 -1.3347
 3304TIP3   OH231326   2.063   0.438  13.717  0.2573  0.9260  0.0725
 3304TIP3    H131327   2.153   0.432  13.748  0.3715  0.4444 -0.3358
 3304TIP3    H231328   2.069   0.485  13.633  0.2237  0.2064 -0.3380
 3305TIP3   OH231329   1.472   0.973   3.530  0.2448 -0.1742 -0.2512
 3305TIP3    H131330   1.410   0.911   3.492 -1.5617  1.2498  0.1928
 3305TIP3    H231331   1.427   1.057   3.524  1.1508  0.5689  2.2245
 3306TIP3   OH231332   6.246   6.711  16.667 -0.1987 -0.3019 -0.2492
 3306TIP3    H131333   6.265   6.618  16.665  2.5421  0.1811 -0.0484
 3306TIP3    H231334   6.304   6.749  16.602  0.5832  1.5300  1.4122
 3307TIP3   OH231335   5.525   6.591  13.415  0.7462  0.5396 -0.5289
 3307TIP3    H131336   5.495   6.501  13.432  1.1124  0.3899 -0.6561
 3307TIP3    H231337   5.519   6.635  13.500 -0.1978  0.6258 -0.6323
 3308TIP3   OH231338   1.665   5.824   4.804  0.2586  0.3237 -0.0902
 3308TIP3    H131339   1.634   5.869   4.882  3.3643  1.0541  0.8577
 3308TIP3    H231340   1.702   5.893   4.749  3.2964 -0.7131  0.4887
 3309TIP3   OH231341   5.276   3.387  13.460 -0.6265 -0.1936 -0.0675
 3309TIP3    H131342   5.259   3.481  13.468 -1.2837 -0.4191  1.4913
 3309TIP3    H231343   5.371   3.379  13.464 -0.5738  0.3947 -0.1074
 3310TIP3   OH231344   2.320   1.629   0.797 -0.3549  0.2691 -0.3643
 3310TIP3    H131345   2.235   1.654   0.835 -0.2214 -0.5681  0.5192
 3310TIP3    H231346   2.318   1.533   0.794  1.1993  0.1449  1.2173
 3311TIP3   OH231347   0.893   5.229   5.794  0.1049  1.0038  0.1979
 3311TIP3    H131348   0.885   5.200   5.885  0.0156 -0.5441 -0.2713
 3311TIP3    H231349   0.803   5.244   5.766 -0.1379 -1.3279 -0.4575
 3312TIP3   OH231350   3.050   1.302  15.721 -0.3301 -0.0214 -0.0355
 3312TIP3    H131351   3.083   1.214  15.741  0.0712  0.0212 -0.5024
 3312TIP3    H231352   2.956   1.295  15.736 -0.2377 -0.3851  0.4452
 3313TIP3   OH231353   6.138   1.718   2.435  0.7080  0.6538  0.3892
 3313TIP3    H131354   6.044   1.702   2.437  0.8791 -0.3531  0.8300
 3313TIP3    H231355   6.156   1.742   2.344  0.0362  0.8057  0.2924
 3314TIP3   OH231356   5.735   2.977   0.987  0.2406  0.6971 -0.2506
 3314TIP3    H131357   5.763   3.026   1.064 -0.1605  0.5559 -0.0134
 3314TIP3    H231358   5.685   2.903   1.022 -0.0758  0.7202 -0.6497
 3315TIP3   OH231359   5.814   6.532   1.871  0.2895 -0.5555  0.1279
 3315TIP3    H131360   5.740   6.492   1.919  1.0048 -1.9959  0.0991
 3315TIP3    H231361   5.839   6.607   1.924 -1.4013  0.1752 -0.0330
 3316TIP3   OH231362   5.447   2.894  14.293  0.0650 -0.1976  0.1421
 3316TIP3    H131363   5.394   2.840  14.352  0.0029 -0.7884 -0.4375
 3316TIP3    H231364   5.537   2.866  14.310  0.1857  0.6530  0.9733
 3317TIP3   OH231365   4.663   1.775   1.318 -0.0652 -0.2468 -0.3258
 3317TIP3    H131366   4.691   1.829   1.243  0.0894 -0.6055 -0.5261
 3317TIP3    H231367   4.682   1.685   1.292 -0.4912 -0.4157 -0.0579
 3318TIP3   OH231368   0.835   0.462   3.218 -0.6443  0.1172 -0.3186
 3318TIP3    H131369   0.872   0.377   3.242 -2.4570 -0.8156 -0.7092
 3318TIP3    H231370   0.837   0.512   3.300 -0.7317 -0.7565  0.2322
 3319TIP3   OH231371   5.953   4.103  11.772 -0.5749  0.1091 -0.3243
 3319TIP3    H131372   5.908   4.019  11.769  0.7442 -0.6081 -0.7523
 3319TIP3    H231373   5.888   4.164  11.807 -1.5937 -1.0533 -0.1374
 3320TIP3   OH231374   2.551   2.617   6.518  0.5354 -0.2752 -0.3487
 3320TIP3    H131375   2.553   2.674   6.442 -1.6566 -0.6698 -0.7625
 3320TIP3    H231376   2.558   2.528   6.483 -0.1809 -0.4443 -0.0940
 3321TIP3   OH231377   1.636   0.918   3.184 -0.2373 -0.2698 -0.4672
 3321TIP3    H131378   1.565   0.960   3.135  0.5341 -0.7573 -2.0487
 3321TIP3    H231379   1.714   0.968   3.161 -0.0559  0.4631  1.5075
 3322TIP3   OH231380   6.652   1.999  16.798  0.1078 -0.0704  0.6426
 3322TIP3    H131381   6.636   1.990  16.705  0.6248 -0.6736  0.5981
 3322TIP3    H231382   6.738   1.958  16.811 -1.5221 -3.4823  1.9450
 3323TIP3   OH231383   2.638   6.237  12.814 -0.1327  0.1070 -0.2784
 3323TIP3    H131384   2.563   6.285  12.850  0.4258  0.9015 -0.1380
 3323TIP3    H231385   2.616   6.145  12.827  0.2513  0.3221  2.6269
 3324TIP3   OH231386   5.474   5.913  11.925 -0.4072 -0.3778  0.0755
 3324TIP3    H131387   5.393   5.946  11.888 -1.1490 -1.9118  0.2693
 3324TIP3    H231388   5.447   5.855  11.996  0.9088  0.3691  1.2384
 3325TIP3   OH231389   2.848   1.610   3.465  0.2796 -0.2723 -0.5158
 3325TIP3    H131390   2.789   1.578   3.534  0.6841  0.7678  0.3432
 3325TIP3    H231391   2.898   1.680   3.508 -1.7030  2.7319 -2.6867
 3326TIP3   OH231392   0.643   5.566  16.808  0.3087  0.7195  0.0476
 3326TIP3    H131393   0.634   5.661  16.820  0.6414  0.7125  0.3478
 3326TIP3    H231394   0.737   5.550  16.810  0.2358  0.3300  0.3825
 3327TIP3   OH231395   1.195   0.805  13.976 -0.2335 -0.0417 -0.6734
 3327TIP3    H131396   1.243   0.856  14.040 -0.7165  0.4150 -0.6658
 3327TIP3    H231397   1.109   0.847  13.971 -0.3956 -0.4163 -1.1983
 3328TIP3   OH231398   5.718   0.916  14.608  0.6681  0.7459 -0.7420
 3328TIP3    H131399   5.627   0.919  14.579  0.2952 -0.8274  0.1908
 3328TIP3    H231400   5.717   0.867  14.690  2.2477  1.5046 -0.2131
 3329TIP3   OH231401   2.029   3.470   4.106  0.5544 -0.0706 -0.9851
 3329TIP3    H131402   1.995   3.383   4.085  0.2609  0.3229 -2.2610
 3329TIP3    H231403   2.015   3.480   4.200  0.0545 -1.1752 -0.9343
 3330TIP3   OH231404   2.949   1.167  14.880  0.2107 -0.1826  0.2401
 3330TIP3    H131405   2.945   1.222  14.958 -0.8806  0.7085 -0.4309
 3330TIP3    H231406   2.965   1.079  14.915 -2.0942 -0.1266  1.6354
 3331TIP3   OH231407   3.256   2.075  16.522  0.0276 -0.4962 -0.2752
 3331TIP3    H131408   3.328   2.031  16.567  0.0120  0.3160  0.5641
 3331TIP3    H231409   3.204   2.003  16.485 -0.4986 -1.2740  1.8218
 3332TIP3   OH231410   1.420   2.266   1.489 -0.1554  0.2188 -0.5161
 3332TIP3    H131411   1.345   2.297   1.436 -0.6765  0.8001  0.5239
 3332TIP3    H231412   1.486   2.334   1.477  0.2826 -0.3518 -1.5295
 3333TIP3   OH231413   5.421   0.164  12.517  0.6843 -0.5194 -0.3474
 3333TIP3    H131414   5.417   0.111  12.437 -0.4596 -0.7056 -0.1889
 3333TIP3    H231415   5.391   0.105  12.586  0.8602 -0.1057  0.0843
 3334TIP3   OH231416   5.504   2.577   1.471 -0.2881 -0.6402  0.1217
 3334TIP3    H131417   5.513   2.510   1.538 -0.6988 -0.9172 -0.1013
 3334TIP3    H231418   5.412   2.577   1.447 -0.5665  0.8868  1.0279
 3335TIP3   OH231419   1.565   0.086   3.801 -0.2451  0.3025 -0.5868
 3335TIP3    H131420   1.606   0.134   3.873 -0.3748 -1.4495  0.7410
 3335TIP3    H231421   1.611   0.001   3.801 -1.1546 -0.2098 -1.7074
 3336TIP3   OH231422   5.975   3.981  11.178  0.6619 -0.0143  0.0635
 3336TIP3    H131423   5.989   3.962  11.085  0.7398 -0.5151  0.1781
 3336TIP3    H231424   5.992   4.075  11.186  0.3666  0.0925 -0.4839
 3337TIP3   OH231425   2.574   5.329   4.526  0.0885  0.3666 -0.3218
 3337TIP3    H131426   2.484   5.347   4.500 -0.4255  0.3572  1.3922
 3337TIP3    H231427   2.589   5.239   4.498 -0.9280 -0.1271  0.6540
 3338TIP3   OH231428   4.990   1.267  16.126  0.3714  0.7143  0.4902
 3338TIP3    H131429   5.066   1.305  16.170 -0.0514  1.4684  0.5877
 3338TIP3    H231430   5.023   1.239  16.041  0.3520  2.8364 -0.2535
 3339TIP3   OH231431   1.409   4.897  12.601 -0.1705 -0.1117  0.0070
 3339TIP3    H131432   1.358   4.868  12.526 -1.2232 -2.2903  1.4253
 3339TIP3    H231433   1.344   4.925  12.665  0.6901  1.4611  0.2475
 3340TIP3   OH231434   5.358   4.425   6.678 -0.0438 -0.3388  0.2571
 3340TIP3    H131435   5.391   4.363   6.614 -1.0435  0.5869 -1.2034
 3340TIP3    H231436   5.266   4.400   6.691 -0.3432  0.5668 -0.0460
 3341TIP3   OH231437   5.039   4.266   2.533 -0.3831  0.1147 -0.2981
 3341TIP3    H131438   5.042   4.270   2.438  2.9291  1.0538 -0.2764
 3341TIP3    H231439   4.975   4.197   2.552  0.3435 -1.5706 -3.2549
 3342TIP3   OH231440   5.808   1.285   3.313 -0.0870  0.2760  0.0271
 3342TIP3    H131441   5.868   1.356   3.293 -0.3746  0.9569  1.4309
 3342TIP3    H231442   5.863   1.215   3.348  0.2086 -0.2827 -1.4509
 3343TIP3   OH231443   1.928   5.770  15.310  0.2578  0.3334 -0.2816
 3343TIP3    H131444   1.913   5.852  15.263 -1.0048 -0.1849 -0.8452
 3343TIP3    H231445   1.923   5.794  15.403  0.1615  0.9442 -0.4430
 3344TIP3   OH231446   1.749   6.690  17.288  0.3462 -0.4967  0.3229
 3344TIP3    H131447   1.802   6.716  17.213 -0.2532  1.5950  0.5601
 3344TIP3    H231448   1.761   6.761  17.351 -1.0906 -1.0018  1.2117
 3345TIP3   OH231449   3.189   2.397  16.840  0.1161 -0.0798  0.4158
 3345TIP3    H131450   3.217   2.440  16.759 -1.4604 -0.4753 -0.3712
 3345TIP3    H231451   3.120   2.453  16.874 -0.2501 -0.6829  0.6865
 3346TIP3   OH231452   6.678   4.289   3.093 -0.9851  0.0593 -0.2134
 3346TIP3    H131453   6.757   4.244   3.062 -0.3709  1.1560 -0.2947
 3346TIP3    H231454   6.710   4.355   3.155 -2.0359 -0.8744  1.4063
 3347TIP3   OH231455   1.428   4.447  14.169  0.1064  0.1432  0.2461
 3347TIP3    H131456   1.516   4.485  14.160  0.2158 -0.1949 -0.1343
 3347TIP3    H231457   1.381   4.477  14.092 -0.0179  0.0666  0.2912
 3348TIP3   OH231458   1.714   2.783  17.212  0.6587 -0.5765  0.0879
 3348TIP3    H131459   1.758   2.842  17.151  1.6163 -1.9108 -0.5604
 3348TIP3    H231460   1.627   2.769  17.174  1.3014 -1.5157 -1.0637
 3349TIP3   OH231461   1.241   3.751   5.353  0.2053  0.1328 -0.2048
 3349TIP3    H131462   1.146   3.744   5.360  0.3505 -1.7729  0.5876
 3349TIP3    H231463   1.271   3.764   5.443  0.7877 -1.3985 -0.1481
 3350TIP3   OH231464   0.026   0.118   3.049  0.7290  0.3586 -0.2037
 3350TIP3    H131465   0.048   0.205   3.082  0.6853 -0.4435  2.0825
 3350TIP3    H231466   0.052   0.058   3.119 -2.7976 -1.1763 -0.0379
 3351TIP3   OH231467   0.698   3.716  15.226 -0.0662  0.1304  0.3457
 3351TIP3    H131468   0.740   3.799  15.206  0.0240  0.4145  1.6440
 3351TIP3    H231469   0.648   3.733  15.306 -0.8357 -0.8049  0.0841
 3352TIP3   OH231470   0.149   2.815   4.788 -0.2896 -0.0543 -1.0751
 3352TIP3    H131471   0.095   2.746   4.827 -0.0811  0.2242 -0.2792
 3352TIP3    H231472   0.147   2.797   4.694  0.9347 -1.9894 -0.7722
 3353TIP3   OH231473   2.389   0.054   4.113 -0.5680 -0.5634  0.4148
 3353TIP3    H131474   2.482   0.032   4.106  0.1888  2.6260 -0.8525
 3353TIP3    H231475   2.385   0.116   4.186 -1.3751  0.6482 -0.6273
 3354TIP3   OH231476   0.245   3.241   3.300  0.1458 -0.1016 -0.3664
 3354TIP3    H131477   0.306   3.191   3.246 -0.7309 -1.8509  0.2257
 3354TIP3    H231478   0.296   3.264   3.378  0.1741 -1.2854 -0.0170
 3355TIP3   OH231479   3.127   5.681  12.740  0.5539  0.0892 -0.0066
 3355TIP3    H131480   3.118   5.751  12.805 -0.5707 -0.4798  0.4680
 3355TIP3    H231481   3.221   5.665  12.736  0.6564  0.1578  1.4779
 3356TIP3   OH231482   0.570   1.924   5.284 -0.9143 -0.3269  0.7990
 3356TIP3    H131483   0.532   1.885   5.362 -2.0760  0.8306  0.8656
 3356TIP3    H231484   0.649   1.969   5.315 -0.8997 -0.5928  1.1471
 3357TIP3   OH231485   6.507   2.171  11.101  0.3716  0.3187 -0.6410
 3357TIP3    H131486   6.444   2.132  11.040 -0.7236  2.3737 -0.8993
 3357TIP3    H231487   6.592   2.156  11.060 -0.3231  1.4657 -2.6464
 3358TIP3   OH231488   2.030   2.033  14.783  0.6037 -0.2482 -0.2996
 3358TIP3    H131489   1.955   1.981  14.810 -1.5412  3.2840  1.2580
 3358TIP3    H231490   2.086   2.036  14.860  1.7060 -1.6755 -0.9978
 3359TIP3   OH231491   3.520   2.442  17.144 -0.2457 -0.1482 -0.0394
 3359TIP3    H131492   3.437   2.406  17.175  0.5472 -0.8653  1.3222
 3359TIP3    H231493   3.507   2.452  17.049 -2.6395  1.8293  0.3739
 3360TIP3   OH231494   0.261   4.876   1.990 -0.7087  0.0191 -0.8743
 3360TIP3    H131495   0.265   4.875   2.086 -0.2413  0.6656 -0.8783
 3360TIP3    H231496   0.310   4.955   1.965  2.4300 -2.0342 -1.8009
 3361TIP3   OH231497   2.315   0.163  13.933 -0.3445  0.1730 -0.3518
 3361TIP3    H131498   2.386   0.099  13.922 -0.6845  0.0043 -1.6508
 3361TIP3    H231499   2.318   0.217  13.855 -0.7343  1.0959  0.2548
 3362TIP3   OH231500   6.361   0.371  17.045 -0.1108  0.1619 -0.5856
 3362TIP3    H131501   6.410   0.298  17.007 -1.9003 -1.9065  0.7950
 3362TIP3    H231502   6.271   0.338  17.052 -0.7628  2.0996  1.1172
 3363TIP3   OH231503   1.102   4.315  14.288  0.2887  0.1287  0.4631
 3363TIP3    H131504   1.122   4.393  14.237  0.9692  0.0966  0.6717
 3363TIP3    H231505   1.143   4.330  14.374 -0.2863 -0.0957  0.7829
 3364TIP3   OH231506   0.916   4.851  16.260 -0.8158  0.1570  0.2224
 3364TIP3    H131507   0.963   4.933  16.276  1.1779 -0.9154  0.1837
 3364TIP3    H231508   0.837   4.877  16.213 -0.2420  2.0457  0.2299
 3365TIP3   OH231509   1.792   3.725  11.363 -0.0350  0.2830 -0.2794
 3365TIP3    H131510   1.756   3.812  11.349 -1.6292 -0.2743  0.1454
 3365TIP3    H231511   1.758   3.672  11.291  2.6236  0.4155 -1.7766
 3366TIP3   OH231512   1.846   5.566  13.266  0.1781 -0.4579 -0.0491
 3366TIP3    H131513   1.933   5.598  13.240 -0.2607  0.5364 -0.3126
 3366TIP3    H231514   1.807   5.535  13.184  0.5461 -1.5671  0.1819
 3367TIP3   OH231515   2.220   4.179   4.592 -0.2062 -0.2803  0.3043
 3367TIP3    H131516   2.206   4.106   4.531 -1.3183 -0.7500  1.0986
 3367TIP3    H231517   2.171   4.155   4.670 -0.6001  1.3451  0.5858
 3368TIP3   OH231518   5.731   0.147  13.391  0.0413  0.1391  0.4162
 3368TIP3    H131519   5.693   0.226  13.353 -1.7971 -0.5352  0.7217
 3368TIP3    H231520   5.671   0.123  13.462  1.4439 -0.6346  1.3968
 3369TIP3   OH231521   4.473   4.143  14.499  0.3317  0.0855 -0.4732
 3369TIP3    H131522   4.429   4.076  14.446 -1.3362 -0.5475  1.5384
 3369TIP3    H231523   4.566   4.126  14.487 -0.0442 -2.1749 -0.5960
 3370TIP3   OH231524   5.345   2.347  13.220  0.0212  0.0228  0.4278
 3370TIP3    H131525   5.406   2.408  13.262 -0.1915  0.8163 -0.3672
 3370TIP3    H231526   5.400   2.295  13.161  0.3333 -1.1497  1.6964
 3371TIP3   OH231527   1.965   1.186   3.817 -0.3394  0.5270  0.0548
 3371TIP3    H131528   2.042   1.136   3.789 -0.2203 -0.0678  1.3403
 3371TIP3    H231529   1.951   1.158   3.908 -0.8545  2.1356  0.4958
 3372TIP3   OH231530   1.437   2.897   1.958 -0.0902  0.3279  0.2620
 3372TIP3    H131531   1.527   2.930   1.956  0.3468 -0.8667 -0.6390
 3372TIP3    H231532   1.439   2.818   1.905 -1.7758  0.4922 -0.0903
 3373TIP3   OH231533   3.034   5.788   3.936  0.1110  0.0892  0.3817
 3373TIP3    H131534   3.002   5.749   3.855  0.3907 -0.9100  0.7363
 3373TIP3    H231535   3.111   5.838   3.910  0.2506 -0.2966  0.0502
 3374TIP3   OH231536   4.599   1.626   3.020  0.1792  0.4950 -0.2522
 3374TIP3    H131537   4.588   1.686   2.947  0.6887  0.1150 -0.6468
 3374TIP3    H231538   4.646   1.551   2.983  1.5970  0.8621  0.7387
 3375TIP3   OH231539   5.216   5.490   5.497 -0.5124 -0.1448  0.2303
 3375TIP3    H131540   5.158   5.445   5.559  1.6124  1.6702  3.8755
 3375TIP3    H231541   5.293   5.432   5.491 -0.2069  0.2570  0.2676
 3376TIP3   OH231542   3.690   5.586  16.601  0.4200  0.0414 -0.0695
 3376TIP3    H131543   3.714   5.678  16.586 -1.7633  0.3941 -2.1025
 3376TIP3    H231544   3.770   5.537  16.583  1.0662  1.4176 -1.1456
 3377TIP3   OH231545   2.897   5.542   2.824  0.6207 -0.0694 -0.1508
 3377TIP3    H131546   2.823   5.574   2.875  0.5978 -0.6121  0.1698
 3377TIP3    H231547   2.906   5.604   2.752 -0.4296 -0.2534 -0.4573
 3378TIP3   OH231548   5.453   1.093   3.779  0.0733  0.3688 -0.1017
 3378TIP3    H131549   5.437   1.064   3.689 -0.5586  1.6698 -0.4432
 3378TIP3    H231550   5.400   1.036   3.833  0.2980 -0.2990 -0.5757
 3379TIP3   OH231551   4.174   2.758  13.144 -0.3117 -0.7642  0.0563
 3379TIP3    H131552   4.126   2.743  13.062 -1.3308  0.3096  0.4351
 3379TIP3    H231553   4.141   2.692  13.204 -0.3219 -0.8837 -0.0791
 3380TIP3   OH231554   5.414   2.482  14.481 -0.8401 -1.1912 -0.0787
 3380TIP3    H131555   5.424   2.406  14.425 -2.3254 -1.5052  0.0417
 3380TIP3    H231556   5.348   2.456  14.545 -1.5549  0.2522 -0.1851
 3381TIP3   OH231557   0.675   0.432   6.682  0.0373  0.0498  0.7793
 3381TIP3    H131558   0.590   0.402   6.650  0.2063 -0.4544  0.7956
 3381TIP3    H231559   0.715   0.478   6.608  0.2542 -0.7524  0.3897
 3382TIP3   OH231560   5.437   2.574  15.346 -0.0027 -0.1091 -0.5488
 3382TIP3    H131561   5.367   2.630  15.312  0.0777 -0.9879 -2.2835
 3382TIP3    H231562   5.414   2.560  15.438 -0.3363  2.2339 -0.2232
 3383TIP3   OH231563   2.776   3.136  14.717  0.0052  0.4491  0.2232
 3383TIP3    H131564   2.840   3.206  14.702 -0.4154  1.4623  2.7831
 3383TIP3    H231565   2.830   3.056  14.720  0.8119  0.9566 -0.2599
 3384TIP3   OH231566   6.585   3.823   0.072  0.0797  0.5937  0.2557
 3384TIP3    H131567   6.495   3.797   0.092  0.4671 -0.7951  0.2913
 3384TIP3    H231568   6.634   3.806   0.153  0.6342  0.0033 -0.1917
 3385TIP3   OH231569   4.248   5.184  14.505 -0.7272  0.5552 -0.7800
 3385TIP3    H131570   4.189   5.218  14.438 -2.2231 -0.4249 -0.0177
 3385TIP3    H231571   4.268   5.095  14.477  1.0104  1.0884 -1.3855
 3386TIP3   OH231572   0.562   2.778   3.074  0.0338 -0.0671 -0.2951
 3386TIP3    H131573   0.587   2.825   2.994 -1.1581  1.2015  0.0453
 3386TIP3    H231574   0.570   2.686   3.050  2.9257  0.2099 -0.8349
 3387TIP3   OH231575   0.571   6.672   2.313  0.4204  0.6840 -0.1914
 3387TIP3    H131576   0.616   6.690   2.230  0.9625  0.5513  0.0668
 3387TIP3    H231577   0.601   6.585   2.338 -0.6457  0.2319 -0.4333
 3388TIP3   OH231578   1.010   1.782   5.141  0.6867  0.2077 -0.2465
 3388TIP3    H131579   0.941   1.728   5.103  1.3811  0.8921 -2.6869
 3388TIP3    H231580   1.053   1.726   5.205 -0.5848 -1.0539 -0.4574
 3389TIP3   OH231581   6.719   2.998   1.830  0.0607  0.8254  0.5869
 3389TIP3    H131582   6.789   3.027   1.888  2.1183 -1.6225 -0.4734
 3389TIP3    H231583   6.647   2.974   1.889  0.7922  1.6246  1.8412
 3390TIP3   OH231584   3.827   2.058  15.048  0.6019 -0.1992 -0.6394
 3390TIP3    H131585   3.778   2.004  15.110 -0.7388  0.6248 -0.9641
 3390TIP3    H231586   3.839   2.141  15.093 -0.5426  0.4697 -1.5263
 3391TIP3   OH231587   0.890   0.761  14.722  0.1689  0.6107 -0.0426
 3391TIP3    H131588   0.963   0.755  14.784  0.7360 -0.9020 -0.8110
 3391TIP3    H231589   0.908   0.840  14.671  0.9126  0.6046  0.2002
 3392TIP3   OH231590   3.390   2.804   2.186  0.0246  0.0120 -0.3068
 3392TIP3    H131591   3.450   2.872   2.216  4.1449 -2.1614 -2.6518
 3392TIP3    H231592   3.353   2.839   2.105 -0.1787  0.5124 -0.0037
 3393TIP3   OH231593   4.116   1.414   4.331  0.4357 -0.1587 -0.5727
 3393TIP3    H131594   4.085   1.408   4.240  0.3199 -0.5316 -0.5092
 3393TIP3    H231595   4.185   1.348   4.337  0.9455  0.3613 -0.5873
 3394TIP3   OH231596   6.729   2.001  15.820 -0.1077  0.2746 -0.2900
 3394TIP3    H131597   6.637   1.997  15.794 -0.1205 -0.5282 -0.1343
 3394TIP3    H231598   6.776   2.023  15.739 -0.5715  2.2905 -0.0607
 3395TIP3   OH231599   1.835   2.622   4.227  0.3096  0.0139 -0.4833
 3395TIP3    H131600   1.821   2.616   4.322 -3.2589  2.8937 -0.5929
 3395TIP3    H231601   1.897   2.694   4.217 -0.0659  0.3647 -0.3274
 3396TIP3   OH231602   4.885   1.736   4.322  0.2627  0.1150  0.4109
 3396TIP3    H131603   4.924   1.658   4.283  0.4056 -1.3212  3.1866
 3396TIP3    H231604   4.891   1.721   4.416 -0.4470  3.1507  1.0318
 3397TIP3   OH231605   6.124   2.715   3.758 -0.3368  0.2154 -0.3205
 3397TIP3    H131606   6.085   2.735   3.843  1.2087  0.2005  0.4267
 3397TIP3    H231607   6.175   2.635   3.773 -0.4826 -0.0900 -1.4029
 3398TIP3   OH231608   2.337   5.330   6.327  0.1714  0.0475 -0.0449
 3398TIP3    H131609   2.278   5.264   6.365  1.3642 -1.0876 -0.0801
 3398TIP3    H231610   2.285   5.410   6.325 -0.8258 -0.4985  1.4879
 3399TIP3   OH231611   4.742   3.636  12.358  0.0339  0.1512 -0.3403
 3399TIP3    H131612   4.826   3.599  12.328 -0.1123 -0.1370 -0.4022
 3399TIP3    H231613   4.680   3.613  12.289  0.1723  1.5478 -0.9507
 3400TIP3   OH231614   6.105   4.500  15.889  0.0131  0.1867  0.1092
 3400TIP3    H131615   6.068   4.548  15.815  2.0394  1.1366 -0.3687
 3400TIP3    H231616   6.054   4.530  15.965 -1.0484  0.4051 -0.6733
 3401TIP3   OH231617   1.489   5.900  12.264  0.1843  0.6627  0.5381
 3401TIP3    H131618   1.548   5.976  12.266  0.3564  0.5243  0.7542
 3401TIP3    H231619   1.444   5.907  12.180  2.4256 -0.6659 -0.8921
 3402TIP3   OH231620   5.606   3.887   2.330  0.2423 -0.2396 -0.2653
 3402TIP3    H131621   5.679   3.826   2.333  0.3790 -0.2195 -2.2344
 3402TIP3    H231622   5.529   3.834   2.351  0.4027 -1.0499 -1.6208
 3403TIP3   OH231623   0.469   3.285   1.329  0.3115 -0.2591 -0.1101
 3403TIP3    H131624   0.515   3.318   1.406 -0.7398  0.1678  0.3466
 3403TIP3    H231625   0.517   3.323   1.255  1.8087 -1.3118  0.2774
 3404TIP3   OH231626   6.363   3.971   4.065 -0.2770  0.8045 -0.7036
 3404TIP3    H131627   6.332   4.024   4.138  0.2794  2.0534 -1.3307
 3404TIP3    H231628   6.441   4.017   4.033  0.3806 -0.5441 -1.1264
 3405TIP3   OH231629   2.569   0.508   5.396  0.1305 -0.0952 -0.6416
 3405TIP3    H131630   2.518   0.517   5.476 -0.4201  1.0281 -1.0907
 3405TIP3    H231631   2.522   0.561   5.331  1.6071  0.6115 -1.2005
 3406TIP3   OH231632   2.004   0.031  11.725  0.0979  0.1891  0.0944
 3406TIP3    H131633   2.076   0.080  11.763  1.0528  0.2429 -1.6708
 3406TIP3    H231634   1.928   0.090  11.733  0.8111  1.1847 -0.2604
 3407TIP3   OH231635   4.604   0.150   4.091 -0.2970 -0.1458  0.1684
 3407TIP3    H131636   4.659   0.157   4.169  0.9585 -0.8959 -0.6231
 3407TIP3    H231637   4.544   0.225   4.097  0.8075  0.7056  1.0557
 3408TIP3   OH231638   5.930   2.302  12.152 -0.0906  0.1412 -0.5020
 3408TIP3    H131639   5.957   2.298  12.060  0.8808  0.1674 -0.2301
 3408TIP3    H231640   5.929   2.396  12.172 -0.5581  0.1495 -0.5535
 3409TIP3   OH231641   3.369   1.223  13.950 -0.5391 -0.0581 -0.1320
 3409TIP3    H131642   3.327   1.172  13.882  1.5401 -0.9508 -0.8425
 3409TIP3    H231643   3.344   1.314  13.932 -2.0117 -0.5374 -0.5573
 3410TIP3   OH231644   2.744   2.219  17.332  0.2388  0.1570 -0.0955
 3410TIP3    H131645   2.685   2.159  17.377 -0.4259  1.6337  1.0712
 3410TIP3    H231646   2.686   2.284  17.292  1.0231  1.5459  0.9382
 3411TIP3   OH231647   2.944   1.194  14.262  0.2717 -0.4735  0.1649
 3411TIP3    H131648   2.938   1.179  14.356 -0.3577 -0.3905  0.1465
 3411TIP3    H231649   2.862   1.159  14.227 -0.0169  0.5386 -0.2070
 3412TIP3   OH231650   4.037   2.847  15.409  0.5183 -0.1909 -0.0568
 3412TIP3    H131651   3.984   2.927  15.404  1.9416  1.1070  2.9444
 3412TIP3    H231652   4.006   2.802  15.487  2.6021 -0.2951  0.7721
 3413TIP3   OH231653   1.237   1.922   5.093 -0.2125 -0.2370 -0.5618
 3413TIP3    H131654   1.249   2.015   5.114  3.8226 -0.4397 -1.1171
 3413TIP3    H231655   1.150   1.901   5.125 -1.9451  4.0684 -1.7630
 3414TIP3   OH231656   1.366   3.948  12.646  0.1089  0.0629  0.4007
 3414TIP3    H131657   1.344   4.040  12.639 -1.6904 -0.2845  0.9420
 3414TIP3    H231658   1.282   3.903  12.647  0.9455 -1.6073 -0.0063
 3415TIP3   OH231659   3.183   6.034  11.231  0.5094  0.5210  0.0285
 3415TIP3    H131660   3.108   5.976  11.248  0.7135 -0.1066 -1.1159
 3415TIP3    H231661   3.197   6.028  11.137  1.5223  1.2368  0.1189
 3416TIP3   OH231662   2.571   0.227  16.423  0.8449 -0.0805  0.2693
 3416TIP3    H131663   2.554   0.134  16.409 -0.0039  0.3152 -1.6319
 3416TIP3    H231664   2.622   0.254  16.347  1.4137  0.9372  0.9957
 3417TIP3   OH231665   2.920   5.174  14.388 -0.2303 -0.6534  0.4084
 3417TIP3    H131666   2.964   5.259  14.391 -0.9427 -0.2577 -0.0834
 3417TIP3    H231667   2.986   5.114  14.354 -0.4562  0.2001 -1.6715
 3418TIP3   OH231668   4.398   6.480  15.091 -0.2549  0.0408 -0.2286
 3418TIP3    H131669   4.421   6.458  15.181  0.0069 -0.0047 -0.3083
 3418TIP3    H231670   4.477   6.462  15.040 -0.3572  0.2016 -0.4464
 3419TIP3   OH231671   4.245   5.960   2.869 -0.5617 -0.5728 -0.0020
 3419TIP3    H131672   4.219   5.976   2.779  0.5965  0.3992 -0.1903
 3419TIP3    H231673   4.335   5.992   2.874 -0.6719 -0.4259  1.5485
 3420TIP3   OH231674   2.257   6.083  13.576  0.8691  0.0598 -0.1466
 3420TIP3    H131675   2.241   6.167  13.533 -0.1795  1.1412  2.1940
 3420TIP3    H231676   2.188   6.025  13.542 -0.1662  0.9920  0.3330
 3421TIP3   OH231677   1.377   6.234   1.271  0.1455 -0.3475 -0.5796
 3421TIP3    H131678   1.336   6.180   1.339 -1.6076  1.4303 -0.1212
 3421TIP3    H231679   1.398   6.316   1.316  0.8016  0.1340 -1.7366
 3422TIP3   OH231680   5.743   5.606  13.189  0.4863  0.2588  0.4743
 3422TIP3    H131681   5.822   5.574  13.145  1.5761  2.0395  1.0458
 3422TIP3    H231682   5.695   5.526  13.212  0.5672 -0.8173 -2.5658
 3423TIP3   OH231683   4.825   0.806   5.731 -0.2111  0.0756  0.1122
 3423TIP3    H131684   4.801   0.719   5.701  3.7630 -1.7290  1.5762
 3423TIP3    H231685   4.855   0.851   5.652  2.0594 -1.6130 -0.0738
 3424TIP3   OH231686   1.989   5.463  12.406  0.1125 -0.3283  0.3102
 3424TIP3    H131687   1.896   5.439  12.406 -0.2187  0.8732  1.1379
 3424TIP3    H231688   1.990   5.553  12.372  1.1533 -0.8885 -1.2304
 3425TIP3   OH231689   3.136   3.505   0.241 -0.3788  0.0378  0.1752
 3425TIP3    H131690   3.155   3.481   0.150 -2.2976 -1.0625  0.0069
 3425TIP3    H231691   3.119   3.599   0.238  0.9576  0.2765 -0.3362
 3426TIP3   OH231692   6.045   4.463   1.651  0.1098  0.2467 -0.1674
 3426TIP3    H131693   6.073   4.414   1.574  0.4180 -0.4222  0.3546
 3426TIP3    H231694   6.051   4.555   1.625  0.3373  0.0349 -0.8924
 3427TIP3   OH231695   4.926   0.362  11.725 -0.0347  0.1040  0.0109
 3427TIP3    H131696   5.013   0.332  11.699 -0.6799 -1.9626  0.0602
 3427TIP3    H231697   4.904   0.429  11.661  0.9101 -0.5394 -1.0379
 3428TIP3   OH231698   2.580   3.672   0.300 -0.3693 -0.2746 -0.4377
 3428TIP3    H131699   2.517   3.668   0.373  2.0418 -0.0164  1.7948
 3428TIP3    H231700   2.595   3.581   0.276 -1.3634 -0.3542 -0.7887
 3429TIP3   OH231701   3.941   2.761  17.310 -0.1157 -0.6780 -0.1203
 3429TIP3    H131702   3.953   2.725  17.398  0.7889 -0.4799 -0.1582
 3429TIP3    H231703   3.853   2.732  17.285 -0.2789 -0.9711  0.7352
 3430TIP3   OH231704   0.155   3.202  15.924  0.1572 -0.3196  0.2702
 3430TIP3    H131705   0.201   3.136  15.977 -1.0092  0.4427  2.3735
 3430TIP3    H231706   0.074   3.217  15.972  0.9695  3.6517  0.7195
 3431TIP3   OH231707   3.010   5.823  13.873 -0.4877 -0.7910  0.3962
 3431TIP3    H131708   2.959   5.767  13.931 -1.8098 -1.6802 -1.4971
 3431TIP3    H231709   2.947   5.850  13.805  1.0332 -0.0796 -0.7859
 3432TIP3   OH231710   5.348   3.256  14.863 -0.3861 -0.1174  0.2839
 3432TIP3    H131711   5.425   3.307  14.838  0.4215 -3.1214 -4.6739
 3432TIP3    H231712   5.275   3.303  14.825 -0.1201 -0.4663 -0.7057
 3433TIP3   OH231713   2.482   6.663   3.876  0.2417 -0.8662  0.1907
 3433TIP3    H131714   2.396   6.703   3.894  0.6860  0.6218 -0.8219
 3433TIP3    H231715   2.461   6.580   3.834 -0.7026 -1.0746  1.0172
 3434TIP3   OH231716   4.072   1.510  11.942  0.1534 -0.1237  0.4060
 3434TIP3    H131717   4.101   1.576  12.005  0.9583  0.0928 -0.1733
 3434TIP3    H231718   4.134   1.517  11.870  0.4247 -1.6864  0.4362
 3435TIP3   OH231719   1.928   0.619   0.684 -0.1000 -0.3908 -0.3169
 3435TIP3    H131720   1.894   0.530   0.681  0.0280 -0.4865  0.6214
 3435TIP3    H231721   1.952   0.632   0.776 -1.3216  1.0681 -0.1797
 3436TIP3   OH231722   4.742   3.806   3.742  0.5180 -0.0729 -0.5168
 3436TIP3    H131723   4.680   3.853   3.797 -0.2576  0.4845 -1.8324
 3436TIP3    H231724   4.697   3.724   3.719  0.6810 -0.1241 -0.6567
 3437TIP3   OH231725   1.552   2.149  13.192 -0.1761 -0.2693  0.3245
 3437TIP3    H131726   1.635   2.141  13.238 -1.2245  0.3643  2.4132
 3437TIP3    H231727   1.551   2.074  13.131  0.8437 -1.7397  2.0388
 3438TIP3   OH231728   4.426   3.277   6.088  0.1368 -0.3003  0.0999
 3438TIP3    H131729   4.510   3.323   6.091 -0.1024  0.1007  1.2725
 3438TIP3    H231730   4.392   3.283   6.177 -0.7489 -1.1973 -0.1547
 3439TIP3   OH231731   1.667   1.626   1.794 -0.0157  0.0428 -0.3945
 3439TIP3    H131732   1.616   1.554   1.829  1.9406 -0.5397  1.4693
 3439TIP3    H231733   1.654   1.697   1.857 -2.0608  1.5064 -2.2914
 3440TIP3   OH231734   2.118   0.331  14.380 -0.4212 -0.1804  0.1839
 3440TIP3    H131735   2.192   0.374  14.422  0.2005 -1.3955  0.3671
 3440TIP3    H231736   2.151   0.306  14.294 -0.0873 -2.1096  0.8324
 3441TIP3   OH231737   3.256   2.173   4.819 -0.8257  0.4282 -0.0649
 3441TIP3    H131738   3.287   2.083   4.818 -1.1506  0.3066 -1.8101
 3441TIP3    H231739   3.218   2.185   4.907 -0.3170 -0.9486  0.3600
 3442TIP3   OH231740   1.796   6.449   2.613 -0.5141  0.4666  0.2574
 3442TIP3    H131741   1.860   6.512   2.647  1.5309  1.0379 -3.8859
 3442TIP3    H231742   1.841   6.364   2.618 -0.6992  0.3615  0.1557
 3443TIP3   OH231743   5.334   5.063   1.627  0.2733 -0.3619 -0.1847
 3443TIP3    H131744   5.427   5.045   1.621  0.6154  0.4353  1.9425
 3443TIP3    H231745   5.319   5.135   1.565  1.3916  0.5948  0.6332
 3444TIP3   OH231746   5.747   5.778  17.270 -0.3179 -0.1422 -0.3311
 3444TIP3    H131747   5.706   5.808  17.351 -0.8786  1.0700 -1.0382
 3444TIP3    H231748   5.734   5.683  17.270 -0.2699 -0.1681  1.0107
 3445TIP3   OH231749   4.609   4.454  11.049 -0.1696 -0.0692  0.4615
 3445TIP3    H131750   4.517   4.432  11.062 -0.2961  0.4955  0.5420
 3445TIP3    H231751   4.609   4.520  10.980  0.3113 -1.2747 -0.7541
 3446TIP3   OH231752   4.704   1.189   4.189 -0.5524  0.0358  0.2674
 3446TIP3    H131753   4.742   1.218   4.106  0.3689  3.4345  1.6944
 3446TIP3    H231754   4.769   1.128   4.224 -1.2457 -1.9532 -1.6715
 3447TIP3   OH231755   2.736   1.429  16.445 -0.2686  0.6612 -0.3181
 3447TIP3    H131756   2.738   1.523  16.466  1.9748  0.9275 -1.4149
 3447TIP3    H231757   2.796   1.420  16.371 -1.5551 -1.4556 -1.1905
 3448TIP3   OH231758   2.907   4.381  13.552 -0.1712  0.2515 -0.4897
 3448TIP3    H131759   2.889   4.297  13.509 -0.1297  0.2623 -0.5283
 3448TIP3    H231760   2.978   4.362  13.614  2.7769  1.0633 -3.3247
 3449TIP3   OH231761   6.295   2.779   1.375  0.1638  0.1741  0.3022
 3449TIP3    H131762   6.229   2.709   1.377  0.0343  0.3122  1.6006
 3449TIP3    H231763   6.378   2.733   1.368 -0.0022 -0.0472 -0.2670
 3450TIP3   OH231764   6.093   6.705   1.065 -0.2500 -0.5122  0.2518
 3450TIP3    H131765   6.016   6.669   1.109 -0.5048 -1.0566 -0.6108
 3450TIP3    H231766   6.058   6.748   0.987  0.0878  1.3185  1.0645
 3451TIP3   OH231767   6.641   4.426   4.585 -0.2975 -0.1678 -0.2585
 3451TIP3    H131768   6.546   4.434   4.592 -0.3979 -1.5932  0.5067
 3451TIP3    H231769   6.657   4.332   4.591  1.2124  0.1095  0.5712
 3452TIP3   OH231770   4.483   1.471   1.431 -0.7075  0.2692  0.1148
 3452TIP3    H131771   4.563   1.482   1.380 -0.3695  1.0187  0.7909
 3452TIP3    H231772   4.415   1.458   1.365 -0.0413 -0.3963 -0.4665
 3453TIP3   OH231773   2.870   3.342   5.326 -0.0882 -0.2487  1.2998
 3453TIP3    H131774   2.893   3.250   5.312 -0.5900 -0.0233 -1.7135
 3453TIP3    H231775   2.774   3.343   5.322 -0.1036  0.3314  1.8513
 3454TIP3   OH231776   5.543   6.501  15.869  0.7539  0.2733  0.0981
 3454TIP3    H131777   5.493   6.442  15.813  1.4874 -0.2430 -0.0187
 3454TIP3    H231778   5.492   6.505  15.950 -0.9152  1.8834 -0.9330
 3455TIP3   OH231779   0.299   5.044  12.729  0.3131  0.2774  0.2878
 3455TIP3    H131780   0.344   5.012  12.807  2.0800 -0.1622 -0.8591
 3455TIP3    H231781   0.229   5.100  12.763 -0.0579 -1.2463  2.2168
 3456TIP3   OH231782   1.418   4.694  16.543  0.2168 -0.0250  0.0279
 3456TIP3    H131783   1.484   4.710  16.476 -0.4204 -2.3656 -1.2369
 3456TIP3    H231784   1.345   4.653  16.497 -0.5348 -1.0910  2.0243
 3457TIP3   OH231785   2.759   4.440  16.199 -0.4687  0.4797 -0.2092
 3457TIP3    H131786   2.738   4.532  16.214  1.1043  0.8907 -0.3697
 3457TIP3    H231787   2.800   4.411  16.281 -0.1656  0.1675 -0.4684
 3458TIP3   OH231788   6.656   5.444  17.222  0.1193  0.3853  0.1588
 3458TIP3    H131789   6.597   5.500  17.171  0.2083  1.2565  0.9882
 3458TIP3    H231790   6.743   5.484  17.210  0.3025 -0.0021  0.1774
 3459TIP3   OH231791   4.454   2.038  16.277 -0.1749 -0.4051 -0.1077
 3459TIP3    H131792   4.504   2.039  16.358 -0.4921  0.0878  0.0894
 3459TIP3    H231793   4.486   1.962  16.229  0.0472 -0.6675  0.4600
 3460TIP3   OH231794   3.566   5.093   0.724 -0.2318 -0.1756  0.5027
 3460TIP3    H131795   3.630   5.057   0.663 -1.1344 -0.2672 -0.3933
 3460TIP3    H231796   3.556   5.025   0.791 -0.3131 -0.6703 -0.0122
 3461TIP3   OH231797   0.808   2.262   2.127  0.2876  0.2163  0.3922
 3461TIP3    H131798   0.819   2.346   2.083 -1.8957  0.9200  1.0693
 3461TIP3    H231799   0.737   2.218   2.079 -0.4605 -0.0469  1.6798
 3462TIP3   OH231800   5.223   6.118   5.504 -0.3450 -0.1737  0.2160
 3462TIP3    H131801   5.191   6.191   5.451 -0.2313  0.3195  0.8141
 3462TIP3    H231802   5.174   6.125   5.586  1.6938  0.9760  1.4013
 3463TIP3   OH231803   3.189   0.045  12.310 -0.6294 -0.2409  0.3595
 3463TIP3    H131804   3.160   0.127  12.270 -0.9447  0.2292  1.5022
 3463TIP3    H231805   3.274   0.027  12.270 -1.0258  0.0891 -0.6634
 3464TIP3   OH231806   4.100   1.820  14.402 -0.1380  0.0297 -0.2001
 3464TIP3    H131807   4.129   1.757  14.467  0.0897  1.2929  0.9690
 3464TIP3    H231808   4.038   1.772  14.348 -0.2319 -1.0916  0.8628
 3465TIP3   OH231809   1.689   0.443  15.661  0.0903 -0.4600 -0.0560
 3465TIP3    H131810   1.670   0.532  15.689  0.2853  0.0955 -1.5801
 3465TIP3    H231811   1.783   0.433  15.673  0.1165 -0.3525 -0.1715
 3466TIP3   OH231812   5.302   6.255  16.182  0.2863 -0.1754  0.0339
 3466TIP3    H131813   5.370   6.255  16.250  1.3835 -2.8824 -0.9521
 3466TIP3    H231814   5.348   6.236  16.101 -1.3988  0.0653 -1.0432
 3467TIP3   OH231815   2.254   0.051   3.483  0.0204 -0.0325  0.6550
 3467TIP3    H131816   2.311   0.114   3.528  3.0121 -2.0481 -0.0455
 3467TIP3    H231817   2.228   0.097   3.402  1.9337  0.4486  0.2681
 3468TIP3   OH231818   0.223   2.344  13.817  0.1906 -0.1866 -0.2673
 3468TIP3    H131819   0.195   2.400  13.744 -0.5066 -1.9071 -1.3965
 3468TIP3    H231820   0.310   2.377  13.840  0.3507  0.5399 -1.7656
 3469TIP3   OH231821   1.947   3.410   5.331 -0.1883 -0.1555  0.4605
 3469TIP3    H131822   1.856   3.398   5.358 -0.2637 -0.6422  0.0134
 3469TIP3    H231823   1.947   3.388   5.238  0.1019  1.2656  0.0946
 3470TIP3   OH231824   3.371   2.802   6.758 -0.0329 -0.3307 -0.5940
 3470TIP3    H131825   3.357   2.876   6.818 -0.1963  0.1369 -1.1990
 3470TIP3    H231826   3.317   2.732   6.793  0.1458 -0.1759  0.0062
 3471TIP3   OH231827   2.201   2.789  17.042 -0.3844 -0.3424  0.0024
 3471TIP3    H131828   2.179   2.846  16.969  1.1014 -0.5114 -0.6055
 3471TIP3    H231829   2.169   2.836  17.119  1.7724  1.9204 -0.3620
 3472TIP3   OH231830   3.632   1.608  13.276  0.1252  0.2188 -0.3244
 3472TIP3    H131831   3.669   1.695  13.293 -1.0675  1.0068 -1.6118
 3472TIP3    H231832   3.709   1.552  13.265  0.9133  1.2124 -0.0483
 3473TIP3   OH231833   4.531   3.300  12.533 -0.3464  0.0322 -0.6960
 3473TIP3    H131834   4.537   3.396  12.535  0.4828 -0.0273  0.4462
 3473TIP3    H231835   4.479   3.282  12.455 -0.3502  1.4056 -1.0515
 3474TIP3   OH231836   4.518   6.355  17.290 -0.2931 -0.0012  0.2665
 3474TIP3    H131837   4.536   6.430  17.346  1.2768 -0.3179  0.2343
 3474TIP3    H231838   4.533   6.279  17.346 -2.6095 -0.3624  0.5298
 3475TIP3   OH231839   1.769   1.195  16.425  0.0917 -0.0859  0.6575
 3475TIP3    H131840   1.813   1.201  16.340  0.0085  0.9779  0.6726
 3475TIP3    H231841   1.765   1.101  16.444 -0.0393 -0.3499 -0.5865
 3476TIP3   OH231842   4.464   4.871   5.300 -0.0016 -0.2086 -0.1634
 3476TIP3    H131843   4.508   4.803   5.352 -1.5686 -1.3656 -0.2761
 3476TIP3    H231844   4.489   4.851   5.210  0.8570  0.3940 -0.0730
 3477TIP3   OH231845   2.127   3.731   0.245  0.0322  0.2274  0.3230
 3477TIP3    H131846   2.094   3.817   0.273  1.4984  0.6051  0.9903
 3477TIP3    H231847   2.129   3.679   0.326  0.3141 -0.0348  0.1489
 3478TIP3   OH231848   5.695   2.028  11.522 -0.2772  0.0386 -0.0477
 3478TIP3    H131849   5.604   2.000  11.506 -1.0936  3.1582 -1.5724
 3478TIP3    H231850   5.743   1.946  11.535 -2.7472 -1.9119 -2.1923
 3479TIP3   OH231851   5.388   5.958   0.316 -0.2864 -0.1614 -0.3755
 3479TIP3    H131852   5.433   5.890   0.266  0.4996  0.4869 -0.5611
 3479TIP3    H231853   5.295   5.942   0.300 -0.0578  0.2626 -2.3851
 3480TIP3   OH231854   2.206   0.567  13.464 -0.4863  0.3545 -0.0845
 3480TIP3    H131855   2.290   0.548  13.422 -0.2493  0.1736  0.4644
 3480TIP3    H231856   2.158   0.619  13.400  0.3728  1.1942 -0.0682
 3481TIP3   OH231857   5.647   4.246  15.844  0.0157 -0.3522  0.3487
 3481TIP3    H131858   5.645   4.221  15.936  1.8915 -0.7009  0.3240
 3481TIP3    H231859   5.555   4.242  15.817 -1.5906  5.0430  3.5175
 3482TIP3   OH231860   2.897   4.067  15.871  0.0339  0.0266 -0.3864
 3482TIP3    H131861   2.842   4.094  15.945 -0.3305 -0.4804 -0.4672
 3482TIP3    H231862   2.921   3.976  15.891 -0.8318 -0.4307 -1.3226
 3483TIP3   OH231863   4.715   4.981  15.211 -0.8783 -0.2385  0.1207
 3483TIP3    H131864   4.635   5.018  15.173 -0.5387  0.1294 -0.2555
 3483TIP3    H231865   4.693   4.965  15.303 -0.2315  3.4942  1.0727
 3484TIP3   OH231866   0.825   0.871   3.066 -0.7778  1.0004 -0.1141
 3484TIP3    H131867   0.846   0.961   3.040 -0.0674  1.4037  1.7031
 3484TIP3    H231868   0.908   0.835   3.096 -1.3566  0.2735  0.6555
 3485TIP3   OH231869   0.350   4.076  13.292 -0.1764 -0.1057 -0.0186
 3485TIP3    H131870   0.267   4.122  13.286  0.3624  0.7680 -1.2640
 3485TIP3    H231871   0.338   3.996  13.242 -0.4967 -0.3714  0.4723
 3486TIP3   OH231872   2.047   6.285  17.307  0.7015  0.5212  0.4818
 3486TIP3    H131873   2.044   6.367  17.356  1.2212  1.1086 -0.4478
 3486TIP3    H231874   2.049   6.311  17.215 -0.6975 -0.5644  0.0989
 3487TIP3   OH231875   4.671   4.347  12.136  0.9340 -0.1396 -0.0459
 3487TIP3    H131876   4.666   4.260  12.096  1.6103 -1.2345  2.0725
 3487TIP3    H231877   4.588   4.358  12.181  1.2224 -0.1256  0.4947
 3488TIP3   OH231878   4.553   0.306   4.512  0.6350  0.9659 -0.4521
 3488TIP3    H131879   4.580   0.367   4.580 -1.7835  0.8931  0.6938
 3488TIP3    H231880   4.490   0.355   4.460  0.4282  0.1807 -0.9660
 3489TIP3   OH231881   5.085   0.835  10.940  0.4002  0.8491  0.8637
 3489TIP3    H131882   5.130   0.800  10.862 -0.4385 -0.7531  1.0608
 3489TIP3    H231883   5.141   0.908  10.969  2.3598 -0.4476  0.5455
 3490TIP3   OH231884   6.472   0.640  12.171  0.0101  0.0732 -0.3876
 3490TIP3    H131885   6.564   0.642  12.145  0.5365  0.0952  1.3459
 3490TIP3    H231886   6.447   0.547  12.165  0.4798 -0.0967  0.1355
 3491TIP3   OH231887   5.160   5.653  14.551  0.5737  0.0782 -0.4495
 3491TIP3    H131888   5.121   5.711  14.486  0.6305  0.3356 -0.2554
 3491TIP3    H231889   5.250   5.683  14.558  1.2378 -1.3838 -1.9156
 3492TIP3   OH231890   2.915   6.064  14.960 -0.1398 -0.0658  0.1408
 3492TIP3    H131891   2.865   6.128  14.910 -0.4750 -0.7005 -0.3535
 3492TIP3    H231892   2.855   5.991  14.972  1.2029 -1.6599 -2.1077
 3493TIP3   OH231893   6.418   3.539   5.285 -0.3259 -0.1661  0.2441
 3493TIP3    H131894   6.388   3.567   5.371 -1.3497 -1.9317  0.5053
 3493TIP3    H231895   6.368   3.591   5.223  0.1437  0.8421  0.6988
 3494TIP3   OH231896   5.130   0.092   4.854 -0.3585 -0.5517 -0.2155
 3494TIP3    H131897   5.119   0.169   4.909  2.2591 -1.3328  1.6181
 3494TIP3    H231898   5.061   0.032   4.883 -0.4103 -0.0883  0.6608
 3495TIP3   OH231899   5.128   1.504  15.722  0.1495 -0.7860 -0.2075
 3495TIP3    H131900   5.059   1.440  15.740 -0.8841  0.0654 -1.0430
 3495TIP3    H231901   5.202   1.452  15.692 -0.2354 -1.6855  0.3575
 3496TIP3   OH231902   4.617   4.111  12.294  0.0776 -0.2333 -0.0702
 3496TIP3    H131903   4.690   4.092  12.235 -0.6379  0.3438 -1.1778
 3496TIP3    H231904   4.547   4.142  12.236 -1.0192 -0.6957  0.9732
 3497TIP3   OH231905   3.343   3.936   6.504  0.3039  0.5420  0.6524
 3497TIP3    H131906   3.359   3.978   6.588 -2.1740  0.7390  1.1070
 3497TIP3    H231907   3.335   3.843   6.524  2.4814  0.1801  0.1411
 3498TIP3   OH231908   5.948   2.743  13.282 -0.4230  0.0038 -0.4524
 3498TIP3    H131909   5.996   2.726  13.363 -2.8032 -1.5220  0.7376
 3498TIP3    H231910   6.015   2.743  13.214  1.4421 -0.4064  1.2913
 3499TIP3   OH231911   4.917   2.340   0.348 -0.1779 -0.7328 -0.5248
 3499TIP3    H131912   5.000   2.372   0.312  0.6074 -0.9242  1.0474
 3499TIP3    H231913   4.859   2.336   0.272  1.3014 -0.8103 -1.7098
 3500TIP3   OH231914   6.219   0.586  13.966 -0.7660 -0.2373 -1.0060
 3500TIP3    H131915   6.250   0.640  13.894  1.1315  1.5249  0.9799
 3500TIP3    H231916   6.230   0.496  13.936  0.3952  0.4391 -2.7180
 3501TIP3   OH231917   2.187   3.944   2.168 -0.1825 -0.5422 -0.5068
 3501TIP3    H131918   2.195   3.993   2.087  1.1874  0.8952  0.4491
 3501TIP3    H231919   2.093   3.944   2.187 -0.4279 -0.1751 -1.6415
 3502TIP3   OH231920   3.104   2.486   2.921 -0.2581  0.7355  0.5363
 3502TIP3    H131921   3.165   2.553   2.950 -1.0298  1.6976  0.0120
 3502TIP3    H231922   3.034   2.488   2.986  0.3724 -0.5607  1.2958
 3503TIP3   OH231923   4.337   1.485   0.364  0.0051  0.0564 -0.6282
 3503TIP3    H131924   4.265   1.532   0.406 -0.4290  0.3184 -1.6265
 3503TIP3    H231925   4.403   1.474   0.433 -0.4525  0.9438 -0.0350
 3504TIP3   OH231926   0.467   5.852  13.858  0.1673 -0.1370 -0.3797
 3504TIP3    H131927   0.506   5.765  13.871  2.1582  0.7007 -0.4877
 3504TIP3    H231928   0.536   5.904  13.819 -0.3280  2.0767  1.4821
 3505TIP3   OH231929   4.440   4.393   1.254 -0.2404 -0.5512 -0.1072
 3505TIP3    H131930   4.442   4.474   1.306  1.5981 -0.2387 -0.5897
 3505TIP3    H231931   4.532   4.376   1.233 -0.5540 -2.9022  0.1544
 3506TIP3   OH231932   5.354   5.265  14.341 -0.0065  0.3012 -0.4671
 3506TIP3    H131933   5.406   5.294  14.266  0.1381  1.0867 -0.0793
 3506TIP3    H231934   5.406   5.291  14.417  0.4372 -1.5811 -0.0763
 3507TIP3   OH231935   2.873   4.130  15.271  0.6351  0.1315 -0.6676
 3507TIP3    H131936   2.854   4.036  15.274  0.5506  0.1624 -0.0617
 3507TIP3    H231937   2.849   4.162  15.358 -0.1268  0.8787 -1.1373
 3508TIP3   OH231938   0.273   3.831   1.510  0.3036 -0.0981  0.6301
 3508TIP3    H131939   0.264   3.849   1.416  0.2143 -0.9441  0.4757
 3508TIP3    H231940   0.231   3.747   1.523  2.1668 -1.0081  1.0400
 3509TIP3   OH231941   4.010   4.799  12.601  0.1381  1.1744 -0.6966
 3509TIP3    H131942   3.979   4.710  12.614  1.2185  0.7428 -0.9541
 3509TIP3    H231943   4.043   4.827  12.686  1.3873  0.6722 -0.9883
 3510TIP3   OH231944   2.459   2.609  16.032 -0.1081 -0.1603  0.3894
 3510TIP3    H131945   2.411   2.628  15.951 -0.1001  0.4860  0.5387
 3510TIP3    H231946   2.550   2.597  16.003 -0.2621 -0.8862  0.1763
 3511TIP3   OH231947   5.477   1.932   4.927 -0.7304 -0.6016  0.1862
 3511TIP3    H131948   5.499   1.966   4.840  0.7399 -0.4059  0.6146
 3511TIP3    H231949   5.422   1.855   4.909 -0.4812 -0.5441 -0.9160
 3512TIP3   OH231950   0.900   1.499  15.203 -0.2303  0.4469  0.3059
 3512TIP3    H131951   0.831   1.434  15.191  0.9164 -0.5070 -1.6820
 3512TIP3    H231952   0.864   1.561  15.266 -2.5418 -0.4701 -0.0130
 3513TIP3   OH231953   3.507   0.444  13.893 -0.2238 -0.0897 -0.5841
 3513TIP3    H131954   3.563   0.493  13.832  0.0596 -0.5025 -0.6571
 3513TIP3    H231955   3.513   0.353  13.864  0.7347 -0.4603  0.6833
 3514TIP3   OH231956   0.372   4.445   3.989 -0.0923  0.2115 -0.4178
 3514TIP3    H131957   0.361   4.462   3.896 -1.3328  0.4119 -0.2621
 3514TIP3    H231958   0.463   4.466   4.008 -0.1933  1.5428 -1.3055
 3515TIP3   OH231959   4.169   0.628  12.000  0.2808 -0.1833  0.3033
 3515TIP3    H131960   4.100   0.569  11.971  0.0094  0.5166 -0.5260
 3515TIP3    H231961   4.244   0.608  11.945 -0.1271  0.9095 -0.6933
 3516TIP3   OH231962   2.454   6.061  14.886 -0.0810 -0.0890  0.0675
 3516TIP3    H131963   2.403   5.983  14.865 -0.0486 -0.1426  0.1871
 3516TIP3    H231964   2.393   6.134  14.876  0.1103 -0.0517 -0.8785
 3517TIP3   OH231965   5.721   6.701  15.182 -0.1595  0.0838  0.5535
 3517TIP3    H131966   5.628   6.688  15.201 -0.1324  0.5290  1.0313
 3517TIP3    H231967   5.733   6.669  15.093 -1.0274  1.1128  0.0412
 3518TIP3   OH231968   6.505   4.699   4.536  0.2245  0.7993 -0.3650
 3518TIP3    H131969   6.417   4.664   4.519  0.4779 -0.5408  0.8195
 3518TIP3    H231970   6.494   4.754   4.614  0.3856  0.8620 -0.3865
 3519TIP3   OH231971   1.754   2.590   4.477  0.4665  0.4836  0.3110
 3519TIP3    H131972   1.680   2.534   4.500 -0.4635  1.8121  0.6557
 3519TIP3    H231973   1.823   2.565   4.539  0.4755 -1.0437 -0.2737
 3520TIP3   OH231974   4.511   6.406   5.838 -0.2253  0.1567  0.4416
 3520TIP3    H131975   4.493   6.446   5.923 -2.1646 -1.2803  0.7858
 3520TIP3    H231976   4.425   6.395   5.798  0.5228 -0.6414 -1.0259
 3521TIP3   OH231977   1.899   2.337  17.318 -0.6355 -1.2429 -0.6201
 3521TIP3    H131978   1.927   2.420  17.279 -0.8257 -1.5412 -1.4232
 3521TIP3    H231979   1.961   2.272  17.283 -1.5698 -1.7169 -1.4488
 3522TIP3   OH231980   3.552   1.191   0.542 -0.4816  0.1697 -0.5532
 3522TIP3    H131981   3.528   1.186   0.450 -0.4188 -1.3706 -0.5193
 3522TIP3    H231982   3.470   1.174   0.589 -0.0565 -1.6452 -0.3928
 3523TIP3   OH231983   2.689   3.219  16.384  0.2131 -0.1657  0.0594
 3523TIP3    H131984   2.614   3.278  16.395  0.3439  0.0309 -0.1078
 3523TIP3    H231985   2.667   3.168  16.306 -0.3992 -1.0907  0.8069
 3524TIP3   OH231986   3.210   0.130   4.505 -0.2453  0.4033 -0.0883
 3524TIP3    H131987   3.198   0.097   4.594  1.9679 -1.8601 -0.5069
 3524TIP3    H231988   3.138   0.091   4.455 -0.3376 -0.0067  0.3535
 3525TIP3   OH231989   0.879   2.911   3.589  0.0213 -0.1496 -0.8278
 3525TIP3    H131990   0.849   3.000   3.608  1.2213  0.5554 -2.0389
 3525TIP3    H231991   0.900   2.912   3.496  1.1929 -1.3637 -0.6078
 3526TIP3   OH231992   1.660   2.161  12.493  0.0452  0.3119 -0.4668
 3526TIP3    H131993   1.591   2.174  12.558  1.7102  1.6876  1.1202
 3526TIP3    H231994   1.613   2.137  12.413 -2.0815 -1.7807  1.2527
 3527TIP3   OH231995   5.528   2.159  16.660 -0.6630  0.5228  0.3532
 3527TIP3    H131996   5.614   2.191  16.690 -1.4431  0.1284  3.3112
 3527TIP3    H231997   5.541   2.065  16.647 -0.8175  0.2735  1.7829
 3528TIP3   OH231998   6.683   2.768   4.176 -0.2523  0.2070  0.0953
 3528TIP3    H131999   6.636   2.712   4.238 -2.0086 -0.0258 -1.3740
 3528TIP3    H232000   6.730   2.706   4.119 -0.5565  0.3001 -0.2627
 3529TIP3   OH232001   3.969   0.086  16.644 -0.0471  0.1376 -0.1559
 3529TIP3    H132002   3.955   0.105  16.737 -1.8166 -1.0053 -0.1437
 3529TIP3    H232003   3.993  -0.006  16.641 -0.7330 -0.0252 -0.8805
 3530TIP3   OH232004   4.322   5.384  11.932 -0.3498  0.3910 -0.1054
 3530TIP3    H132005   4.231   5.361  11.913 -0.0828  0.0601 -1.0690
 3530TIP3    H232006   4.329   5.477  11.907 -0.4696  0.4636  0.1346
 3531TIP3   OH232007   2.763   3.444   2.810 -0.1545 -1.0714 -0.2548
 3531TIP3    H132008   2.829   3.400   2.756  1.0951 -1.5334  1.5631
 3531TIP3    H232009   2.691   3.380   2.817  0.3711 -1.6555 -0.0711
 3532TIP3   OH232010   1.193   1.532  12.165  0.4946 -0.9241 -0.0204
 3532TIP3    H132011   1.246   1.484  12.228 -0.1480  0.1327  1.3835
 3532TIP3    H232012   1.135   1.466  12.127  1.1332 -1.6397  0.2362
 3533TIP3   OH232013   6.039   0.198   4.499  0.1641 -0.1612 -0.0930
 3533TIP3    H132014   6.059   0.238   4.414  0.5343  0.4515  0.2731
 3533TIP3    H232015   6.029   0.104   4.480 -0.0533  0.0154 -0.8569
 3534TIP3   OH232016   0.638   1.061  15.614 -0.0032 -0.4658 -0.3379
 3534TIP3    H132017   0.627   0.983  15.560 -0.1550 -1.2784  0.8161
 3534TIP3    H232018   0.733   1.065  15.631  0.0725 -0.0855 -0.8316
 3535TIP3   OH232019   3.990   3.444  17.132 -0.4739 -0.4040 -0.1934
 3535TIP3    H132020   4.084   3.435  17.144 -0.6363 -2.2316 -0.1046
 3535TIP3    H232021   3.965   3.368  17.080 -1.8924  0.1200 -0.3257
 3536TIP3   OH232022   4.781   2.143   2.014  0.3457  0.2901 -0.9069
 3536TIP3    H132023   4.795   2.088   2.091 -0.2155 -1.0453 -1.7197
 3536TIP3    H232024   4.787   2.083   1.940  1.5940  1.6694 -1.9812
 3537TIP3   OH232025   2.676   4.862   3.045 -0.2057  0.3135 -0.0131
 3537TIP3    H132026   2.680   4.767   3.045  1.4705  0.3530  0.1045
 3537TIP3    H232027   2.647   4.885   2.956 -0.0352 -0.2968 -0.2268
 3538TIP3   OH232028   3.300   0.242  12.987 -0.3182 -0.0073  0.1524
 3538TIP3    H132029   3.317   0.273  12.898  0.9369  0.6906  0.6151
 3538TIP3    H232030   3.215   0.197  12.981 -0.3046  0.1275 -1.3592
 3539TIP3   OH232031   1.645   3.358   3.492  0.5559  0.2844  0.4921
 3539TIP3    H132032   1.602   3.391   3.413  1.8247  1.1677  0.1524
 3539TIP3    H232033   1.628   3.264   3.490  0.8795  0.2324 -1.0439
 3540TIP3   OH232034   5.024   0.038  11.155 -0.0864  0.0614  0.0812
 3540TIP3    H132035   5.049  -0.020  11.227 -1.8781 -0.6225  0.2115
 3540TIP3    H232036   4.995  -0.021  11.086  1.5891  0.7131 -1.2351
 3541TIP3   OH232037   6.508   1.332   2.466  0.2380 -0.4507 -0.1690
 3541TIP3    H132038   6.461   1.413   2.482  0.0737 -0.8834  1.7541
 3541TIP3    H232039   6.440   1.265   2.457  0.4209 -0.7390  0.5291
 3542TIP3   OH232040   6.030   1.441   3.799 -0.6576  0.1956  0.6691
 3542TIP3    H132041   5.989   1.515   3.843 -2.9891 -1.3075  1.2334
 3542TIP3    H232042   5.986   1.364   3.836 -0.1685 -1.3409 -1.7004
 3543TIP3   OH232043   1.661   6.657  11.648  0.7066 -0.1574 -0.1798
 3543TIP3    H132044   1.658   6.650  11.552 -0.9825  0.0251 -0.1682
 3543TIP3    H232045   1.746   6.697  11.666  1.1243 -0.3463 -1.5945
 3544TIP3   OH232046   3.691   0.975  13.079 -0.2724  0.2389  0.0395
 3544TIP3    H132047   3.710   0.929  13.161 -1.8281 -0.7450 -0.1122
 3544TIP3    H232048   3.596   0.974  13.072 -0.2821  2.4047 -0.6355
 3545TIP3   OH232049   1.320   2.031   0.250 -0.2652 -0.6084  0.2879
 3545TIP3    H132050   1.376   2.022   0.327 -1.4189  1.0789  1.4117
 3545TIP3    H232051   1.237   2.064   0.285 -1.0737 -0.4928 -1.6142
 3546TIP3   OH232052   5.718   1.420   3.764 -0.0469 -0.0284 -0.3328
 3546TIP3    H132053   5.683   1.337   3.732 -2.6289 -0.0084  2.0177
 3546TIP3    H232054   5.791   1.440   3.706  0.9917 -4.1358 -0.7354
 3547TIP3   OH232055   4.959   4.170   0.322 -0.3245 -0.3150 -0.5734
 3547TIP3    H132056   4.995   4.247   0.367  1.1669 -1.0933 -0.3480
 3547TIP3    H232057   4.923   4.205   0.241 -2.0089  0.9621  0.6444
 3548TIP3   OH232058   1.158   4.182   2.649  0.1619 -0.2729 -0.0636
 3548TIP3    H132059   1.092   4.227   2.597  1.1166  1.3567  0.0922
 3548TIP3    H232060   1.241   4.221   2.622  0.6305  1.6769  3.5675
 3549TIP3   OH232061   3.113   0.832  12.874 -0.0545 -0.4455  0.2267
 3549TIP3    H132062   3.141   0.742  12.890 -0.2506 -0.3784  0.9805
 3549TIP3    H232063   3.147   0.881  12.949  1.2442  0.3714 -0.8665
 3550TIP3   OH232064   3.004   5.777  14.611 -0.1262  0.0708  0.2275
 3550TIP3    H132065   2.961   5.694  14.630 -0.8411  0.5636  0.7934
 3550TIP3    H232066   3.076   5.754  14.552 -1.4385 -0.7259 -1.1314
 3551TIP3   OH232067   4.066   1.066   4.613  0.8410  0.3426 -0.0598
 3551TIP3    H132068   4.110   1.142   4.652  1.5734 -0.0990  0.0028
 3551TIP3    H232069   4.126   1.038   4.543  1.3540 -1.1057  0.9122
 3552TIP3   OH232070   2.787   1.772  14.340  0.5685 -0.1818 -0.3905
 3552TIP3    H132071   2.737   1.755  14.260  0.9428 -0.0540 -0.6566
 3552TIP3    H232072   2.865   1.718  14.331  2.0124  1.9618 -1.4732
 3553TIP3   OH232073   3.621   6.725  10.823 -0.2920 -0.3830  0.2749
 3553TIP3    H132074   3.658   6.737  10.910 -0.4776 -0.1727  0.3235
 3553TIP3    H232075   3.540   6.776  10.823  0.4023  0.7777 -0.4672
 3554TIP3   OH232076   0.116   1.148   0.361  0.1287  0.1030 -0.2255
 3554TIP3    H132077   0.099   1.114   0.448 -0.2300 -0.2475 -0.4329
 3554TIP3    H232078   0.079   1.083   0.301  0.3969  0.3243 -0.6408
 3555TIP3   OH232079   2.935   3.351  17.168  0.1820 -0.8222  0.0486
 3555TIP3    H132080   2.993   3.346  17.092  0.2516 -0.9408  0.1099
 3555TIP3    H232081   2.883   3.271  17.164 -1.2678  0.1315 -1.0481
 3556TIP3   OH232082   1.251   5.502   0.116 -0.2037  0.5274  0.2468
 3556TIP3    H132083   1.180   5.493   0.052  0.5854 -0.6409 -0.4937
 3556TIP3    H232084   1.305   5.424   0.103  0.2430  0.5009  2.0220
 3557TIP3   OH232085   5.050   2.750  16.718 -0.2474 -0.1416  0.0114
 3557TIP3    H132086   5.032   2.724  16.808  1.6796  0.1761  0.5328
 3557TIP3    H232087   5.039   2.845  16.718 -1.0269 -0.2179 -0.3194
 3558TIP3   OH232088   1.395   5.130   1.540  0.6763  0.5286  0.3335
 3558TIP3    H132089   1.337   5.109   1.466 -1.5234 -0.8617  2.3110
 3558TIP3    H232090   1.431   5.216   1.518 -0.6230  0.5925 -1.8993
 3559TIP3   OH232091   3.074   5.397  14.365 -0.2838 -0.2447 -0.3370
 3559TIP3    H132092   3.007   5.452  14.325  0.4985  0.1209 -1.1866
 3559TIP3    H232093   3.144   5.457  14.390  0.4216 -0.7766 -0.9488
 3560TIP3   OH232094   4.592   3.434   1.634 -0.2241 -0.0724 -0.9982
 3560TIP3    H132095   4.641   3.352   1.635 -1.2782 -0.7277  0.0750
 3560TIP3    H232096   4.501   3.407   1.648 -0.6317  1.2532 -0.9804
 3561TIP3   OH232097   5.857   6.697   1.234 -0.2695  0.2331 -0.3641
 3561TIP3    H132098   5.900   6.776   1.267 -0.9697  0.9477 -1.1164
 3561TIP3    H232099   5.782   6.729   1.185 -0.3807 -0.8923 -0.9669
 3562TIP3   OH232100   6.567   1.725  15.517  0.3839 -0.2680 -0.0748
 3562TIP3    H132101   6.590   1.632  15.522  0.9514 -0.1393 -0.1770
 3562TIP3    H232102   6.483   1.727  15.472  0.5514 -0.7094 -0.4133
 3563TIP3   OH232103   2.255   1.570  13.745 -0.4833 -0.1929 -0.4630
 3563TIP3    H132104   2.221   1.482  13.730 -0.0410 -0.6718  1.0986
 3563TIP3    H232105   2.346   1.566  13.716 -0.0461 -0.6965  0.8952
 3564TIP3   OH232106   4.609   2.658  14.158 -0.3030  0.1105 -0.4364
 3564TIP3    H132107   4.678   2.602  14.194  1.3384  2.3654  0.1053
 3564TIP3    H232108   4.655   2.730  14.116 -2.3356  1.1378 -1.0440
 3565TIP3   OH232109   2.352   4.398   5.877 -0.5214 -0.8848 -0.0440
 3565TIP3    H132110   2.335   4.371   5.787 -0.8621  0.4938 -0.4101
 3565TIP3    H232111   2.283   4.461   5.897  0.2264 -0.2921  0.7780
 3566TIP3   OH232112   2.421   3.348  13.323  0.3339 -0.2689  0.3875
 3566TIP3    H132113   2.386   3.307  13.244 -0.7038 -0.7201  1.0623
 3566TIP3    H232114   2.379   3.301  13.395  0.6819  0.6448  1.2081
 3567TIP3   OH232115   2.734   1.682   3.987  0.4950  0.7739 -0.5590
 3567TIP3    H132116   2.756   1.644   3.902 -0.1283 -0.8710 -0.0262
 3567TIP3    H232117   2.649   1.725   3.974  0.3166  0.3689 -0.7236
 3568TIP3   OH232118   6.622   1.536  14.780 -0.1766  0.0844 -0.0518
 3568TIP3    H132119   6.605   1.512  14.689  1.5066 -0.1430 -0.3380
 3568TIP3    H232120   6.649   1.454  14.822  1.0838  0.5548  0.1108
 3569TIP3   OH232121   6.113   4.896   2.133 -0.4687  0.4164  0.0351
 3569TIP3    H132122   6.105   4.928   2.043  0.9141 -0.7487 -0.5433
 3569TIP3    H232123   6.203   4.863   2.139 -0.5044  0.5783  1.8910
 3570TIP3   OH232124   1.318   5.925   5.809  0.3252  0.2493  0.2869
 3570TIP3    H132125   1.265   5.969   5.743 -0.3508  0.0674  0.7011
 3570TIP3    H232126   1.285   5.958   5.892  0.1780 -0.6150  0.5865
 3571TIP3   OH232127   2.686   1.786  17.098  0.4779  0.1170 -0.6697
 3571TIP3    H132128   2.639   1.852  17.047 -1.0892 -2.3175 -2.5970
 3571TIP3    H232129   2.727   1.730  17.032 -0.8063 -2.6078  0.7300
 3572TIP3   OH232130   5.055   6.664   5.435  0.2302 -0.0231 -0.2369
 3572TIP3    H132131   5.134   6.657   5.488  0.2407 -0.7711 -0.3382
 3572TIP3    H232132   4.985   6.683   5.498  0.0459 -2.0158  0.2459
 3573TIP3   OH232133   2.426   1.163  13.120 -0.1039  0.1866 -0.4006
 3573TIP3    H132134   2.475   1.145  13.200  1.0239  4.4907  0.1456
 3573TIP3    H232135   2.492   1.159  13.050 -0.9229 -2.7107 -1.1479
 3574TIP3   OH232136   1.480   3.129   2.668  0.1995 -0.4583 -0.1363
 3574TIP3    H132137   1.535   3.098   2.597  1.1105  0.4960  0.1306
 3574TIP3    H232138   1.537   3.130   2.745 -0.0667  0.8697  0.0811
 3575TIP3   OH232139   4.452   3.021   6.279 -0.0954 -0.7118  0.2410
 3575TIP3    H132140   4.393   3.007   6.353  0.9521  0.1659  1.2909
 3575TIP3    H232141   4.500   3.101   6.302  1.0863 -1.0880 -0.8342
 3576TIP3   OH232142   4.552   0.570  15.537 -1.1046 -0.6654 -0.1718
 3576TIP3    H132143   4.641   0.565  15.573 -0.6875 -0.9027 -1.1992
 3576TIP3    H232144   4.518   0.654  15.567 -0.0287  0.0360 -0.8703
 3577TIP3   OH232145   0.679   6.355  13.671 -0.0972  0.4211 -0.1560
 3577TIP3    H132146   0.762   6.371  13.715 -0.4254  1.6848  0.0287
 3577TIP3    H232147   0.697   6.281  13.612  1.2974  1.0411 -0.5451
 3578TIP3   OH232148   1.987   3.402  13.465  0.0647  0.1165  0.5789
 3578TIP3    H132149   2.062   3.442  13.509  0.3094  0.0655  0.2066
 3578TIP3    H232150   1.940   3.477  13.427  0.3393  0.0822  0.1696
 3579TIP3   OH232151   4.940   4.348   5.619  0.0279  0.2749 -0.6749
 3579TIP3    H132152   4.952   4.303   5.703 -2.1900 -0.3792 -0.6422
 3579TIP3    H232153   4.861   4.401   5.632  1.0099  2.0495 -1.6178
 3580TIP3   OH232154   0.888   2.663   6.108 -0.7454  0.3566  0.2801
 3580TIP3    H132155   0.956   2.636   6.170 -0.1704  0.5035 -0.2744
 3580TIP3    H232156   0.822   2.594   6.113  0.0229 -0.4147 -0.0677
 3581TIP3   OH232157   2.948   2.083   0.665  0.5422  0.0799  0.4335
 3581TIP3    H132158   3.014   2.145   0.633  1.8383  0.0144  2.7530
 3581TIP3    H232159   2.952   2.010   0.603  1.1804  0.9847 -0.6232
 3582TIP3   OH232160   3.248   1.337   0.179 -0.6117  0.3971 -0.4677
 3582TIP3    H132161   3.290   1.419   0.151 -0.6417 -0.0097 -1.7608
 3582TIP3    H232162   3.157   1.360   0.194 -0.7551  0.4932 -1.4199
 3583TIP3   OH232163   5.204   6.422   4.314 -0.2815 -1.0548  0.3264
 3583TIP3    H132164   5.262   6.498   4.324  0.0873 -1.4212  1.1290
 3583TIP3    H232165   5.244   6.370   4.245  0.5873 -1.4969  1.1383
 3584TIP3   OH232166   0.756   2.547  15.681  0.4635 -0.7493 -0.6759
 3584TIP3    H132167   0.715   2.602  15.748 -0.4183 -0.6931 -1.2471
 3584TIP3    H232168   0.850   2.550  15.702  0.2119 -0.6696  0.4984
 3585TIP3   OH232169   0.861   5.663  14.327 -0.0344  0.2847 -0.4018
 3585TIP3    H132170   0.853   5.707  14.243 -1.0958 -1.0556 -1.0412
 3585TIP3    H232171   0.834   5.728  14.392 -1.5980  0.5768 -1.3121
 3586TIP3   OH232172   1.293   0.943   3.766  0.5446 -0.1455 -0.2206
 3586TIP3    H132173   1.383   0.911   3.759  0.1201 -1.5114  0.2617
 3586TIP3    H232174   1.249   0.910   3.688 -0.0030 -1.1378  0.4883
 3587TIP3   OH232175   5.915   5.514  15.835  0.2378 -0.4919 -0.1589
 3587TIP3    H132176   5.839   5.478  15.881  0.2434 -0.2128  0.0653
 3587TIP3    H232177   5.879   5.548  15.753  0.1300 -0.4044 -0.0750
 3588TIP3   OH232178   0.347   4.653   1.782 -0.3170  0.2708  0.1758
 3588TIP3    H132179   0.259   4.621   1.804 -0.9603  2.0199  0.3076
 3588TIP3    H232180   0.339   4.749   1.787  0.8219  0.6049 -2.7288
 3589TIP3   OH232181   0.722   6.069  14.953  0.1590  0.1872  0.1472
 3589TIP3    H132182   0.816   6.080  14.945  0.1103  1.4119  1.1179
 3589TIP3    H232183   0.711   5.986  14.999  0.7380 -0.1824 -0.3680
 3590TIP3   OH232184   4.766   0.637  16.916  0.7191  0.1255 -0.1494
 3590TIP3    H132185   4.795   0.565  16.972  1.0013 -0.0143 -0.4738
 3590TIP3    H232186   4.678   0.657  16.947 -0.3509 -1.9585 -1.5691
 3591TIP3   OH232187   3.740   4.101   4.290 -0.5198 -1.0237 -0.7993
 3591TIP3    H132188   3.667   4.056   4.247 -1.2358  0.5980 -1.3387
 3591TIP3    H232189   3.762   4.173   4.231  1.0283 -1.0197 -0.2722
 3592TIP3   OH232190   4.579   5.505   3.983 -0.2173  0.0092  0.2545
 3592TIP3    H132191   4.605   5.427   4.032  0.6790 -0.9056 -1.5779
 3592TIP3    H232192   4.506   5.476   3.929  1.3873 -0.2022 -1.9344
 3593TIP3   OH232193   3.010   4.318  12.367  0.1758 -0.6612 -0.0604
 3593TIP3    H132194   2.952   4.313  12.443 -0.2907 -1.5740 -0.4768
 3593TIP3    H232195   3.069   4.391  12.388 -0.3998 -0.4416  0.8578
 3594TIP3   OH232196   6.597   1.834  13.929 -0.0150  0.0107 -0.5945
 3594TIP3    H132197   6.581   1.866  14.017  0.9144 -0.2079 -0.3339
 3594TIP3    H232198   6.589   1.739  13.935 -0.1797  0.0096 -0.7965
 3595TIP3   OH232199   6.581   3.406   3.541 -0.2108 -0.0926  0.4993
 3595TIP3    H132200   6.593   3.466   3.614  2.8123 -2.1291  1.8521
 3595TIP3    H232201   6.636   3.442   3.471  2.2680 -1.5152  1.5827
 3596TIP3   OH232202   3.262   5.126   6.019  0.3741  0.1411  0.1314
 3596TIP3    H132203   3.284   5.154   6.108  0.7068 -0.0858  0.1236
 3596TIP3    H232204   3.203   5.051   6.032  1.2954 -0.5992  0.1836
 3597TIP3   OH232205   1.444   1.004   0.859 -0.1048  0.3104  0.5045
 3597TIP3    H132206   1.385   1.004   0.934  0.1395 -0.4509  0.7079
 3597TIP3    H232207   1.440   0.914   0.826  0.9112  0.2600  0.5023
 3598TIP3   OH232208   0.102   5.598  12.699  0.1846  0.3790  0.6330
 3598TIP3    H132209   0.182   5.615  12.649 -0.2722  0.9731  0.0842
 3598TIP3    H232210   0.090   5.677  12.752  0.7952 -0.3415  1.8930
 3599TIP3   OH232211   0.501   6.408  16.368 -0.5170  0.1408  0.4100
 3599TIP3    H132212   0.409   6.381  16.376 -1.3864  2.5147 -0.5292
 3599TIP3    H232213   0.499   6.480  16.305  2.0712  0.0318  0.1046
 3600TIP3   OH232214   0.615   0.561  12.172  0.4030  0.4683 -0.8399
 3600TIP3    H132215   0.691   0.589  12.120  2.1825 -1.3587  0.6305
 3600TIP3    H232216   0.598   0.472  12.142  0.5878 -0.1120  0.7208
 3601TIP3   OH232217   3.912   2.294  16.473  0.5020  0.2675 -0.4419
 3601TIP3    H132218   3.855   2.365  16.445  0.6448  0.4310 -0.3160
 3601TIP3    H232219   3.881   2.218  16.424  1.2071  0.6952 -1.6063
 3602TIP3   OH232220   4.344   1.454  15.795 -0.5275 -0.0212 -0.1703
 3602TIP3    H132221   4.248   1.451  15.798 -0.5976  1.5695  2.6139
 3602TIP3    H232222   4.371   1.383  15.853 -0.0329 -0.1373 -0.5461
 3603TIP3   OH232223   6.695   4.903  17.409  0.3445 -0.4572 -0.1307
 3603TIP3    H132224   6.786   4.931  17.413  0.0971  0.3388  0.0659
 3603TIP3    H232225   6.656   4.958  17.342  0.3534 -1.8441 -1.3376
 3604TIP3   OH232226   5.692   4.689   5.096 -0.0400  0.3468 -0.3918
 3604TIP3    H132227   5.683   4.683   5.192  0.2734  0.6886 -0.3392
 3604TIP3    H232228   5.632   4.758   5.070  0.8158  1.1552 -0.2848
 3605TIP3   OH232229   2.984   6.121  13.975  0.4181  0.0136  0.4453
 3605TIP3    H132230   3.049   6.058  13.941  1.1537  0.1809  1.4892
 3605TIP3    H232231   2.902   6.073  13.974  0.9216 -0.8911  0.9757
 3606TIP3   OH232232   1.180   5.373  11.223  0.1664 -0.3507  0.4741
 3606TIP3    H132233   1.275   5.376  11.220  0.1654 -0.5961  0.1740
 3606TIP3    H232234   1.154   5.332  11.140 -0.3188  2.3776 -0.8574
 3607TIP3   OH232235   1.730   4.262   5.983 -0.3442  0.0961  0.3131
 3607TIP3    H132236   1.795   4.327   6.012 -1.0786  0.2581  1.6869
 3607TIP3    H232237   1.681   4.241   6.062  0.4187 -2.8165  0.1105
 3608TIP3   OH232238   6.581   2.247   5.042 -0.6162  0.2999 -0.4647
 3608TIP3    H132239   6.616   2.182   4.981 -2.0584 -1.2502  0.2650
 3608TIP3    H232240   6.592   2.207   5.128  0.3222  1.9400  0.2127
 3609TIP3   OH232241   0.619   0.422   4.023 -0.1356  0.1567 -0.5438
 3609TIP3    H132242   0.645   0.331   4.035 -0.5116  0.3810  3.5179
 3609TIP3    H232243   0.695   0.465   3.984  1.7247 -1.1648  1.4103
 3610TIP3   OH232244   3.826   1.129  12.584 -0.4998 -0.7185  0.5580
 3610TIP3    H132245   3.864   1.217  12.586  0.2157 -1.0085 -0.0452
 3610TIP3    H232246   3.777   1.125  12.503  0.0245 -1.0951  0.2502
 3611TIP3   OH232247   3.876   2.261   4.259 -0.1300  0.3124  0.4159
 3611TIP3    H132248   3.926   2.241   4.338 -0.8872 -0.7434  0.6521
 3611TIP3    H232249   3.785   2.265   4.289 -0.6523 -1.8847 -0.6735
 3612TIP3   OH232250   6.267   6.407   0.267  0.4134 -0.0536  0.0739
 3612TIP3    H132251   6.309   6.483   0.308  1.3607 -1.6369  2.2124
 3612TIP3    H232252   6.340   6.350   0.242 -0.2009  0.2663 -2.8078
 3613TIP3   OH232253   4.834   4.465   4.213 -0.1745  0.1256 -0.3627
 3613TIP3    H132254   4.811   4.449   4.305 -1.1669 -0.9405 -0.7581
 3613TIP3    H232255   4.834   4.378   4.173  1.4088  0.4501 -1.1388
 3614TIP3   OH232256   3.480   1.131   3.812 -0.0011 -0.8974  0.2200
 3614TIP3    H132257   3.564   1.151   3.853 -0.0598 -0.5054  0.1555
 3614TIP3    H232258   3.421   1.200   3.843 -0.3402 -1.2595  0.3910
 3615TIP3   OH232259   2.068   5.115  11.873 -0.4562  0.0568 -0.1514
 3615TIP3    H132260   2.092   5.168  11.797 -0.3535 -0.4677 -0.4893
 3615TIP3    H232261   1.974   5.128  11.882 -0.1736  1.6773  0.8366
 3616TIP3   OH232262   1.247   3.663   3.440  0.2476  0.1816 -0.6204
 3616TIP3    H132263   1.176   3.672   3.377 -1.3837  1.1698  1.2449
 3616TIP3    H232264   1.311   3.730   3.414 -2.1950  3.4121  0.8850
 3617TIP3   OH232265   3.728   2.276  16.077  0.5885 -0.1528  0.2785
 3617TIP3    H132266   3.672   2.203  16.052 -0.5930  0.4702  0.9954
 3617TIP3    H232267   3.704   2.346  16.016  1.5797 -0.2816 -0.2838
 3618TIP3   OH232268   2.522   5.456   2.541 -0.4341  0.6711 -0.3804
 3618TIP3    H132269   2.605   5.487   2.505  0.2130  0.8369  1.1785
 3618TIP3    H232270   2.515   5.499   2.626 -1.8642  0.2260 -0.2385
 3619TIP3   OH232271   4.828   5.724   1.356  0.0640 -0.2939  0.8854
 3619TIP3    H132272   4.775   5.646   1.339 -0.8508  0.3193  0.8541
 3619TIP3    H232273   4.818   5.738   1.451 -0.2450  0.1132  0.7940
 3620TIP3   OH232274   3.748   6.496   0.542  0.5501  0.0998 -0.0152
 3620TIP3    H132275   3.729   6.490   0.449  2.2774  1.0058 -0.4787
 3620TIP3    H232276   3.679   6.552   0.578  0.4096  0.5421 -0.9455
 3621TIP3   OH232277   1.227   1.371   1.698 -0.6798  0.1341  0.0562
 3621TIP3    H132278   1.139   1.394   1.726 -1.1085 -1.6659  0.3323
 3621TIP3    H232279   1.240   1.416   1.615 -1.1062  1.9523  0.9286
 3622TIP3   OH232280   5.596   1.224  13.093 -0.0120 -0.5076  0.2388
 3622TIP3    H132281   5.629   1.173  13.020  0.2537 -1.4575  0.9975
 3622TIP3    H232282   5.669   1.229  13.154 -0.4639 -0.4050  0.7817
 3623TIP3   OH232283   2.619   5.860  11.581 -0.3482  0.0556 -0.0151
 3623TIP3    H132284   2.527   5.833  11.585  0.4128 -2.9148  0.1725
 3623TIP3    H232285   2.632   5.914  11.658 -1.2696 -2.0453  1.7167
 3624TIP3   OH232286   0.959   2.200  15.297 -0.0832 -0.3418  0.2977
 3624TIP3    H132287   0.894   2.242  15.352 -1.6524  0.7137 -2.2035
 3624TIP3    H232288   1.028   2.266  15.286 -0.2261 -0.2024  0.2379
 3625TIP3   OH232289   3.589   4.319   4.442  0.2438 -0.3144  0.0598
 3625TIP3    H132290   3.541   4.297   4.522  3.4782 -1.6577  1.8245
 3625TIP3    H232291   3.655   4.250   4.434  3.7567  2.7881 -0.5051
 3626TIP3   OH232292   6.353   6.353   5.429 -0.2655 -0.0521 -0.3002
 3626TIP3    H132293   6.386   6.443   5.433 -0.3591 -0.0598  1.0593
 3626TIP3    H232294   6.345   6.335   5.336  0.1513  1.2066 -0.6017
 3627TIP3   OH232295   3.443   4.365   4.176 -0.4623 -0.1098 -0.2357
 3627TIP3    H132296   3.497   4.325   4.245  1.3898  0.0439 -1.5011
 3627TIP3    H232297   3.465   4.315   4.098 -1.5846  0.4983 -0.9515
 3628TIP3   OH232298   2.258   0.987  11.438  0.0253  0.4923  0.4430
 3628TIP3    H132299   2.196   0.916  11.424  0.1323  0.2343  1.2252
 3628TIP3    H232300   2.206   1.057  11.475  0.0304  0.6202  0.2119
 3629TIP3   OH232301   5.566   0.912  15.944  0.0338 -0.0147  0.1626
 3629TIP3    H132302   5.618   0.915  16.024 -0.7015 -0.6269  0.6833
 3629TIP3    H232303   5.526   0.825  15.945  0.1532 -0.0911 -0.9643
 3630TIP3   OH232304   3.963   0.848   4.431 -0.7254  0.0066  0.4419
 3630TIP3    H132305   4.051   0.826   4.459 -0.8608 -0.4576  0.5108
 3630TIP3    H232306   3.939   0.778   4.371 -0.9319  0.2950  0.1854
 3631TIP3   OH232307   1.948   6.390  12.669  0.1626  0.2699 -0.9506
 3631TIP3    H132308   2.042   6.392  12.688  0.0207  0.9014 -0.2446
 3631TIP3    H232309   1.909   6.351  12.747 -0.1779  0.1956 -1.1580
 3632TIP3   OH232310   1.698   5.125   3.849 -0.6257 -0.0861 -0.0597
 3632TIP3    H132311   1.780   5.145   3.803 -1.2874 -0.0016 -1.2449
 3632TIP3    H232312   1.701   5.031   3.863  0.9436  0.2416  2.4830
 3633TIP3   OH232313   1.354   5.651  16.159 -0.0944  0.6837  0.0128
 3633TIP3    H132314   1.374   5.673  16.251  1.1386 -2.9135  0.7688
 3633TIP3    H232315   1.402   5.716  16.108  0.7653  1.6453  1.9334
 3634TIP3   OH232316   3.517   5.746  10.760  0.1474 -0.5731 -0.0833
 3634TIP3    H132317   3.499   5.670  10.705 -1.3248 -0.0095 -0.4214
 3634TIP3    H232318   3.557   5.709  10.839 -0.9248 -1.7548 -0.0565
 3635TIP3   OH232319   4.650   4.370   5.312  0.4003 -0.1236 -0.3535
 3635TIP3    H132320   4.617   4.455   5.341  2.7006  0.5074  0.6259
 3635TIP3    H232321   4.641   4.372   5.217 -0.7632  0.6699 -0.2475
 3636TIP3   OH232322   1.220   1.550   2.044  0.8193 -0.1790 -0.1900
 3636TIP3    H132323   1.212   1.637   2.082  0.1055  0.8724 -2.5718
 3636TIP3    H232324   1.314   1.532   2.044  1.1899  1.4866 -1.4301
 3637TIP3   OH232325   1.619   6.374   0.909  0.3713  0.6023  0.0723
 3637TIP3    H132326   1.551   6.309   0.889  1.1919 -0.6043  1.0324
 3637TIP3    H232327   1.652   6.400   0.823 -0.7903  0.6695 -0.3791
 3638TIP3   OH232328   5.548   0.478  17.124  0.0144  0.3987 -0.4472
 3638TIP3    H132329   5.566   0.572  17.129  1.7840  0.2353 -2.3199
 3638TIP3    H232330   5.577   0.453  17.036 -0.5924 -1.8784 -0.0637
 3639TIP3   OH232331   3.510   2.325  15.225 -0.1612  0.3050  0.1033
 3639TIP3    H132332   3.453   2.308  15.150  1.3271 -1.9720 -0.6063
 3639TIP3    H232333   3.549   2.240  15.246 -0.3173  0.9153  3.3296
 3640TIP3   OH232334   6.150   0.770   5.803  0.2290 -0.2002 -0.2489
 3640TIP3    H132335   6.208   0.755   5.727  0.5119 -0.9653  0.1037
 3640TIP3    H232336   6.133   0.682   5.837  1.0059  0.1927  1.2469
 3641TIP3   OH232337   3.159   0.610   2.199 -0.2963 -0.4813  0.4302
 3641TIP3    H132338   3.209   0.535   2.229  0.5835 -0.1018 -0.0465
 3641TIP3    H232339   3.071   0.596   2.234 -0.3580 -2.1156 -0.2803
 3642TIP3   OH232340   4.637   1.386  16.614  0.0488 -0.3449 -0.1217
 3642TIP3    H132341   4.682   1.460  16.653  0.8478 -0.5015 -0.7304
 3642TIP3    H232342   4.544   1.411  16.614  0.3879  0.9775 -1.0080
 3643TIP3   OH232343   4.196   2.968   0.531  0.2034 -0.1636 -0.2724
 3643TIP3    H132344   4.148   2.967   0.448 -0.9757 -2.7431  0.3460
 3643TIP3    H232345   4.273   3.021   0.513 -0.7765  0.6375 -2.5460
 3644TIP3   OH232346   2.291   3.197   2.927  0.6028 -0.6157  0.2546
 3644TIP3    H132347   2.244   3.261   2.873  1.7306  0.1208  0.0986
 3644TIP3    H232348   2.238   3.189   3.006  0.3660  0.4164  0.2155
 3645TIP3   OH232349   6.548   2.519  16.287  0.4472  0.4554 -0.0599
 3645TIP3    H132350   6.534   2.614  16.283  0.1187  0.4024 -0.1905
 3645TIP3    H232351   6.634   2.509  16.327  0.0081  0.7797  0.9850
 3646TIP3   OH232352   0.890   2.012   6.338  0.3241 -0.0398  0.1262
 3646TIP3    H132353   0.936   2.091   6.308 -0.5873 -0.0731 -1.4592
 3646TIP3    H232354   0.928   1.941   6.286 -0.4343 -0.2945 -0.0845
 3647TIP3   OH232355   4.690   0.203   0.209 -0.1086  0.0352  0.2190
 3647TIP3    H132356   4.644   0.127   0.245  0.1533 -0.4864 -0.5282
 3647TIP3    H232357   4.783   0.181   0.215  0.0694  1.0057  1.5390
 3648TIP3   OH232358   2.609   0.790   2.876  0.0598 -0.2597  0.4000
 3648TIP3    H132359   2.547   0.862   2.889  0.3626 -0.1727  1.5412
 3648TIP3    H232360   2.596   0.762   2.786 -0.9971  0.3567  0.3479
 3649TIP3   OH232361   4.891   4.421  11.709 -0.0932 -0.1837  0.2444
 3649TIP3    H132362   4.879   4.442  11.617 -0.3295 -0.2980  0.2471
 3649TIP3    H232363   4.985   4.408  11.719  0.0102  0.5227  0.1739
 3650TIP3   OH232364   3.945   1.608  14.262 -0.1222 -0.2053 -1.0963
 3650TIP3    H132365   3.930   1.681  14.202 -1.6140 -0.1874 -0.7329
 3650TIP3    H232366   3.862   1.561  14.264  0.0109 -0.4272  0.6723
 3651TIP3   OH232367   3.791   0.447   5.246 -0.0338  0.0861 -0.2335
 3651TIP3    H132368   3.746   0.388   5.186 -0.4360 -0.4200  0.5443
 3651TIP3    H232369   3.745   0.531   5.237 -1.1070 -0.3976  0.4822
 3652TIP3   OH232370   5.932   1.828  10.806  0.1336  0.0746 -0.3089
 3652TIP3    H132371   6.022   1.832  10.838  0.3767 -3.0301 -0.3099
 3652TIP3    H232372   5.884   1.779  10.874 -1.5033  1.3764 -0.4600
 3653TIP3   OH232373   3.738   5.061  16.612  0.1318 -0.0067  0.1788
 3653TIP3    H132374   3.752   5.140  16.664 -0.5599 -0.6353  1.3542
 3653TIP3    H232375   3.826   5.033  16.586  0.4396  0.6646  0.4782
 3654TIP3   OH232376   0.588   4.884  11.463 -1.0870 -0.0223  0.4311
 3654TIP3    H132377   0.522   4.819  11.440 -1.3462  0.4584 -0.2232
 3654TIP3    H232378   0.664   4.833  11.489 -1.4200 -0.5826  0.3172
 3655TIP3   OH232379   1.331   3.544  13.196 -0.9589  0.2197 -0.2487
 3655TIP3    H132380   1.409   3.577  13.153 -0.4353  0.7005  1.0141
 3655TIP3    H232381   1.338   3.449  13.191 -0.0126  0.2481  0.3045
 3656TIP3   OH232382   4.382   5.524   0.530 -0.0081 -0.4124  0.5347
 3656TIP3    H132383   4.340   5.441   0.506  1.4221 -0.2882 -2.9474
 3656TIP3    H232384   4.310   5.588   0.530 -0.7084 -1.1783  0.5753
 3657TIP3   OH232385   3.877   0.694  11.124  0.4402  0.7522  0.5937
 3657TIP3    H132386   3.865   0.601  11.102 -0.1136  0.3557  2.3879
 3657TIP3    H232387   3.814   0.740  11.068 -1.2308 -0.2298  1.5887
 3658TIP3   OH232388   6.235   1.922   3.071 -0.3727 -0.1295 -0.5345
 3658TIP3    H132389   6.171   1.925   2.999  0.1781 -1.2033 -1.0885
 3658TIP3    H232390   6.304   1.984   3.044  0.8200 -1.9664 -1.9475
 3659TIP3   OH232391   6.634   3.077  13.696 -0.1753 -0.8421 -0.3670
 3659TIP3    H132392   6.681   3.045  13.619  0.7782 -2.2936  0.7668
 3659TIP3    H232393   6.546   3.043  13.686  0.0935 -1.5043 -0.5405
 3660TIP3   OH232394   1.986   0.174   2.169  0.5234 -0.2199 -0.1110
 3660TIP3    H132395   2.081   0.176   2.155  0.3495  1.7729 -1.3891
 3660TIP3    H232396   1.974   0.205   2.258  1.0830 -1.4375  0.4170
 3661TIP3   OH232397   1.799   5.098  11.946  0.4328  0.3138 -0.1215
 3661TIP3    H132398   1.776   5.190  11.933 -0.9285 -0.2077 -1.8372
 3661TIP3    H232399   1.718   5.050  11.928  1.2382 -1.2652  0.2207
 3662TIP3   OH232400   4.334   3.436   2.675  0.0751  0.3926  0.0152
 3662TIP3    H132401   4.380   3.505   2.723 -0.5881  0.2057  0.9338
 3662TIP3    H232402   4.402   3.369   2.660  0.1193  0.0923  1.4167
 3663TIP3   OH232403   1.898   3.204   5.900  0.2055 -0.1433 -0.0329
 3663TIP3    H132404   1.916   3.249   5.982  0.6414  1.0422 -0.7573
 3663TIP3    H232405   1.802   3.200   5.895  0.1770 -0.6556  0.7391
 3664TIP3   OH232406   4.511   6.079  12.132 -0.3918  0.1164  0.1095
 3664TIP3    H132407   4.437   6.066  12.192  0.3149 -0.3923  0.9048
 3664TIP3    H232408   4.579   6.117  12.187  0.6724 -1.4444 -0.0507
 3665TIP3   OH232409   2.712   1.582  11.838 -0.3009 -0.4611 -0.1034
 3665TIP3    H132410   2.665   1.634  11.903  0.4229 -0.9613  0.8557
 3665TIP3    H232411   2.646   1.520  11.805 -0.7614  0.0179 -0.0965
 3666TIP3   OH232412   4.761   4.596  13.744 -0.1236 -0.5318 -0.1620
 3666TIP3    H132413   4.856   4.595  13.761  0.0310  0.9705 -0.7856
 3666TIP3    H232414   4.725   4.535  13.807  1.2865 -1.2505 -0.0153
 3667TIP3   OH232415   0.910   3.901   3.057 -0.3078 -0.0709 -0.9410
 3667TIP3    H132416   0.868   3.975   3.101 -1.5877 -1.0741 -0.4170
 3667TIP3    H232417   0.880   3.907   2.966 -0.5445 -0.0330 -0.8615
 3668TIP3   OH232418   0.714   3.284  12.031 -0.2261  0.1367 -0.0883
 3668TIP3    H132419   0.788   3.339  12.059  0.1504 -0.3319 -0.1426
 3668TIP3    H232420   0.685   3.241  12.111  0.5073 -0.7973 -0.3144
 3669TIP3   OH232421   5.080   3.019  11.947 -0.6296 -0.1023 -0.2981
 3669TIP3    H132422   5.044   3.021  12.036  1.8381  0.1726  0.7634
 3669TIP3    H232423   5.109   3.109  11.932  0.6042 -0.5329 -0.6333
 3670TIP3   OH232424   5.992   3.835   4.615 -0.0488 -0.1190 -0.6834
 3670TIP3    H132425   6.025   3.925   4.624  2.3558 -0.8021 -1.9497
 3670TIP3    H232426   6.058   3.781   4.657 -1.2901 -1.3611 -0.2617
 3671TIP3   OH232427   3.780   6.410  15.284 -0.5175  0.3098 -0.7833
 3671TIP3    H132428   3.698   6.436  15.327 -1.1655 -2.6434 -0.0164
 3671TIP3    H232429   3.846   6.414  15.353 -0.7639 -0.7350 -0.4820
 3672TIP3   OH232430   4.851   1.822   4.754 -0.2036  0.6323 -0.1206
 3672TIP3    H132431   4.817   1.826   4.843 -1.1979 -0.4221 -0.4263
 3672TIP3    H232432   4.837   1.910   4.719  1.4403  1.4554  1.1687
 3673TIP3   OH232433   1.451   3.787  11.239 -0.1100  0.2202  0.0349
 3673TIP3    H132434   1.519   3.854  11.247  0.2948 -0.1881  0.0331
 3673TIP3    H232435   1.499   3.705  11.232 -0.5558  0.0519 -1.4232
 3674TIP3   OH232436   0.074   5.153   5.249  0.3108  0.4938  0.1624
 3674TIP3    H132437   0.116   5.135   5.334 -0.2367 -1.0577  0.1204
 3674TIP3    H232438  -0.016   5.174   5.272  0.0019 -0.5517 -0.0729
 3675TIP3   OH232439   0.226   2.877   4.045 -0.3040  0.1551  0.1902
 3675TIP3    H132440   0.297   2.815   4.028  0.2033  1.0858 -1.2542
 3675TIP3    H232441   0.147   2.833   4.013 -0.0652 -0.0526 -0.1169
 3676TIP3   OH232442   5.187   1.884   4.888 -0.1886 -0.3352 -0.2557
 3676TIP3    H132443   5.155   1.972   4.907 -0.7080 -0.2660 -1.3422
 3676TIP3    H232444   5.206   1.885   4.794  2.3268 -0.6030  0.1713
 3677TIP3   OH232445   5.225   2.223  10.982  0.2764  0.3181 -0.4111
 3677TIP3    H132446   5.161   2.263  10.923  0.7220  0.5021 -0.7720
 3677TIP3    H232447   5.293   2.290  10.993  0.1013  0.3696  0.4745
 3678TIP3   OH232448   2.779   2.981  12.480  0.4093 -0.5641 -0.2112
 3678TIP3    H132449   2.757   3.026  12.561 -1.3756 -1.9146  0.1012
 3678TIP3    H232450   2.855   2.928  12.502  1.1181  0.5174  0.0258
 3679TIP3   OH232451   0.862   1.170   3.378 -0.2394  0.3413 -0.6715
 3679TIP3    H132452   0.826   1.256   3.357 -1.3098  0.3637  1.0924
 3679TIP3    H232453   0.925   1.187   3.448  0.0579 -0.2331 -0.7931
 3680TIP3   OH232454   3.372   5.497   2.735 -0.2882 -0.0234 -0.3822
 3680TIP3    H132455   3.298   5.553   2.711 -0.7151  0.0945  1.0985
 3680TIP3    H232456   3.443   5.558   2.754 -0.3487 -0.0495 -0.0726
 3681TIP3   OH232457   5.379   3.052  13.809 -0.0145 -0.4391  0.0609
 3681TIP3    H132458   5.427   3.090  13.735 -0.9678 -0.6320 -0.6832
 3681TIP3    H232459   5.345   3.127  13.857 -0.6491 -0.3085 -0.5661
 3682TIP3   OH232460   4.994   1.544   2.893  0.1264 -0.2384 -0.0090
 3682TIP3    H132461   5.015   1.502   2.976 -2.6675  0.9946  1.4765
 3682TIP3    H232462   5.033   1.632   2.900 -0.6133  0.0785  0.3232
 3683TIP3   OH232463   5.016   2.668  15.507  0.2661 -0.1321  0.2542
 3683TIP3    H132464   4.927   2.672  15.540  0.3460  0.6414  0.3922
 3683TIP3    H232465   5.071   2.685  15.583  0.5011  0.1388  0.0283
 3684TIP3   OH232466   6.666   5.437  16.035 -0.1496  0.5535  0.3702
 3684TIP3    H132467   6.733   5.390  16.084 -0.1790 -0.2061 -0.3005
 3684TIP3    H232468   6.609   5.476  16.103 -1.1185 -1.7819  0.9834
 3685TIP3   OH232469   6.178   4.665  14.309  0.3025 -0.3723  0.0150
 3685TIP3    H132470   6.169   4.608  14.233 -0.2580  1.7302 -1.5844
 3685TIP3    H232471   6.239   4.733  14.281  1.9846 -0.7942  2.3039
 3686TIP3   OH232472   2.351   6.561  17.403 -0.6839  0.2945  0.0121
 3686TIP3    H132473   2.403   6.493  17.446 -1.3041  1.2556  2.4845
 3686TIP3    H232474   2.414   6.629  17.381 -0.7392  1.3762  2.8297
 3687TIP3   OH232475   6.189   2.154  12.854  0.1109 -0.6504  0.0800
 3687TIP3    H132476   6.093   2.148  12.855 -0.0832  1.4448 -1.3877
 3687TIP3    H232477   6.217   2.087  12.792 -0.5984  0.3264 -1.3352
 3688TIP3   OH232478   5.543   4.400   0.203  0.0350 -0.0189  0.1711
 3688TIP3    H132479   5.476   4.421   0.137  1.1533  0.6356 -0.8002
 3688TIP3    H232480   5.587   4.483   0.220  0.4066 -0.3827  1.0158
 3689TIP3   OH232481   3.525   0.412   0.488 -0.3429 -0.0338 -0.2914
 3689TIP3    H132482   3.618   0.426   0.505 -0.3123 -0.1717 -0.3430
 3689TIP3    H232483   3.488   0.387   0.573 -0.4119  0.4273 -0.1827
 3690TIP3   OH232484   6.532   5.738  15.468 -0.3715 -0.3490  0.0469
 3690TIP3    H132485   6.491   5.687  15.538 -1.4417  1.0118  0.4494
 3690TIP3    H232486   6.591   5.797  15.514 -0.7144  0.2187 -0.2395
 3691TIP3   OH232487   1.850   1.324   1.031  0.3013  0.7657  0.0020
 3691TIP3    H132488   1.881   1.378   0.958  0.3008  0.7901  0.0200
 3691TIP3    H232489   1.810   1.248   0.989 -2.3054  2.0959 -0.1412
 3692TIP3   OH232490   5.448   5.984   5.426  0.1605  0.0788  0.3283
 3692TIP3    H132491   5.377   6.017   5.482  0.0661  0.6307 -0.1011
 3692TIP3    H232492   5.404   5.923   5.366  0.1775 -0.1432  0.5413
 3693TIP3   OH232493   4.863   5.306   0.482  0.2977  0.2193 -0.1129
 3693TIP3    H132494   4.850   5.393   0.443 -1.4145  0.7992  1.5967
 3693TIP3    H232495   4.917   5.322   0.559  2.4079 -0.7174 -1.2944
 3694TIP3   OH232496   1.338   0.826   6.278  0.1875  0.2074  0.5492
 3694TIP3    H132497   1.405   0.873   6.328  0.7863 -0.3188  0.2523
 3694TIP3    H232498   1.353   0.734   6.299  1.4043 -0.1790 -1.7126
 3695TIP3   OH232499   4.802   0.726  15.653  0.9803  0.2821  0.4761
 3695TIP3    H132500   4.855   0.795  15.693 -1.3310  1.5045  1.6432
 3695TIP3    H232501   4.819   0.735  15.559  2.5671  0.8142  0.7862
 3696TIP3   OH232502   4.655   1.472  12.293 -0.1481  0.8990 -0.1248
 3696TIP3    H132503   4.644   1.381  12.264 -1.5716  1.1779 -0.5114
 3696TIP3    H232504   4.611   1.524  12.226  0.3551  1.8608  0.2797
 3697TIP3   OH232505   2.069   2.164  12.351  0.5198  0.0973 -0.0836
 3697TIP3    H132506   2.025   2.222  12.413 -0.4899  0.1822 -0.8485
 3697TIP3    H232507   1.997   2.119  12.305  1.2336 -2.7687  1.3483
 3698TIP3   OH232508   2.542   2.970  13.927 -0.1070  0.1868  0.5452
 3698TIP3    H132509   2.569   3.051  13.882  0.1010 -0.1141  0.1227
 3698TIP3    H232510   2.624   2.935  13.963 -0.1756  0.0883  0.6058
 3699TIP3   OH232511   0.441   3.026   4.094 -0.4442 -0.1954 -0.5797
 3699TIP3    H132512   0.491   2.970   4.035 -0.2877  1.0460 -1.6916
 3699TIP3    H232513   0.357   2.982   4.104 -0.3089 -0.6556 -1.3899
 3700TIP3   OH232514   2.100   5.265   1.601  0.1187  0.4894  0.3375
 3700TIP3    H132515   2.063   5.335   1.546  0.7500  0.4134 -0.2004
 3700TIP3    H232516   2.088   5.296   1.690  2.6802  2.5345  0.1011
 3701TIP3   OH232517   3.534   6.582   3.417 -0.6362 -0.4243 -0.3378
 3701TIP3    H132518   3.570   6.518   3.478  0.4856  0.1411 -0.3719
 3701TIP3    H232519   3.596   6.655   3.421 -0.8353 -0.1546 -1.7460
 3702TIP3   OH232520   1.968   4.166   1.592 -0.0162 -0.5125 -1.0296
 3702TIP3    H132521   1.889   4.153   1.540 -0.7624 -0.7206  0.1250
 3702TIP3    H232522   2.033   4.107   1.553 -0.9306 -1.5911 -0.9562
 3703TIP3   OH232523   4.014   1.828  13.847 -0.2432 -0.1378  0.1266
 3703TIP3    H132524   4.085   1.873  13.802 -0.4592  1.2255  1.0911
 3703TIP3    H232525   3.936   1.847  13.794 -0.7200  2.4847  1.6005
 3704TIP3   OH232526   0.607   4.529  17.071 -0.4628  0.1657  0.0687
 3704TIP3    H132527   0.530   4.571  17.033  0.8552  3.1531  0.3690
 3704TIP3    H232528   0.572   4.469  17.137 -2.5491  0.1106 -1.0008
 3705TIP3   OH232529   4.178   2.498   1.597 -0.2412  0.4171  0.5658
 3705TIP3    H132530   4.237   2.430   1.630 -1.8398 -0.8922  0.8607
 3705TIP3    H232531   4.208   2.578   1.639  0.8391 -0.3434  1.2963
 3706TIP3   OH232532   3.138   1.020  16.970 -0.1036  0.3190  0.6776
 3706TIP3    H132533   3.137   0.958  16.897 -0.2487  1.2932 -0.1603
 3706TIP3    H232534   3.145   1.106  16.929  0.7078  0.8312  1.8530
 3707TIP3   OH232535   4.065   6.538   4.668  0.2519 -0.2694  0.1507
 3707TIP3    H132536   4.017   6.621   4.674  1.9842  0.8128 -0.1668
 3707TIP3    H232537   4.071   6.506   4.758 -0.8580 -0.3377  0.2178
 3708TIP3   OH232538   1.881   4.855  15.820 -0.0865  0.0408  0.0531
 3708TIP3    H132539   1.873   4.762  15.798  0.1356  0.0834 -0.2124
 3708TIP3    H232540   1.916   4.856  15.909 -3.5368 -0.1667  1.5534
 3709TIP3   OH232541   4.910   0.533  13.709  0.4576  0.6152  0.1322
 3709TIP3    H132542   4.970   0.464  13.680 -0.3333 -0.4562  0.9391
 3709TIP3    H232543   4.961   0.613  13.703  2.0379 -0.2812  0.9244
 3710TIP3   OH232544   1.447   1.926  16.801 -0.1624 -0.0266  0.3079
 3710TIP3    H132545   1.515   1.989  16.822  0.7184 -1.0532  0.5883
 3710TIP3    H232546   1.488   1.866  16.739 -1.0081 -0.3046 -0.0034
 3711TIP3   OH232547   5.953   3.548  11.346  0.3285  0.1171 -0.3335
 3711TIP3    H132548   5.881   3.499  11.306  0.0286  0.5710 -0.3444
 3711TIP3    H232549   5.988   3.488  11.413  0.8421 -0.6524 -1.2605
 3712TIP3   OH232550   1.756   6.103  11.456  0.4568 -0.0783 -0.0790
 3712TIP3    H132551   1.736   6.196  11.461  2.2101  0.3830 -0.9389
 3712TIP3    H232552   1.785   6.089  11.365  0.9757 -1.2819  0.2458
 3713TIP3   OH232553   0.056   5.611   2.497  0.5681 -0.2610  0.8327
 3713TIP3    H132554   0.072   5.673   2.568  1.2974 -1.9605  2.2230
 3713TIP3    H232555   0.068   5.525   2.537  0.8640 -1.2945 -1.3259
 3714TIP3   OH232556   1.572   5.927  13.706  0.3279 -0.0089 -0.1495
 3714TIP3    H132557   1.505   5.995  13.704  0.6530  0.3028 -1.3955
 3714TIP3    H232558   1.531   5.853  13.751 -0.3055  0.7288  0.4912
 3715TIP3   OH232559   6.077   0.362  17.219  0.4461  0.9190 -0.1913
 3715TIP3    H132560   6.008   0.325  17.164  0.4888 -0.7958  0.8272
 3715TIP3    H232561   6.062   0.323  17.305  1.5805  1.9707  0.5140
 3716TIP3   OH232562   2.825   4.997  11.884 -0.1397 -0.1767 -0.7135
 3716TIP3    H132563   2.808   4.987  11.791 -0.8072 -0.3759 -0.5781
 3716TIP3    H232564   2.817   4.908  11.920 -0.0422 -0.0785 -0.4398
 3717TIP3   OH232565   4.014   4.258   4.373 -0.0859  0.2199  0.0045
 3717TIP3    H132566   4.082   4.324   4.377  0.2620  0.1089 -2.4866
 3717TIP3    H232567   3.969   4.274   4.290 -1.0539 -1.6537  0.1005
 3718TIP3   OH232568   5.278   5.512  13.294 -0.2283  0.3819 -0.3432
 3718TIP3    H132569   5.222   5.547  13.363  1.9224  0.1975  1.6359
 3718TIP3    H232570   5.243   5.548  13.213 -2.2744  1.4120  0.9261
 3719TIP3   OH232571   0.406   0.097  12.593 -0.6519 -0.2482  0.8778
 3719TIP3    H132572   0.465   0.021  12.589 -1.6839 -1.1071 -4.5377
 3719TIP3    H232573   0.462   0.172  12.571 -0.7991 -0.4831 -0.3509
 3720TIP3   OH232574   2.857   4.107  17.296 -0.8427  0.6130 -0.6810
 3720TIP3    H132575   2.946   4.137  17.277  0.9148 -3.3676  0.0475
 3720TIP3    H232576   2.850   4.109  17.391 -0.5305 -1.2358 -0.5737
 3721TIP3   OH232577   0.924   3.333   1.700 -0.5799  0.3769  0.4760
 3721TIP3    H132578   0.950   3.259   1.645  1.9159  0.3294  1.6050
 3721TIP3    H232579   1.002   3.387   1.707 -1.5251  1.6286  2.0454
 3722TIP3   OH232580   0.189   2.573   2.731  0.8765 -0.2248 -0.0665
 3722TIP3    H132581   0.098   2.544   2.724  0.5639  0.1518  1.8195
 3722TIP3    H232582   0.223   2.569   2.642 -1.3580  0.8396 -1.0338
 3723TIP3   OH232583   1.841   3.957  16.008  0.3301 -0.0150 -0.1731
 3723TIP3    H132584   1.754   3.988  16.031  0.4857  0.6265 -0.4339
 3723TIP3    H232585   1.853   3.877  16.060 -0.9529 -0.8764 -1.1639
 3724TIP3   OH232586   3.821   3.002  16.587  0.5330  0.0876  0.2351
 3724TIP3    H132587   3.879   2.931  16.561 -1.7961 -1.6247 -0.6586
 3724TIP3    H232588   3.774   2.968  16.663  0.7261  1.4509  0.9902
 3725TIP3   OH232589   4.688   6.316   5.105  0.2914  0.1410 -0.0533
 3725TIP3    H132590   4.673   6.327   5.199 -0.3442 -0.7744 -0.0383
 3725TIP3    H232591   4.623   6.372   5.064  0.5980  0.5761  0.0409
 3726TIP3   OH232592   4.092   6.150   0.022 -0.2475 -0.2519 -0.1009
 3726TIP3    H132593   4.040   6.178  -0.053 -0.8208  0.3686  0.5090
 3726TIP3    H232594   4.169   6.206   0.020 -0.6178  0.2818  0.1861
 3727TIP3   OH232595   5.488   2.172  14.990  0.0793  0.1726 -0.0112
 3727TIP3    H132596   5.449   2.248  14.946 -1.6056  0.4933  1.8723
 3727TIP3    H232597   5.437   2.098  14.958  2.8451 -0.6015 -3.2214
 3728TIP3   OH232598   1.077   6.207  12.995 -0.2945 -0.1044 -0.1967
 3728TIP3    H132599   1.078   6.280  13.057 -1.3907 -1.5545  1.6291
 3728TIP3    H232600   1.112   6.133  13.045  0.0072 -1.0316 -1.7344
 3729TIP3   OH232601   3.694   3.122   5.851  0.1564  0.3948  0.2061
 3729TIP3    H132602   3.705   3.122   5.756  1.2210  1.3395  0.3038
 3729TIP3    H232603   3.718   3.034   5.879 -0.2888  0.0750 -0.4145
 3730TIP3   OH232604   1.204   1.312   5.678  0.0456 -0.1918 -0.0355
 3730TIP3    H132605   1.259   1.316   5.757  1.6969 -1.1083 -1.0783
 3730TIP3    H232606   1.116   1.333   5.709  0.5997 -0.7567  2.0899
 3731TIP3   OH232607   4.664   4.277  14.831  0.2043  0.5591  0.3544
 3731TIP3    H132608   4.673   4.263  14.926 -0.3009 -0.9257  0.2054
 3731TIP3    H232609   4.609   4.204  14.801 -0.2119  1.3976 -0.9827
 3732TIP3   OH232610   2.648   4.215   4.758 -0.6459  0.1072 -0.4164
 3732TIP3    H132611   2.738   4.230   4.730 -0.2276  1.7104  1.5998
 3732TIP3    H232612   2.654   4.196   4.852 -2.3088 -1.0955 -0.4991
 3733TIP3   OH232613   5.531   2.347   2.508  0.4438  0.2296  0.9066
 3733TIP3    H132614   5.489   2.399   2.576  0.1629 -0.1716  1.0453
 3733TIP3    H232615   5.461   2.291   2.474  0.1183  1.6636 -0.9802
 3734TIP3   OH232616   3.169   2.523  13.597 -0.1901  0.3004  0.0383
 3734TIP3    H132617   3.124   2.566  13.524  0.3893  0.7460 -0.0606
 3734TIP3    H232618   3.175   2.591  13.664 -1.2594 -0.2783  0.7480
 3735TIP3   OH232619   2.197   5.804  14.195 -0.4028 -0.7182  0.4084
 3735TIP3    H132620   2.160   5.793  14.108  1.6497  2.0124 -0.9871
 3735TIP3    H232621   2.154   5.882  14.231 -0.6869 -1.3722  1.5582
 3736TIP3   OH232622   2.312   5.195   6.016  0.1096 -0.0946  0.2623
 3736TIP3    H132623   2.237   5.144   5.988 -1.7207  1.8967  1.2676
 3736TIP3    H232624   2.344   5.152   6.095 -0.0533 -0.8650 -0.0864
 3737TIP3   OH232625   3.350   2.244  15.024 -0.0061  0.0215  0.3615
 3737TIP3    H132626   3.285   2.175  15.023  1.3874 -1.3642  0.9074
 3737TIP3    H232627   3.404   2.227  14.946 -0.2838  1.1519 -0.0957
 3738TIP3   OH232628   3.696   3.703  13.513 -0.5178  0.1777 -0.0758
 3738TIP3    H132629   3.722   3.757  13.438  0.0658  1.0806  0.7510
 3738TIP3    H232630   3.765   3.637  13.520 -1.1396 -0.6110 -0.9775
 3739TIP3   OH232631   5.884   3.456   5.790 -0.3651  0.1751  0.2019
 3739TIP3    H132632   5.919   3.532   5.837 -0.2750  0.4324 -0.2790
 3739TIP3    H232633   5.945   3.444   5.717  2.0158 -2.7620  2.3919
 3740TIP3   OH232634   6.741   0.516   1.855 -0.3997  0.2634  0.3186
 3740TIP3    H132635   6.790   0.584   1.901  0.4289  0.7153 -1.1873
 3740TIP3    H232636   6.785   0.507   1.771  0.1032 -2.7910  0.7726
 3741TIP3   OH232637   5.623   1.667   3.676  0.2860 -0.2616  0.1896
 3741TIP3    H132638   5.631   1.601   3.745 -0.3956 -2.4942 -1.7262
 3741TIP3    H232639   5.657   1.624   3.597  0.4278  1.9383 -1.0509
 3742TIP3   OH232640   5.320   5.399  12.167 -0.1397  0.0545  0.6661
 3742TIP3    H132641   5.314   5.440  12.254  1.4605 -2.4103  2.0818
 3742TIP3    H232642   5.407   5.425  12.136  1.1529 -2.5065  1.8506
 3743TIP3   OH232643   3.084   0.809  16.771  0.1744  0.5881  0.2054
 3743TIP3    H132644   3.144   0.735  16.766 -0.5044 -0.2157  2.7106
 3743TIP3    H232645   3.087   0.848  16.684  1.0396 -1.9738 -1.0072
 3744TIP3   OH232646   0.922   3.720   0.775  0.1634 -0.3160  0.1779
 3744TIP3    H132647   0.915   3.655   0.845 -2.8956  2.4225  2.7312
 3744TIP3    H232648   0.962   3.796   0.817  0.4251  0.6684 -1.7392
 3745TIP3   OH232649   2.479   1.692   4.929 -0.3205  0.5505 -0.3108
 3745TIP3    H132650   2.486   1.702   4.834 -0.4927  0.2958 -0.3497
 3745TIP3    H232651   2.386   1.681   4.945 -0.0610 -3.1354 -0.4873
 3746TIP3   OH232652   1.173   6.715   5.724  0.1319  0.1491 -0.0057
 3746TIP3    H132653   1.108   6.767   5.677  1.3196  1.3420 -0.3952
 3746TIP3    H232654   1.124   6.674   5.795 -1.1406  0.5784 -0.6102
 3747TIP3   OH232655   4.545   3.863  12.848 -0.0584  0.2560  0.1733
 3747TIP3    H132656   4.636   3.892  12.846 -0.0989  0.4094  0.4932
 3747TIP3    H232657   4.550   3.770  12.869  0.0468  0.1522 -0.3104
 3748TIP3   OH232658   3.946   4.616   4.255  0.4518 -0.4756 -0.2417
 3748TIP3    H132659   3.937   4.568   4.338 -0.2765 -0.3886 -0.2642
 3748TIP3    H232660   4.035   4.652   4.257  0.7678 -1.2467  0.0874
 3749TIP3   OH232661   2.372   2.879  16.209  0.5318 -0.2551  0.8942
 3749TIP3    H132662   2.311   2.833  16.267 -1.1222  0.5152 -0.1502
 3749TIP3    H232663   2.376   2.825  16.131 -1.1537  1.0635 -0.2010
 3750TIP3   OH232664   0.552   2.542  17.105  0.0010  0.1893 -0.0203
 3750TIP3    H132665   0.481   2.498  17.059 -1.9070  0.6493  2.2607
 3750TIP3    H232666   0.609   2.471  17.134 -0.2668 -0.3204 -0.7193
 3751TIP3   OH232667   1.435   3.451   3.296 -0.1196 -0.3365 -0.5165
 3751TIP3    H132668   1.433   3.520   3.229 -1.5103  0.1784  0.0347
 3751TIP3    H232669   1.345   3.445   3.328  0.7867  0.6534  2.5583
 3752TIP3   OH232670   1.249   4.989  16.140  0.0011  0.2068 -0.6381
 3752TIP3    H132671   1.245   4.926  16.068 -0.4385 -0.4238 -0.0695
 3752TIP3    H232672   1.167   5.039  16.131  0.6182  1.1096 -1.4440
 3753TIP3   OH232673   0.351   6.337   5.492  0.3202 -0.4766 -0.1770
 3753TIP3    H132674   0.367   6.432   5.488  0.9306 -0.5540  0.4123
 3753TIP3    H232675   0.284   6.322   5.425 -2.8664  1.0162  2.4181
 3754TIP3   OH232676   0.379   2.423   6.212  0.3190 -0.0396 -0.3900
 3754TIP3    H132677   0.332   2.431   6.129  0.5665  1.4404 -0.4137
 3754TIP3    H232678   0.311   2.399   6.275 -0.3359  1.1394 -0.6034
 3755TIP3   OH232679   5.229   4.039  16.428  0.0619 -0.1792  0.2720
 3755TIP3    H132680   5.134   4.040  16.415  0.1772 -0.8877 -0.7320
 3755TIP3    H232681   5.240   4.001  16.516 -0.5524 -1.4585 -0.1740
 3756TIP3   OH232682   4.718   5.850  14.784  0.0581 -0.4351  0.4344
 3756TIP3    H132683   4.678   5.808  14.707 -1.5712 -1.1660  1.6183
 3756TIP3    H232684   4.797   5.799  14.800 -0.4494 -1.3390  0.1862
 3757TIP3   OH232685   2.509   1.434  11.683  0.7353 -0.0406  0.2203
 3757TIP3    H132686   2.571   1.389  11.626  2.4012 -0.9267  2.6018
 3757TIP3    H232687   2.424   1.424  11.640  2.1198  1.0428 -3.0580
 3758TIP3   OH232688   4.761   1.537   5.167 -0.2665 -0.6763  0.1712
 3758TIP3    H132689   4.824   1.465   5.176 -0.4871 -0.6469  2.7846
 3758TIP3    H232690   4.677   1.494   5.150 -0.1971 -0.9814  0.5777
 3759TIP3   OH232691   2.530   1.721   0.596 -0.0102  0.1142 -0.6912
 3759TIP3    H132692   2.485   1.677   0.668 -0.4360  1.0875 -0.3528
 3759TIP3    H232693   2.622   1.700   0.609  0.3157  2.5385  1.8175
 3760TIP3   OH232694   6.729   3.070   6.687  0.0464  0.2097  0.5736
 3760TIP3    H132695   6.702   3.097   6.599 -1.2454 -1.1569  0.5014
 3760TIP3    H232696   6.654   3.089   6.743 -0.4708 -1.9934  0.7199
 3761TIP3   OH232697   3.166   1.521  15.847 -0.3411  0.0028  0.0428
 3761TIP3    H132698   3.108   1.587  15.810  0.4540 -0.4181 -2.1680
 3761TIP3    H232699   3.143   1.441  15.799 -1.7160 -1.5659  3.0752
 3762TIP3   OH232700   3.250   0.591  16.775  0.7003 -0.0194 -0.3860
 3762TIP3    H132701   3.345   0.585  16.777  0.8266  1.4806 -0.8395
 3762TIP3    H232702   3.223   0.572  16.865  1.4325 -0.3735 -0.2355
 3763TIP3   OH232703   5.529   1.742   4.198  0.5046  0.0019  0.2229
 3763TIP3    H132704   5.444   1.706   4.225  0.4974 -0.0271  0.1615
 3763TIP3    H232705   5.578   1.667   4.166  0.2199  0.1518 -0.6050
 3764TIP3   OH232706   0.347   6.553   5.091 -0.1453 -0.1211 -0.2972
 3764TIP3    H132707   0.279   6.505   5.139 -0.3614 -0.1310 -0.6019
 3764TIP3    H232708   0.303   6.633   5.061  0.2544  0.3449  0.3342
 3765TIP3   OH232709   2.960   2.753  11.972 -0.2372 -0.5851 -0.4125
 3765TIP3    H132710   2.913   2.706  12.040 -1.3572  1.4011  0.2727
 3765TIP3    H232711   2.898   2.819  11.941  0.8361 -0.3437 -2.1743
 3766TIP3   OH232712   3.207   5.929   2.542 -0.0662  0.2758  0.2169
 3766TIP3    H132713   3.193   6.003   2.601 -0.8708  0.7664 -0.5600
 3766TIP3    H232714   3.164   5.955   2.460  0.3595 -0.7059 -0.3394
 3767TIP3   OH232715   2.230   3.442  11.254 -0.0682  0.1280 -0.1712
 3767TIP3    H132716   2.166   3.424  11.185 -1.4986  0.2609  1.0732
 3767TIP3    H232717   2.254   3.356  11.288 -0.8091  0.1379  0.4088
 3768TIP3   OH232718   3.549   5.693   3.357 -0.3649  0.3411  0.4466
 3768TIP3    H132719   3.499   5.724   3.282 -1.7041  0.0456  1.1695
 3768TIP3    H232720   3.640   5.705   3.333 -0.7333 -0.4792 -1.5492
 3769TIP3   OH232721   3.529   3.830   3.710 -0.2549 -0.1373  0.5827
 3769TIP3    H132722   3.491   3.817   3.797  0.4546  0.1328  0.9407
 3769TIP3    H232723   3.520   3.744   3.667 -1.5288 -0.0073  0.5359
 3770TIP3   OH232724   6.637   2.173   2.446  0.4812 -0.5265 -0.2741
 3770TIP3    H132725   6.696   2.124   2.503 -1.5963 -0.3677  2.1912
 3770TIP3    H232726   6.556   2.121   2.444  0.4245 -0.5307 -3.1909
 3771TIP3   OH232727   4.840   4.373  17.076 -0.6794  0.8292 -0.5602
 3771TIP3    H132728   4.761   4.353  17.127 -0.1834 -0.0926 -0.1310
 3771TIP3    H232729   4.906   4.312  17.109 -0.0505  0.9404 -1.5795
 3772TIP3   OH232730   0.601   6.623  11.180 -0.1837  0.0822  0.4151
 3772TIP3    H132731   0.531   6.652  11.238 -0.4049  0.5171 -0.0623
 3772TIP3    H232732   0.585   6.529  11.169 -0.4267  0.0931  0.6676
 3773TIP3   OH232733   2.654   4.416   3.342 -0.5274 -0.0383 -0.1273
 3773TIP3    H132734   2.723   4.355   3.371  0.4161  1.5998  1.2425
 3773TIP3    H232735   2.573   4.366   3.350  0.3383 -1.5648 -0.4271
 3774TIP3   OH232736   5.539   5.959   4.250 -0.5682  0.3852 -0.2230
 3774TIP3    H132737   5.529   5.868   4.224  0.8143  0.4158 -0.9629
 3774TIP3    H232738   5.589   5.956   4.331 -1.2891  0.4694  0.2387
 3775TIP3   OH232739   5.236   4.061   0.759  0.4095 -0.5295  0.3089
 3775TIP3    H132740   5.287   3.980   0.766  0.3267 -0.8620 -2.1858
 3775TIP3    H232741   5.299   4.131   0.779  1.1784 -1.0730 -0.1654
 3776TIP3   OH232742   5.953   0.706  17.379 -0.4770  0.0693 -0.1668
 3776TIP3    H132743   6.046   0.729  17.385 -0.1940 -0.4286 -1.9196
 3776TIP3    H232744   5.919   0.762  17.309 -0.9386 -1.3425 -1.1094
 3777TIP3   OH232745   5.325   3.706  15.980 -0.3485  0.1580 -0.5853
 3777TIP3    H132746   5.386   3.764  15.934  1.0733 -1.6485 -1.0978
 3777TIP3    H232747   5.264   3.765  16.024  0.0649  2.0099 -2.3376
 3778TIP3   OH232748   3.448   5.695   1.519  0.2653  0.5323  0.1617
 3778TIP3    H132749   3.483   5.765   1.573 -0.5794  0.5998  0.6474
 3778TIP3    H232750   3.502   5.618   1.541 -1.2101  0.0830  2.5558
 3779TIP3   OH232751   1.137   6.205  16.682  0.0284  0.0154  0.7346
 3779TIP3    H132752   1.064   6.265  16.665  1.5750  1.8223  0.1043
 3779TIP3    H232753   1.124   6.133  16.620 -1.3376  0.1643  0.8196
 3780TIP3   OH232754   0.352   0.122   4.625 -0.1418 -0.7071 -0.0227
 3780TIP3    H132755   0.320   0.044   4.670  0.3579 -1.2223 -0.5333
 3780TIP3    H232756   0.433   0.093   4.582  1.4189  0.7020  1.8028
 3781TIP3   OH232757   4.506   1.071   5.851  0.2324  0.2494 -0.5908
 3781TIP3    H132758   4.412   1.059   5.835 -0.1937  3.0838 -0.7155
 3781TIP3    H232759   4.521   1.032   5.937 -1.3462  0.8210 -0.0195
 3782TIP3   OH232760   5.294   6.432  16.672  0.2944 -0.3841  0.4685
 3782TIP3    H132761   5.217   6.400  16.719  0.3619 -0.3403  0.6121
 3782TIP3    H232762   5.298   6.525  16.695 -0.9194  0.1586 -1.3365
 3783TIP3   OH232763   4.747   4.084  12.047  0.4845 -0.1156  0.2382
 3783TIP3    H132764   4.827   4.039  12.075  0.6639  0.2890  0.3863
 3783TIP3    H232765   4.745   4.073  11.952  0.4026 -0.6345  0.2967
 3784TIP3   OH232766   4.758   1.370  17.270 -0.4316 -0.0608 -0.8079
 3784TIP3    H132767   4.780   1.302  17.206 -0.5839 -0.4256 -0.4825
 3784TIP3    H232768   4.800   1.449  17.237 -0.2652 -0.3113 -1.2039
 3785TIP3   OH232769   4.202   4.045  15.381 -0.1607  0.2334 -0.7663
 3785TIP3    H132770   4.208   4.095  15.463  1.4808  0.3727 -0.9365
 3785TIP3    H232771   4.287   4.058  15.339  0.3509 -2.7029 -0.8369
 3786TIP3   OH232772   0.512   2.772  16.570 -0.1780 -0.5741  0.0298
 3786TIP3    H132773   0.516   2.691  16.622 -0.5694 -0.2948  0.5011
 3786TIP3    H232774   0.512   2.842  16.635  1.5206 -0.1240 -0.3938
 3787TIP3   OH232775   5.211   3.557  12.064  0.3807  0.3093 -0.2903
 3787TIP3    H132776   5.262   3.612  12.124  0.8688  0.8895 -1.2066
 3787TIP3    H232777   5.122   3.561  12.098  0.4592  1.4595 -0.1593
 3788TIP3   OH232778   1.519   6.239  12.614 -0.1292  0.0447  0.3113
 3788TIP3    H132779   1.586   6.270  12.552 -0.5625 -0.9100 -0.6580
 3788TIP3    H232780   1.541   6.147  12.629 -0.4614  0.0751  1.0301
 3789TIP3   OH232781   1.383   3.648  11.865 -0.3241 -0.1827  0.1666
 3789TIP3    H132782   1.401   3.567  11.818 -0.1294  0.2395 -0.5019
 3789TIP3    H232783   1.372   3.714  11.797  0.7694  0.6122  0.7207
 3790TIP3   OH232784   4.914   2.186   1.416 -0.1707 -0.4306  0.2409
 3790TIP3    H132785   4.980   2.130   1.375 -2.4756 -2.7223 -0.6457
 3790TIP3    H232786   4.868   2.226   1.342 -0.7851 -0.1627  0.7639
 3791TIP3   OH232787   2.500   2.579   1.332 -0.2122  0.1902  0.0986
 3791TIP3    H132788   2.416   2.532   1.334 -1.1915  1.6998 -1.9699
 3791TIP3    H232789   2.482   2.657   1.280  2.6747  0.2341 -0.9740
 3792TIP3   OH232790   1.659   6.718   6.673  0.6147  0.4446  0.1521
 3792TIP3    H132791   1.664   6.780   6.600 -0.8177 -0.0737 -0.4224
 3792TIP3    H232792   1.630   6.771   6.747 -0.0369  0.5809 -0.1931
 3793TIP3   OH232793   1.131   0.034  12.451  0.0463 -0.3807  0.1417
 3793TIP3    H132794   1.120   0.018  12.545  0.1818  0.0715  0.2398
 3793TIP3    H232795   1.042   0.034  12.416  0.0381 -1.2851  0.1401
 3794TIP3   OH232796   3.893   1.101  12.854 -0.8395  0.3428 -0.1214
 3794TIP3    H132797   3.886   1.080  12.761 -2.6326  1.5044 -0.2976
 3794TIP3    H232798   3.824   1.050  12.896  0.5088 -0.8478  0.7424
 3795TIP3   OH232799   3.480   1.495   4.121 -0.0196 -0.0762 -0.0786
 3795TIP3    H132800   3.447   1.575   4.162  2.4570  1.4160 -0.7636
 3795TIP3    H232801   3.511   1.441   4.194 -0.1760  0.3183  0.2831
 3796TIP3   OH232802   4.475   6.513   1.944 -0.5564 -0.1057  0.6854
 3796TIP3    H132803   4.536   6.586   1.930 -1.1508  0.3205  0.2967
 3796TIP3    H232804   4.391   6.554   1.959 -1.5623 -0.7022 -2.5113
 3797TIP3   OH232805   1.807   4.166   2.688 -0.0116 -0.3030 -0.3456
 3797TIP3    H132806   1.727   4.218   2.676 -1.0560 -1.5364  0.9581
 3797TIP3    H232807   1.877   4.232   2.692 -1.2327  0.9935  0.8364
 3798TIP3   OH232808   3.431   2.089  12.507 -0.4549 -0.2701 -0.1664
 3798TIP3    H132809   3.353   2.132  12.470 -0.7325  0.2801  1.0189
 3798TIP3    H232810   3.499   2.155  12.501 -0.1313 -0.6484 -0.9154
 3799TIP3   OH232811   3.899   4.755  16.441 -0.7339  0.3042 -0.1880
 3799TIP3    H132812   3.827   4.752  16.503  0.5721  0.6007  1.4030
 3799TIP3    H232813   3.960   4.688  16.471 -0.3730 -0.0207 -1.5685
 3800TIP3   OH232814   3.567   4.015   2.464 -0.2483 -0.2125 -0.3901
 3800TIP3    H132815   3.650   3.983   2.427 -0.6994 -0.9262 -0.8031
 3800TIP3    H232816   3.550   3.956   2.537  0.1487  0.6056  0.3873
 3801TIP3   OH232817   4.543   5.588  13.501  0.4131  0.3055  0.2039
 3801TIP3    H132818   4.562   5.674  13.462  0.6133  0.1381 -0.0682
 3801TIP3    H232819   4.624   5.539  13.492 -0.3502 -0.7101 -1.7114
 3802TIP3   OH232820   4.719   5.721   2.455  0.0416 -0.2353 -0.5681
 3802TIP3    H132821   4.689   5.649   2.511  0.5729  0.0392  0.0843
 3802TIP3    H232822   4.798   5.754   2.498  1.8380 -1.5168 -2.7197
 3803TIP3   OH232823   3.692   1.418  11.932  0.0622 -0.2662 -0.4726
 3803TIP3    H132824   3.775   1.378  11.903  0.8132 -0.0360  1.2245
 3803TIP3    H232825   3.627   1.349  11.917  1.1120 -1.7145  1.1567
 3804TIP3   OH232826   2.903   4.156   5.480 -0.8033  0.0930  0.0875
 3804TIP3    H132827   2.888   4.092   5.550  2.0371 -0.9145 -0.0895
 3804TIP3    H232828   2.936   4.104   5.407  1.0831  1.6564 -0.2509
 3805TIP3   OH232829   0.354   6.204   1.977  0.0116 -0.3273 -0.0335
 3805TIP3    H132830   0.283   6.240   1.925  0.4167 -0.5755 -0.7789
 3805TIP3    H232831   0.433   6.245   1.942  0.1479  0.9534  1.6519
 3806TIP3   OH232832   4.125   0.053   4.332 -0.3770  0.6000  0.4377
 3806TIP3    H132833   4.204   0.087   4.290 -0.8381  1.2944  0.1119
 3806TIP3    H232834   4.152  -0.030   4.370  0.4821  0.7764  0.2335
 3807TIP3   OH232835   3.602   3.930  11.125 -0.3617  0.2579 -0.4431
 3807TIP3    H132836   3.523   3.899  11.080 -0.0095 -0.5025 -0.5623
 3807TIP3    H232837   3.588   4.024  11.137 -0.7957  0.3374 -1.4563
 3808TIP3   OH232838   1.232   4.228   5.915 -0.4347 -0.1219 -0.4048
 3808TIP3    H132839   1.146   4.189   5.932  0.7818 -2.8341 -0.1360
 3808TIP3    H232840   1.256   4.268   5.998 -0.4120 -1.4634  0.2520
 3809TIP3   OH232841   5.346   1.435  15.440 -0.5750  0.3131 -0.1065
 3809TIP3    H132842   5.376   1.519  15.406 -0.9055 -0.0001 -1.2235
 3809TIP3    H232843   5.424   1.396  15.480  0.0617  0.3182 -1.2974
 3810TIP3   OH232844   2.908   6.096   3.959 -0.3039  0.4830  0.1769
 3810TIP3    H132845   2.907   6.185   3.994 -0.4797  0.3112  0.6158
 3810TIP3    H232846   2.968   6.049   4.017 -0.7197  0.1578  0.3466
 3811TIP3   OH232847   6.521   3.070  12.023 -0.0452  0.3156  0.1200
 3811TIP3    H132848   6.521   3.156  12.064 -0.9010  0.1272  0.5214
 3811TIP3    H232849   6.608   3.034  12.045  0.3698  1.1181 -0.1684
 3812TIP3   OH232850   3.523   5.323   4.917 -0.9174 -0.5403 -0.4378
 3812TIP3    H132851   3.573   5.404   4.911 -3.5550  1.3755  1.2327
 3812TIP3    H232852   3.584   5.255   4.888  1.7324  1.8750 -0.9908
 3813TIP3   OH232853   4.593   1.917   3.304 -0.2401 -0.5589 -0.2988
 3813TIP3    H132854   4.630   1.883   3.223 -0.5811 -3.6377  0.7107
 3813TIP3    H232855   4.618   1.853   3.371  0.7384  2.2475  2.2550
 3814TIP3   OH232856   3.953   3.050  14.139  0.6190  0.6106  0.2214
 3814TIP3    H132857   3.887   2.981  14.137  2.2820 -1.0558  0.5864
 3814TIP3    H232858   3.981   3.059  14.048  0.1913  1.0454  0.1271
 3815TIP3   OH232859   4.279   5.848  11.717 -0.1702 -0.0323 -0.3192
 3815TIP3    H132860   4.338   5.909  11.674  0.2679 -0.4325 -0.2849
 3815TIP3    H232861   4.194   5.893  11.717  0.6733  1.7955  2.1497
 3816TIP3   OH232862   3.350   0.614   5.083 -0.1125 -0.1138 -0.5790
 3816TIP3    H132863   3.256   0.603   5.068 -0.2020  1.0574 -0.9829
 3816TIP3    H232864   3.374   0.540   5.138 -1.3399 -0.2396 -0.1820
 3817TIP3   OH232865   5.399   1.363   0.928  0.4504  0.6118 -0.1252
 3817TIP3    H132866   5.375   1.456   0.923  0.3335  0.5717 -0.3165
 3817TIP3    H232867   5.475   1.355   0.871 -0.5086  0.2779 -1.4035
 3818TIP3   OH232868   1.446   0.922  12.987 -0.6348  0.4443 -0.0545
 3818TIP3    H132869   1.449   0.841  12.937 -3.4836 -0.1955  0.6527
 3818TIP3    H232870   1.353   0.945  12.991 -0.7928  0.1141  5.3970
 3819TIP3   OH232871   0.448   1.929   4.585  0.0014 -0.1516 -0.1473
 3819TIP3    H132872   0.393   1.859   4.620 -1.1998  0.2564 -1.1440
 3819TIP3    H232873   0.410   2.009   4.620  1.6642  0.0397  1.3895
 3820TIP3   OH232874   0.584   5.004   6.182  0.0341 -0.2408  0.3889
 3820TIP3    H132875   0.670   4.966   6.165  0.3387  0.9525 -0.8961
 3820TIP3    H232876   0.603   5.088   6.223 -0.5706 -0.4041  1.0293
 3821TIP3   OH232877   0.370   5.953  16.816  0.4529 -0.4046  0.4038
 3821TIP3    H132878   0.324   5.901  16.751 -0.0787 -1.3443  1.4875
 3821TIP3    H232879   0.450   5.905  16.835 -0.0824 -0.9195  1.4773
 3822TIP3   OH232880   4.197   1.909   3.145 -0.4050  0.4301 -0.0123
 3822TIP3    H132881   4.135   1.890   3.215 -0.1820  0.4895  0.1998
 3822TIP3    H232882   4.220   1.824   3.109 -0.1994  0.3742  0.2582
 3823TIP3   OH232883   4.832   4.567   0.306  0.6229  0.0405 -0.2186
 3823TIP3    H132884   4.856   4.640   0.249  0.4394 -1.0799 -1.8060
 3823TIP3    H232885   4.892   4.497   0.283  0.6398 -0.4140  1.1049
 3824TIP3   OH232886   2.077   2.323  11.113  0.0645  0.1471 -0.3953
 3824TIP3    H132887   2.109   2.240  11.079  0.9395 -0.1226  1.0045
 3824TIP3    H232888   2.086   2.316  11.208  1.9403  2.4897 -0.2914
 3825TIP3   OH232889   3.385   4.080   6.200  0.0305  0.1613 -0.2831
 3825TIP3    H132890   3.480   4.074   6.202 -0.0476 -0.7829  0.9352
 3825TIP3    H232891   3.363   4.144   6.268 -0.0859  2.6971 -2.5234
 3826TIP3   OH232892   4.690   0.843   4.697  0.7327 -0.1330 -0.3710
 3826TIP3    H132893   4.604   0.885   4.697  0.9407  0.3151 -1.1709
 3826TIP3    H232894   4.712   0.832   4.789 -0.7652 -1.4615 -0.1278
 3827TIP3   OH232895   0.886   0.834  13.958 -0.3577 -0.4356  0.1371
 3827TIP3    H132896   0.909   0.835  14.050  1.4057  0.2423 -0.2793
 3827TIP3    H232897   0.851   0.746  13.943 -1.7421 -0.1874  1.6594
 3828TIP3   OH232898   1.327   0.914  10.865  0.0488 -0.2905  0.1508
 3828TIP3    H132899   1.377   0.995  10.873 -1.1275  0.6247 -1.3476
 3828TIP3    H232900   1.246   0.939  10.820 -0.9322 -2.0667  0.8075
 3829TIP3   OH232901   5.072   2.148   1.172 -0.3699 -0.5366  0.0187
 3829TIP3    H132902   4.985   2.176   1.143  0.0384  0.8351  0.0600
 3829TIP3    H232903   5.119   2.230   1.189  1.6178 -1.1566 -2.0040
 3830TIP3   OH232904   2.116   0.375   1.261 -0.3134  0.0927  0.0116
 3830TIP3    H132905   2.137   0.298   1.314 -0.1803  0.4633  0.5013
 3830TIP3    H232906   2.124   0.449   1.321  0.6395  0.6010 -0.7112
 3831TIP3   OH232907   1.459   2.797  15.318  0.1591 -0.0539  0.3686
 3831TIP3    H132908   1.450   2.798  15.413  0.9900  2.7829  0.5174
 3831TIP3    H232909   1.550   2.821  15.303  0.4672 -1.9542 -1.1964
 3832TIP3   OH232910   2.004   3.421  16.216  0.2060 -0.6118  0.1142
 3832TIP3    H132911   2.008   3.488  16.148 -0.5813 -0.2280  0.4402
 3832TIP3    H232912   1.930   3.446  16.272 -1.5068 -2.8859 -0.9575
 3833TIP3   OH232913   6.558   2.047   0.889 -0.0285  0.0575  0.2724
 3833TIP3    H132914   6.485   1.986   0.880  0.5994 -0.6605 -0.0428
 3833TIP3    H232915   6.627   1.996   0.931  0.0328  0.9512  1.3104
 3834TIP3   OH232916   3.260   1.008  10.777 -0.1329 -0.4540 -0.4597
 3834TIP3    H132917   3.170   1.013  10.809 -1.0575 -2.1137 -2.5630
 3834TIP3    H232918   3.310   0.978  10.853 -0.8541  2.5228  1.3761
 3835TIP3   OH232919   2.182   4.020  15.129 -0.2492 -0.6174 -0.4050
 3835TIP3    H132920   2.214   4.051  15.214 -0.5908 -1.9137  0.2210
 3835TIP3    H232921   2.087   4.011  15.141 -0.3793 -0.2577 -1.1128
 3836TIP3   OH232922   5.055   5.955  12.294  0.1751  0.0180 -0.1758
 3836TIP3    H132923   5.082   6.011  12.221 -0.3725  0.7188  0.1505
 3836TIP3    H232924   4.960   5.951  12.288  0.1440 -0.1398  0.3404
 3837TIP3   OH232925   4.065   4.549   6.743 -0.3724  0.3939  0.2729
 3837TIP3    H132926   3.997   4.489   6.772  1.7373 -2.1904  0.2201
 3837TIP3    H232927   4.046   4.564   6.650 -0.7655 -0.4364  0.2172
 3838TIP3   OH232928   2.415   1.191  11.014  0.1584 -1.2627  0.0872
 3838TIP3    H132929   2.375   1.208  11.099 -0.2614 -0.5586 -0.2497
 3838TIP3    H232930   2.391   1.266  10.960  2.1846 -0.6426 -0.0397
 3839TIP3   OH232931   1.503   5.920  17.329  0.4476 -0.0066  0.2579
 3839TIP3    H132932   1.429   5.861  17.347 -1.2329  1.5514 -1.1586
 3839TIP3    H232933   1.565   5.866  17.280 -0.4625 -0.9592  0.1002
 3840TIP3   OH232934   6.534   5.334   0.804 -0.8816  0.0780 -0.5001
 3840TIP3    H132935   6.596   5.356   0.873  0.5123 -1.9558 -0.9835
 3840TIP3    H232936   6.585   5.339   0.723 -1.7419 -0.2424 -1.0809
 3841TIP3   OH232937   4.464   0.816   6.185  0.1875 -0.2095  0.2608
 3841TIP3    H132938   4.490   0.776   6.268 -0.3561  1.8574  1.5062
 3841TIP3    H232939   4.418   0.896   6.210 -1.4531 -0.3247 -2.0162
 3842TIP3   OH232940   0.458   4.288  12.940 -0.2719  0.0430 -0.0607
 3842TIP3    H132941   0.480   4.248  13.024  0.1084 -0.8895 -0.5926
 3842TIP3    H232942   0.373   4.330  12.955 -0.7805 -1.1321  0.4625
 3843TIP3   OH232943   0.050   6.647  14.876 -0.1126 -0.5612 -0.1588
 3843TIP3    H132944   0.066   6.640  14.782 -0.0024 -0.5232 -0.1432
 3843TIP3    H232945   0.112   6.714  14.906  0.3657 -1.0925  0.0665
 3844TIP3   OH232946   2.572   0.570  14.192 -0.2195  0.0607 -0.2391
 3844TIP3    H132947   2.664   0.547  14.205 -0.6571 -1.1517  0.8844
 3844TIP3    H232948   2.547   0.616  14.271 -1.7828 -3.7386  1.7197
 3845TIP3   OH232949   1.668   3.817   5.788 -0.3155  0.3233  0.9860
 3845TIP3    H132950   1.729   3.758   5.743 -0.4653 -0.0898  1.3203
 3845TIP3    H232951   1.724   3.871   5.844 -0.3867 -1.6639  3.1610
 3846TIP3   OH232952   4.003   6.305   1.583  0.2253 -0.2851  0.0657
 3846TIP3    H132953   4.091   6.337   1.567  0.1440 -0.5373 -0.9972
 3846TIP3    H232954   3.968   6.362   1.651  0.7524  0.6455 -0.4223
 3847TIP3   OH232955   1.754   6.711  12.401 -0.6603  0.5587  0.9414
 3847TIP3    H132956   1.753   6.691  12.495  1.1798  1.6484  1.2303
 3847TIP3    H232957   1.844   6.739  12.383 -0.5456 -1.0430 -1.4795
 3848TIP3   OH232958   4.689   4.466   1.111 -0.4088  0.0850 -0.4697
 3848TIP3    H132959   4.639   4.481   1.030 -1.3365 -0.9475 -0.1114
 3848TIP3    H232960   4.747   4.542   1.118 -0.2465  0.1441 -2.1464
 3849TIP3   OH232961   3.253   0.941  12.027  0.1209 -0.2096 -0.4629
 3849TIP3    H132962   3.334   0.984  11.997  0.0642 -0.5362 -1.1119
 3849TIP3    H232963   3.272   0.847  12.020 -0.3846 -0.2878 -0.8265
 3850TIP3   OH232964   3.121   2.426   3.758  0.2908  0.1311 -0.0858
 3850TIP3    H132965   3.029   2.446   3.774  0.6430  1.3234  0.5737
 3850TIP3    H232966   3.168   2.469   3.829  1.6586  2.9100 -2.4453
 3851TIP3   OH232967   3.840   3.540  14.140  0.0135 -0.4964  0.1882
 3851TIP3    H132968   3.888   3.532  14.058 -1.4783 -0.6356 -0.7061
 3851TIP3    H232969   3.906   3.563  14.205  1.5550 -2.3300 -0.6518
 3852TIP3   OH232970   5.187   3.540   3.964  0.1103 -0.1324  0.0387
 3852TIP3    H132971   5.204   3.454   3.926  0.6640  0.1271 -0.3213
 3852TIP3    H232972   5.092   3.547   3.966 -0.0173 -1.5387  1.9095
 3853TIP3   OH232973   2.921   1.073  12.850  0.0070  0.0477 -0.0077
 3853TIP3    H132974   2.928   1.140  12.919 -0.5043 -0.6148  0.6969
 3853TIP3    H232975   2.972   0.999  12.883 -0.8563 -0.5524  0.0089
 3854TIP3   OH232976   6.017   4.609   1.004 -0.5551  0.5508  0.4912
 3854TIP3    H132977   6.113   4.612   1.007 -0.4339 -0.3389 -1.2336
 3854TIP3    H232978   5.989   4.673   1.070  1.1909 -0.5181  2.3956
 3855TIP3   OH232979   0.720   1.934   1.119 -0.3973 -0.0744  0.2994
 3855TIP3    H132980   0.782   1.880   1.069  0.1981  0.0247  0.9229
 3855TIP3    H232981   0.667   1.870   1.167 -1.2482 -0.1929 -0.7378
 3856TIP3   OH232982   0.145   3.847   0.373  0.3996 -0.3826 -0.1675
 3856TIP3    H132983   0.205   3.781   0.339  1.3384  0.1374  0.4281
 3856TIP3    H232984   0.058   3.807   0.367  0.4508 -0.2302 -3.3123
 3857TIP3   OH232985   4.774   6.732  17.035 -0.6636  0.2308  0.3450
 3857TIP3    H132986   4.834   6.698  17.102 -2.2696 -1.6114  0.9298
 3857TIP3    H232987   4.765   6.661  16.972  0.3977  1.7404 -1.6314
 3858TIP3   OH232988   2.871   0.651   5.727 -0.3527  0.3807 -1.1037
 3858TIP3    H132989   2.850   0.744   5.721 -1.5303  0.3507  1.2648
 3858TIP3    H232990   2.871   0.620   5.637  1.4881  2.9217 -2.0834
 3859TIP3   OH232991   3.838   1.493   1.169 -0.0462  0.3780 -0.4020
 3859TIP3    H132992   3.777   1.566   1.178 -2.0184 -1.4150  3.0785
 3859TIP3    H232993   3.896   1.501   1.244  0.5188 -0.9128 -0.6706
 3860TIP3   OH232994   4.962   1.859  14.009 -0.1650 -0.0094 -0.2919
 3860TIP3    H132995   4.950   1.869  13.914  0.0466  0.6931 -0.2519
 3860TIP3    H232996   4.913   1.932  14.047 -0.4029 -0.3980  0.1517
 3861TIP3   OH232997   4.794   1.476   6.003  0.5713  0.4176  0.1289
 3861TIP3    H132998   4.832   1.456   6.089 -1.1391 -1.0832  0.5922
 3861TIP3    H232999   4.779   1.390   5.963 -0.9367  1.0094 -0.6393
 3862TIP3   OH233000   5.343   3.713  13.961  0.2159 -0.3805  0.2288
 3862TIP3    H133001   5.408   3.720  13.891  0.3067 -0.4068  0.3098
 3862TIP3    H233002   5.306   3.625  13.951  0.0450 -0.2894  0.0549
 3863TIP3   OH233003   0.629   4.499  16.431  0.1594 -0.2250 -0.1072
 3863TIP3    H133004   0.636   4.404  16.442 -0.2169 -0.2583 -0.1261
 3863TIP3    H233005   0.628   4.533  16.520 -3.4203 -0.5349  0.1334
 3864TIP3   OH233006   6.333   1.830  15.403 -0.0141 -0.3660 -0.0293
 3864TIP3    H133007   6.358   1.911  15.358  1.2182  0.4506  1.9771
 3864TIP3    H233008   6.278   1.784  15.340  2.2311  0.3024 -2.6852
 3865TIP3   OH233009   3.827   3.715  12.610 -0.3296 -0.0490  0.1756
 3865TIP3    H133010   3.751   3.692  12.557 -1.9484 -1.5448  2.9177
 3865TIP3    H233011   3.826   3.652  12.682  2.4894  1.0386  1.3048
 3866TIP3   OH233012   2.055   5.672   1.748 -0.3089  0.7584 -0.1750
 3866TIP3    H133013   2.085   5.763   1.749 -1.0657  1.0194 -0.4666
 3866TIP3    H233014   2.039   5.651   1.840 -0.8602  1.1806 -0.1651
 3867TIP3   OH233015   4.503   5.998   3.347  0.1206  0.5912  0.3661
 3867TIP3    H133016   4.527   5.907   3.364  0.5190  0.6398  0.0656
 3867TIP3    H233017   4.585   6.041   3.323  0.0476  1.1906  1.1738
 3868TIP3   OH233018   2.379   1.886   5.648  0.7755 -0.0694 -0.3161
 3868TIP3    H133019   2.306   1.891   5.586 -1.2351 -2.5926  1.6299
 3868TIP3    H233020   2.436   1.819   5.611 -0.5083 -1.7009  0.5253
 3869TIP3   OH233021   3.341   2.446  13.827 -0.9319 -0.0509 -0.5673
 3869TIP3    H133022   3.313   2.494  13.749 -1.7676 -0.0907 -0.3048
 3869TIP3    H233023   3.274   2.467  13.893  1.1406  2.1455  1.0029
 3870TIP3   OH233024   6.658   4.482   3.756  0.3943 -0.5043 -1.1429
 3870TIP3    H133025   6.648   4.410   3.693 -0.5348 -0.2415 -1.3188
 3870TIP3    H233026   6.583   4.539   3.738  0.0518 -0.4734  0.2788
 3871TIP3   OH233027   5.349   2.374   0.062 -0.3571  0.1720  1.1030
 3871TIP3    H133028   5.268   2.425   0.057  0.3664  1.3397  0.8539
 3871TIP3    H233029   5.353   2.328  -0.022 -1.1902 -0.5900  1.4677
 3872TIP3   OH233030   2.883   5.825   1.861 -0.2856  0.0480  0.1666
 3872TIP3    H133031   2.881   5.895   1.795  0.6465  0.6026  0.6976
 3872TIP3    H233032   2.810   5.845   1.919  0.3893  1.0116  0.7167
 3873TIP3   OH233033   0.168   1.702  13.632  0.2691  0.1071 -0.3885
 3873TIP3    H133034   0.147   1.767  13.699 -1.2598  0.4191 -1.1202
 3873TIP3    H233035   0.209   1.630  13.680 -3.4188 -1.0006  1.4372
 3874TIP3   OH233036   0.033   5.941  15.559  0.2396  0.7031  0.3438
 3874TIP3    H133037   0.076   5.915  15.477 -1.6805  0.0043 -0.4872
 3874TIP3    H233038   0.098   5.921  15.627  1.1726 -0.4653 -0.8327
 3875TIP3   OH233039   6.369   3.723  15.774  0.6506  0.3285 -0.3971
 3875TIP3    H133040   6.384   3.692  15.863  1.2866  0.0701 -0.5890
 3875TIP3    H233041   6.408   3.656  15.718  2.0546  1.4570 -0.8293
 3876TIP3   OH233042   2.655   1.112   2.755 -0.1260  0.0624 -0.0732
 3876TIP3    H133043   2.585   1.085   2.814  0.0556 -0.1754  0.0369
 3876TIP3    H233044   2.616   1.181   2.701 -0.0148  0.9665  0.9696
 3877TIP3   OH233045   4.594   0.586   3.224  0.9661 -0.4631 -0.4115
 3877TIP3    H133046   4.540   0.665   3.226 -2.4768 -2.5033 -1.7842
 3877TIP3    H233047   4.607   0.569   3.131  0.6565 -2.0470 -0.1967
 3878TIP3   OH233048   3.531   4.075  16.527  0.3318  0.4399 -0.3767
 3878TIP3    H133049   3.470   4.079  16.454 -0.3052  1.6718  0.1882
 3878TIP3    H233050   3.522   4.159  16.571  3.2357  1.1317 -0.8826
 3879TIP3   OH233051   4.759   5.107   6.254  0.0490  0.0796  0.2888
 3879TIP3    H133052   4.840   5.158   6.248  0.2528 -0.1563  0.9307
 3879TIP3    H233053   4.787   5.017   6.241 -0.3056  0.1170 -0.8161
 3880TIP3   OH233054   0.812   0.025  17.134 -0.1129 -0.5222 -0.1695
 3880TIP3    H133055   0.739  -0.030  17.104 -0.9568  1.1650 -1.3794
 3880TIP3    H233056   0.772   0.110  17.152  1.3425  0.0491  0.5415
 3881TIP3   OH233057   6.638   6.422   4.031 -0.8872  0.3731  0.0370
 3881TIP3    H133058   6.663   6.437   4.123  0.8408 -2.5365  0.1575
 3881TIP3    H233059   6.718   6.394   3.989 -1.7720  1.1719 -2.3188
 3882TIP3   OH233060   2.317   1.330  17.272  0.1692  0.4041  0.2298
 3882TIP3    H133061   2.372   1.408  17.273  2.9046 -1.3741  0.0211
 3882TIP3    H233062   2.336   1.287  17.356 -0.9474 -0.2674  0.1506
 3883TIP3   OH233063   3.227   5.904   3.158 -0.4895  0.9468  0.3052
 3883TIP3    H133064   3.265   5.915   3.245 -0.4776 -1.7050  0.7215
 3883TIP3    H233065   3.169   5.829   3.167 -0.9819  1.0048 -1.8502
 3884TIP3   OH233066   4.150   1.208   3.306 -0.3202  0.1783  0.1729
 3884TIP3    H133067   4.208   1.229   3.379  1.7196 -2.3164 -0.6023
 3884TIP3    H233068   4.086   1.279   3.306  2.2729  2.7345  1.5302
 3885TIP3   OH233069   6.747   2.799  11.490 -0.3338  0.4848 -0.5878
 3885TIP3    H133070   6.750   2.711  11.528 -1.6551  0.5643 -0.2845
 3885TIP3    H233071   6.830   2.806  11.442  0.9740  0.0422  1.4897
 3886TIP3   OH233072   5.490   5.683  12.165 -0.8766 -0.1600 -0.4173
 3886TIP3    H133073   5.577   5.716  12.189 -0.1664 -2.7083  0.8704
 3886TIP3    H233074   5.430   5.733  12.221 -0.2183  1.1511 -0.8339
 3887TIP3   OH233075   3.662   5.539  13.800 -0.2949  0.6077  0.1952
 3887TIP3    H133076   3.587   5.495  13.760 -0.3264 -1.6415  2.4189
 3887TIP3    H233077   3.627   5.622  13.832 -1.2106  0.6640 -0.9063
 3888TIP3   OH233078   0.893   1.853  12.411 -0.5660 -0.1942 -0.1561
 3888TIP3    H133079   0.814   1.905  12.397 -3.1668 -3.4663  0.9672
 3888TIP3    H233080   0.899   1.845  12.506  1.7392  0.7207 -0.1763
 3889TIP3   OH233081   5.285   3.745   0.985 -0.1086 -0.8654 -0.5916
 3889TIP3    H133082   5.198   3.776   0.961 -0.6694 -1.7736  0.2177
 3889TIP3    H233083   5.330   3.735   0.901 -0.8583 -0.5991 -1.0351
 3890TIP3   OH233084   6.245   4.198  14.658 -0.0489 -0.1546 -0.7124
 3890TIP3    H133085   6.202   4.158  14.583  0.4325 -0.3024 -0.9166
 3890TIP3    H233086   6.326   4.235  14.622 -0.2855  0.6411 -0.4503
 3891TIP3   OH233087   2.958   6.016   4.353 -0.2132  0.0562 -0.1288
 3891TIP3    H133088   2.898   6.015   4.428 -1.6356 -0.3793 -1.2188
 3891TIP3    H233089   3.022   6.083   4.374 -2.6927  2.5791 -0.0974
 3892TIP3   OH233090   2.799   2.466   6.252 -1.2018 -0.4002  0.5219
 3892TIP3    H133091   2.837   2.532   6.311  0.0693  1.7667 -2.4462
 3892TIP3    H233092   2.872   2.407   6.234 -1.3568 -0.5817  0.4969
 3893TIP3   OH233093   2.956   6.474   2.806  0.3409 -0.3042 -0.0348
 3893TIP3    H133094   2.988   6.401   2.860  1.5368  0.5680  0.4948
 3893TIP3    H233095   2.875   6.501   2.849  0.7579 -0.2690  0.7582
 3894TIP3   OH233096   6.687   0.589   1.378 -0.1609 -0.2988 -0.4508
 3894TIP3    H133097   6.698   0.539   1.297  2.4149 -0.8582  0.1496
 3894TIP3    H233098   6.709   0.679   1.354  0.2647 -0.4014 -0.4487
 3895TIP3   OH233099   6.315   5.954   3.403  0.0284  1.0852 -0.3872
 3895TIP3    H133100   6.329   5.862   3.427 -0.5432  0.9739 -0.4801
 3895TIP3    H233101   6.403   5.993   3.407  0.5026  0.2338 -1.6178
 3896TIP3   OH233102   0.646   3.670   0.716  0.3650 -0.0258  0.2928
 3896TIP3    H133103   0.624   3.760   0.743 -0.2472 -0.5182  1.5177
 3896TIP3    H233104   0.737   3.675   0.689  0.0100  1.2099 -0.8303
 3897TIP3   OH233105   1.301   0.254  12.455  0.1414 -0.0423 -0.5515
 3897TIP3    H133106   1.312   0.260  12.361  1.7773 -1.8400 -0.5288
 3897TIP3    H233107   1.231   0.189  12.466  0.1554 -0.0496 -0.5071
 3898TIP3   OH233108   1.089   6.013  16.490  0.5231  0.1438  0.0662
 3898TIP3    H133109   1.073   5.943  16.554 -1.5478  0.2195 -0.2904
 3898TIP3    H233110   1.094   5.968  16.406  1.2314  0.2349  0.0595
 3899TIP3   OH233111   3.746   6.261  13.938  0.2382 -0.2381 -0.3013
 3899TIP3    H133112   3.823   6.299  13.897  0.9162 -1.3124 -0.0773
 3899TIP3    H233113   3.771   6.248  14.029 -0.3571 -0.2171 -0.1329
 3900TIP3   OH233114   2.421   6.493   5.232 -0.0606  0.2719  0.1679
 3900TIP3    H133115   2.491   6.535   5.283  0.0217  0.6252 -0.2356
 3900TIP3    H233116   2.371   6.444   5.297  0.3639  0.2863  0.5119
 3901TIP3   OH233117   2.247   4.429  14.626  0.2903 -0.1883  0.0083
 3901TIP3    H133118   2.315   4.402  14.564 -0.5931 -1.3739 -0.4849
 3901TIP3    H233119   2.270   4.386  14.708  0.6332  0.1500  0.0885
 3902TIP3   OH233120   5.373   0.582  15.566 -0.8283 -0.2518 -0.9802
 3902TIP3    H133121   5.460   0.547  15.543 -0.6063 -0.1927 -0.2643
 3902TIP3    H233122   5.356   0.545  15.652 -2.0543 -1.2351 -1.6153
 3903TIP3   OH233123   4.854   5.686  13.692  0.5614  0.6471  0.0045
 3903TIP3    H133124   4.845   5.602  13.647  1.2882  0.5030  0.1095
 3903TIP3    H233125   4.909   5.667  13.768 -0.0107  1.0435  0.5293
 3904TIP3   OH233126   3.572   5.749   5.822  0.0573  0.0651  0.6001
 3904TIP3    H133127   3.507   5.794   5.876 -0.3179 -0.3633  0.5139
 3904TIP3    H233128   3.536   5.755   5.733 -0.5197 -1.2924  0.7203
 3905TIP3   OH233129   6.151   5.263   1.978 -0.3144  0.6064 -0.3574
 3905TIP3    H133130   6.167   5.220   1.894 -1.6720  0.3069 -0.5003
 3905TIP3    H233131   6.233   5.254   2.026 -0.0129 -0.6195 -1.0581
 3906TIP3   OH233132   4.945   6.452   3.534 -0.0691 -0.5141 -0.2345
 3906TIP3    H133133   4.994   6.386   3.583 -2.1631 -2.9604 -1.1773
 3906TIP3    H233134   4.871   6.474   3.590 -1.0366 -1.3427 -1.1324
 3907TIP3   OH233135   4.439   3.104   3.747  0.7905 -0.2616  0.5781
 3907TIP3    H133136   4.519   3.147   3.716  1.3766 -1.0662  0.9570
 3907TIP3    H233137   4.382   3.102   3.669  1.2630  0.0142  0.2175
 3908TIP3   OH233138   6.378   0.838  15.484 -0.1470  0.5702 -0.3514
 3908TIP3    H133139   6.466   0.877  15.490 -0.1930  0.7965 -1.1065
 3908TIP3    H233140   6.365   0.822  15.391 -1.6807  2.3320 -0.4967
 3909TIP3   OH233141   3.854   2.137   1.578 -0.1114 -0.0943 -0.4695
 3909TIP3    H133142   3.920   2.176   1.521  0.3001  0.1678  0.1773
 3909TIP3    H233143   3.884   2.047   1.591  0.0966  0.0114 -0.2121
 3910TIP3   OH233144   3.050   5.377   0.733 -0.6174 -0.5850 -0.2236
 3910TIP3    H133145   3.078   5.442   0.797  0.7678 -1.4730  0.1106
 3910TIP3    H233146   3.079   5.293   0.769 -1.6966 -1.3189 -1.0083
 3911TIP3   OH233147   5.561   2.224  13.558 -0.0656  0.0528  0.5539
 3911TIP3    H133148   5.596   2.309  13.530 -0.0645  0.3170  1.3550
 3911TIP3    H233149   5.466   2.232  13.544 -0.1850  0.5495  1.5445
 3912TIP3   OH233150   5.327   3.132  15.563 -0.2635 -0.9950 -0.2790
 3912TIP3    H133151   5.353   3.041  15.577 -0.4460 -1.2007 -1.2290
 3912TIP3    H233152   5.343   3.148  15.470  3.0485  1.0083  0.4668
 3913TIP3   OH233153   3.739   5.791  11.767  0.3841 -0.2695  0.3643
 3913TIP3    H133154   3.675   5.754  11.827  0.8595 -1.2846  0.2674
 3913TIP3    H233155   3.687   5.835  11.700 -0.1731 -0.1835  0.8450
 3914TIP3   OH233156   3.545   0.464  12.168 -0.5935 -0.0299  0.2939
 3914TIP3    H133157   3.639   0.451  12.156 -0.1604  2.8691 -0.3880
 3914TIP3    H233158   3.510   0.377  12.186  2.2770 -1.1315  1.0675
 3915TIP3   OH233159   5.886   4.997  15.008  0.3193 -0.5133 -0.3932
 3915TIP3    H133160   5.928   5.081  15.028 -0.8075 -0.0200 -0.0073
 3915TIP3    H233161   5.940   4.960  14.938  0.7824  0.5850 -0.6439
 3916TIP3   OH233162   5.594   2.715  12.887  0.1910  0.5538  0.2616
 3916TIP3    H133163   5.635   2.690  12.969 -2.4052 -0.4026  1.3664
 3916TIP3    H233164   5.541   2.792  12.908  0.3882  1.0094 -0.8090
 3917TIP3   OH233165   3.150   1.214   2.392  0.4222  0.4540  0.2100
 3917TIP3    H133166   3.119   1.294   2.434  1.1586  0.3992  0.8633
 3917TIP3    H233167   3.085   1.148   2.417 -0.2917  0.8731 -0.4871
 3918TIP3   OH233168   6.300   1.472   3.669 -0.0125 -0.1372  0.6579
 3918TIP3    H133169   6.318   1.550   3.723  0.6320  0.5503 -0.5126
 3918TIP3    H233170   6.208   1.453   3.685 -0.2764  1.0812  0.7155
 3919TIP3   OH233171   3.648   2.114  13.367 -0.0189 -0.8420 -0.3120
 3919TIP3    H133172   3.692   2.029  13.366  0.1650 -0.7432 -1.7781
 3919TIP3    H233173   3.716   2.177  13.345 -0.6598 -0.5769 -1.6051
 3920TIP3   OH233174   2.764   1.922   4.752 -0.1076  0.5338 -0.0206
 3920TIP3    H133175   2.739   2.004   4.708 -0.2255 -0.2467 -1.4639
 3920TIP3    H233176   2.835   1.887   4.698 -1.4536 -1.3540 -0.6709
 3921TIP3   OH233177   1.483   5.212   1.238  0.0271  0.1371 -0.3922
 3921TIP3    H133178   1.558   5.265   1.264  0.7747 -0.6495 -0.8936
 3921TIP3    H233179   1.408   5.270   1.248  0.9743  1.8760 -2.5874
 3922TIP3   OH233180   0.083   3.553   2.165 -0.0491 -0.4640  0.0603
 3922TIP3    H133181   0.089   3.458   2.155 -0.0635 -0.4500 -0.0756
 3922TIP3    H233182   0.173   3.584   2.161  0.2111 -0.7018  2.3814
 3923TIP3   OH233183   2.264   0.935   6.122  0.0256  0.0276 -0.3410
 3923TIP3    H133184   2.168   0.932   6.117 -0.1027  0.0453  1.5160
 3923TIP3    H233185   2.287   1.024   6.094 -0.4272 -0.1888 -1.4583
 3924TIP3   OH233186   1.242   1.199   0.056  0.1770  0.5417 -0.0507
 3924TIP3    H133187   1.154   1.209   0.020 -0.9652 -0.5463  2.2877
 3924TIP3    H233188   1.300   1.228  -0.015 -2.0112  0.8252 -1.8198
 3925TIP3   OH233189   3.734   6.708  11.078 -0.4302 -0.2271 -0.2790
 3925TIP3    H133190   3.737   6.621  11.039  0.2030 -0.7487  0.8774
 3925TIP3    H233191   3.806   6.708  11.142  0.4596  1.6080 -1.2133
 3926TIP3   OH233192   3.022   0.703   3.638  0.6224 -0.5053 -0.2472
 3926TIP3    H133193   2.979   0.746   3.712 -0.7454 -1.2519 -0.5762
 3926TIP3    H233194   3.109   0.679   3.671  0.4068  0.0996  0.7805
 3927TIP3   OH233195   5.137   3.153   0.502 -0.2937  0.0376  0.3866
 3927TIP3    H133196   5.148   3.064   0.535  0.2052 -1.3280 -3.0496
 3927TIP3    H233197   5.059   3.148   0.446 -1.6784  2.4265  1.9158
 3928TIP3   OH233198   2.233   1.442  13.416 -0.2413 -0.1455 -0.3896
 3928TIP3    H133199   2.169   1.506  13.446 -0.1937 -0.4356  0.3445
 3928TIP3    H233200   2.236   1.376  13.485 -1.3255 -1.7041 -1.7591
 3929TIP3   OH233201   0.843   1.634  16.956 -0.3909  0.2662 -0.8955
 3929TIP3    H133202   0.920   1.680  16.990  0.5279 -1.1834 -0.9445
 3929TIP3    H233203   0.851   1.642  16.861  0.0592 -0.4162 -0.9236
 3930TIP3   OH233204   0.454   6.156  12.987  0.2804  0.0077 -0.5174
 3930TIP3    H133205   0.421   6.131  13.073 -0.7037  0.3438 -0.7808
 3930TIP3    H233206   0.489   6.245  13.000  0.5271 -0.1059 -0.3802
 3931TIP3   OH233207   2.537   0.030  13.895  0.7367 -0.2776  0.6214
 3931TIP3    H133208   2.576  -0.057  13.884 -1.8222 -1.4158 -0.0566
 3931TIP3    H233209   2.583   0.085  13.832  0.6187 -1.7906 -0.8377
 3932TIP3   OH233210   1.317   2.810   0.645 -0.3225 -0.2640  0.3942
 3932TIP3    H133211   1.344   2.869   0.715 -0.2248 -2.0814  1.9808
 3932TIP3    H233212   1.222   2.822   0.638  0.0039  1.8348 -1.0543
 3933TIP3   OH233213   3.593   3.211  14.368  0.3155  0.6144  0.3131
 3933TIP3    H133214   3.576   3.298  14.331 -0.6187  0.0427 -0.6506
 3933TIP3    H233215   3.682   3.216  14.402  0.9137  1.4255 -1.2787
 3934TIP3   OH233216   0.077   5.300   3.256 -0.4038 -0.1702  0.5041
 3934TIP3    H133217   0.146   5.308   3.321 -0.4979  1.4281  0.4415
 3934TIP3    H233218   0.123   5.282   3.174 -0.2000 -0.8792  0.7685
 3935TIP3   OH233219   2.281   5.177  11.400  0.2402  0.4054  0.5136
 3935TIP3    H133220   2.254   5.160  11.309 -0.2196 -1.3700  0.9364
 3935TIP3    H233221   2.369   5.216  11.392  0.0644  0.5994 -0.6955
 3936TIP3   OH233222   2.983   3.233  13.308  0.1487 -0.1124 -0.0994
 3936TIP3    H133223   2.935   3.314  13.327 -0.7650  0.0247 -2.6355
 3936TIP3    H233224   3.010   3.201  13.394 -2.9352  0.7431  1.3438
 3937TIP3   OH233225   1.814   4.802   3.677  0.4608 -0.1272 -0.5672
 3937TIP3    H133226   1.859   4.720   3.696  0.9925  0.1426 -0.6530
 3937TIP3    H233227   1.793   4.838   3.763 -0.2618 -0.6138 -0.5322
 3938TIP3   OH233228   4.743   2.071   3.453  0.0973 -0.0110  0.2576
 3938TIP3    H133229   4.745   2.007   3.524 -1.9207 -0.3422  0.0786
 3938TIP3    H233230   4.702   2.024   3.380 -0.2050  1.0746 -0.2918
 3939TIP3   OH233231   5.440   2.667   3.931 -0.2027  0.1209  0.2222
 3939TIP3    H133232   5.350   2.696   3.945 -0.5608  0.4234 -2.2376
 3939TIP3    H233233   5.432   2.591   3.873  1.1481  1.0740 -1.3080
 3940TIP3   OH233234   4.702   0.283  14.274 -0.3087 -0.1931  0.0738
 3940TIP3    H133235   4.610   0.269  14.294 -0.1642 -0.2027  0.7674
 3940TIP3    H233236   4.720   0.372  14.307 -0.0112 -0.2903  0.1746
 3941TIP3   OH233237   1.129   2.660   4.665 -0.3331  0.2199 -0.5030
 3941TIP3    H133238   1.169   2.577   4.691 -0.1136  0.5246  0.1741
 3941TIP3    H233239   1.109   2.703   4.748 -0.5845  0.7802 -0.8497
 3942TIP3   OH233240   2.211   3.513   5.740 -0.3134  0.4160 -0.0142
 3942TIP3    H133241   2.136   3.532   5.683 -0.1139  0.4958 -0.2492
 3942TIP3    H233242   2.180   3.536   5.827 -1.5012 -2.0459  0.3007
 3943TIP3   OH233243   1.164   5.454   0.365  0.1640  0.0511 -0.2543
 3943TIP3    H133244   1.118   5.537   0.379 -0.9474 -0.3021 -1.6158
 3943TIP3    H233245   1.220   5.470   0.289 -0.4054 -0.5592 -0.8169
 3944TIP3   OH233246   4.385   5.615  11.572 -0.0456  0.6066  0.2704
 3944TIP3    H133247   4.371   5.614  11.478  0.9257 -0.0985  0.1160
 3944TIP3    H233248   4.350   5.699  11.601 -3.6541 -0.5683 -0.1611
 3945TIP3   OH233249   0.338   6.063  11.847 -0.1652  0.3169  0.1854
 3945TIP3    H133250   0.415   6.120  11.859 -0.2794  1.1030 -2.3438
 3945TIP3    H233251   0.263   6.119  11.866 -0.2028  0.4071 -0.2192
 3946TIP3   OH233252   4.726   4.809  11.132  0.1600 -0.0827 -0.0154
 3946TIP3    H133253   4.652   4.802  11.072  0.5527  0.8117 -0.6233
 3946TIP3    H233254   4.800   4.834  11.077  0.5551  0.6282  0.8164
 3947TIP3   OH233255   4.104   0.393  16.356  0.3733  0.0788  0.0940
 3947TIP3    H133256   4.151   0.476  16.348  1.1233 -0.3831 -0.4219
 3947TIP3    H233257   4.099   0.377  16.450  0.8921  0.3480  0.1719
 3948TIP3   OH233258   1.235   0.504   0.831 -0.3511  0.0680 -0.5623
 3948TIP3    H133259   1.325   0.496   0.799 -0.2402 -0.6513 -0.0861
 3948TIP3    H233260   1.233   0.452   0.911 -0.8908  1.0490  0.0770
 3949TIP3   OH233261   2.693   6.240   2.508 -0.1718  0.2020 -0.4760
 3949TIP3    H133262   2.667   6.326   2.541 -1.1343 -1.2628  3.0129
 3949TIP3    H233263   2.778   6.255   2.465  0.3744  2.6826  1.2932
 3950TIP3   OH233264   1.832   3.655   2.319 -0.2466 -0.1393  0.1712
 3950TIP3    H133265   1.886   3.616   2.387 -0.4371 -1.5696 -0.4592
 3950TIP3    H233266   1.811   3.583   2.260 -0.4367  0.9668 -1.1844
 3951TIP3   OH233267   0.808   5.849  14.132 -0.0066 -0.4044 -0.4383
 3951TIP3    H133268   0.832   5.875  14.043 -0.3751 -1.4996 -0.8662
 3951TIP3    H233269   0.761   5.925  14.167  0.2500  0.0818 -1.1253
 3952TIP3   OH233270   2.848   3.463   4.982  0.1770  0.1571  0.5756
 3952TIP3    H133271   2.864   3.445   4.890 -2.1480  0.2297  0.0971
 3952TIP3    H233272   2.786   3.395   5.010 -3.0311  2.8538  0.6709
 3953TIP3   OH233273   6.640   2.665   5.530  0.3066 -0.2121 -0.9284
 3953TIP3    H133274   6.576   2.664   5.458  0.4144  0.8955 -1.0569
 3953TIP3    H233275   6.717   2.621   5.494  0.8221  1.4086 -1.9783
 3954TIP3   OH233276   2.264   4.683   1.344 -0.5051 -0.2458  0.3710
 3954TIP3    H133277   2.179   4.695   1.387  0.5430  0.0222  2.4457
 3954TIP3    H233278   2.261   4.594   1.310 -1.5476 -0.2858  0.5335
 3955TIP3   OH233279   5.477   0.558  11.496 -0.4850  0.0411  0.1710
 3955TIP3    H133280   5.572   0.558  11.504 -0.6445 -0.6744  3.2425
 3955TIP3    H233281   5.450   0.470  11.525 -2.1077  0.3258 -0.3422
 3956TIP3   OH233282   5.788   5.244   4.930  0.3691 -0.3742  0.0830
 3956TIP3    H133283   5.728   5.259   4.857  0.3856 -1.7133 -0.2264
 3956TIP3    H233284   5.827   5.330   4.946 -3.1565  1.1412  1.7088
 3957TIP3   OH233285   6.532   4.885   0.200 -0.2543  0.8931 -0.0640
 3957TIP3    H133286   6.609   4.873   0.144 -0.9391  2.3025 -1.3897
 3957TIP3    H233287   6.505   4.796   0.222  2.5773  0.3692  1.7053
 3958TIP3   OH233288   6.546   5.262  12.146 -0.3240  0.3475 -0.2258
 3958TIP3    H133289   6.637   5.285  12.160  0.2818 -1.2574 -1.2283
 3958TIP3    H233290   6.548   5.200  12.073 -2.2958  0.8857 -0.7955
 3959TIP3   OH233291   2.572   1.246   1.088 -0.2461  0.3265 -0.0473
 3959TIP3    H133292   2.611   1.311   1.029 -1.3388  1.4185  0.3816
 3959TIP3    H233293   2.634   1.239   1.160 -0.6729  1.8500  0.5032
 3960TIP3   OH233294   3.657   1.430  15.928 -0.0952 -0.9297 -0.1108
 3960TIP3    H133295   3.722   1.498  15.908  0.3302 -1.0811  0.6984
 3960TIP3    H233296   3.620   1.406  15.843 -0.3389  0.3922 -0.4031
 3961TIP3   OH233297   6.658   4.424  11.026 -0.5041  0.1408 -0.3909
 3961TIP3    H133298   6.700   4.472  10.954  1.0480 -2.2726 -1.2346
 3961TIP3    H233299   6.708   4.450  11.103  1.8395 -1.6544 -1.1820
 3962TIP3   OH233300   2.250   5.477  11.926  0.1862 -0.0173  0.3384
 3962TIP3    H133301   2.240   5.382  11.932  1.2509 -0.0829  1.8610
 3962TIP3    H233302   2.310   5.490  11.852 -1.1188 -0.4053 -0.8206
 3963TIP3   OH233303   6.497   3.043  11.291  0.0245  0.2074 -0.0755
 3963TIP3    H133304   6.589   3.069  11.299 -0.0068  0.3812 -0.2654
 3963TIP3    H233305   6.453   3.088  11.363 -0.2163  1.5724 -1.0421
 3964TIP3   OH233306   0.085   4.941   1.735 -0.0944 -0.6655 -0.4602
 3964TIP3    H133307   0.176   4.941   1.708 -0.6285  0.8531 -2.4898
 3964TIP3    H233308   0.088   4.945   1.831  1.9489 -0.0849 -0.5105
 3965TIP3   OH233309   6.236   2.742  12.212 -0.3885  0.3402 -0.2331
 3965TIP3    H133310   6.269   2.711  12.127 -0.8388  1.6340 -0.9099
 3965TIP3    H233311   6.302   2.806  12.241 -0.5030  0.2895  0.1427
 3966TIP3   OH233312   1.560   2.728   2.365  0.0376 -0.2360 -0.4416
 3966TIP3    H133313   1.523   2.677   2.437 -1.3188  0.5183 -0.5534
 3966TIP3    H233314   1.572   2.816   2.402 -1.5898  0.4207 -1.3489
 3967TIP3   OH233315   1.885   0.010   5.727 -0.2555 -0.3668 -0.2112
 3967TIP3    H133316   1.873   0.023   5.821 -0.5140  0.3649 -0.3421
 3967TIP3    H233317   1.970  -0.034   5.720 -0.7327 -1.4338  0.4226
 3968TIP3   OH233318   2.157   1.897   1.391 -0.1042 -0.4380  0.1512
 3968TIP3    H133319   2.212   1.922   1.317  0.2574  0.8600  0.8192
 3968TIP3    H233320   2.093   1.836   1.354  0.2609 -0.0646 -1.1604
 3969TIP3   OH233321   5.998   6.421  15.022 -0.2004  0.1419 -0.3162
 3969TIP3    H133322   6.052   6.368  14.963  0.7701 -0.4379  1.0482
 3969TIP3    H233323   5.953   6.358  15.077 -0.3094  0.6834  0.2318
 3970TIP3   OH233324   4.744   3.900  14.197 -0.2356  0.0630  0.9169
 3970TIP3    H133325   4.720   3.878  14.107  0.7148 -0.9780  0.8969
 3970TIP3    H233326   4.805   3.831  14.223  1.7561  1.8804  1.3772
 3971TIP3   OH233327   6.649   1.440  16.086  0.1641 -0.5576 -0.4212
 3971TIP3    H133328   6.637   1.523  16.132 -4.5953 -0.6051 -1.1214
 3971TIP3    H233329   6.697   1.385  16.148 -0.6490  1.2482  1.9709
 3972TIP3   OH233330   0.343   1.594   4.184 -0.4505  0.5162  0.1083
 3972TIP3    H133331   0.291   1.538   4.241  0.8615 -1.3881 -0.4676
 3972TIP3    H233332   0.427   1.603   4.229 -0.2647  1.1075 -0.3331
 3973TIP3   OH233333   1.600   3.182   1.002  0.3093 -0.0192 -0.2529
 3973TIP3    H133334   1.686   3.176   1.044 -0.2548  2.3445  1.3672
 3973TIP3    H233335   1.613   3.243   0.930 -0.3001  1.5405  0.9181
 3974TIP3   OH233336   1.541   0.729  12.260 -0.5337 -0.0674  0.0110
 3974TIP3    H133337   1.578   0.685  12.337  0.4411 -0.8832 -0.8833
 3974TIP3    H233338   1.599   0.804  12.245  1.7899 -2.0829 -2.1853
 3975TIP3   OH233339   0.225   6.341  11.317 -0.0380  0.0570  0.5888
 3975TIP3    H133340   0.251   6.328  11.225  0.9810  0.7766  0.7532
 3975TIP3    H233341   0.169   6.418  11.316  0.0047  0.0875  0.5816
 3976TIP3   OH233342   0.033   6.230  16.912 -0.6134 -0.0641 -0.0826
 3976TIP3    H133343   0.090   6.284  16.857  0.1398 -0.1467  0.5901
 3976TIP3    H233344   0.060   6.251  17.002 -1.5749 -0.1961  0.2438
 3977TIP3   OH233345   3.968   0.158   3.170  0.9059  0.2050  0.2406
 3977TIP3    H133346   4.062   0.166   3.179  1.4436 -1.5713 -2.5522
 3977TIP3    H233347   3.952   0.064   3.162 -0.8522  0.5387 -1.0304
 3978TIP3   OH233348   4.610   4.580   3.810  0.1871  0.3884 -0.3166
 3978TIP3    H133349   4.543   4.645   3.791 -1.2320 -1.2721 -1.2393
 3978TIP3    H233350   4.630   4.540   3.726  1.9144  0.4349  0.0446
 3979TIP3   OH233351   2.688   1.521  12.709 -0.0270  0.6637  0.2554
 3979TIP3    H133352   2.665   1.613  12.700 -0.0136  0.7639  1.1549
 3979TIP3    H233353   2.638   1.492  12.785 -1.7306 -0.6354 -1.2492
 3980TIP3   OH233354   2.997   3.334  12.493  0.1413 -0.0526 -0.4541
 3980TIP3    H133355   3.011   3.240  12.502 -1.3090 -0.1235  1.8915
 3980TIP3    H233356   2.903   3.343  12.481  0.3759  1.0928 -1.7448
 3981TIP3   OH233357   0.247   3.057   2.305 -0.1374  0.0023  0.3709
 3981TIP3    H133358   0.282   2.997   2.371  1.8519  0.6496 -0.0185
 3981TIP3    H233359   0.229   3.137   2.354 -0.6790 -0.1902  0.4926
 3982TIP3   OH233360   1.127   3.575  16.942  0.1060  0.5068 -0.0511
 3982TIP3    H133361   1.201   3.635  16.941 -0.5729  1.3706 -1.2589
 3982TIP3    H233362   1.103   3.567  17.035 -0.7408  3.3748  0.0754
 3983TIP3   OH233363   2.294   2.104   0.509 -0.5219 -0.0162 -0.1849
 3983TIP3    H133364   2.379   2.079   0.473  0.0920  0.8503  0.6404
 3983TIP3    H233365   2.285   2.197   0.488 -0.9125  0.0857  0.4135
 3984TIP3   OH233366   5.511   5.470  13.093  0.0618  0.4752  0.3470
 3984TIP3    H133367   5.476   5.469  13.182 -1.2483 -1.4183 -0.1272
 3984TIP3    H233368   5.519   5.377  13.069  1.3549  0.9209 -1.1576
 3985TIP3   OH233369   0.385   4.866  14.472  0.0634 -0.0373  0.4185
 3985TIP3    H133370   0.296   4.835  14.456 -0.0883 -0.5157  2.0453
 3985TIP3    H233371   0.426   4.797  14.523  0.8613  0.8706  1.0381
 3986TIP3   OH233372   4.496   3.033   6.831 -0.1341  0.1186 -0.1611
 3986TIP3    H133373   4.560   3.059   6.898 -0.0963  0.2946 -0.2655
 3986TIP3    H233374   4.522   3.081   6.753  0.1745 -0.5342 -0.4688
 3987TIP3   OH233375   3.249   0.078  14.994  0.0362 -0.2195  0.7508
 3987TIP3    H133376   3.318   0.138  14.963  0.1867 -0.2273  1.0740
 3987TIP3    H233377   3.218   0.035  14.914  0.1132  0.0942  0.5500
 3988TIP3   OH233378   3.020   0.226  11.243 -0.3478 -0.5523 -0.2167
 3988TIP3    H133379   3.090   0.161  11.232 -1.0581 -1.3853  0.0940
 3988TIP3    H233380   3.046   0.277  11.319 -0.6610 -1.6516  0.6507
 3989TIP3   OH233381   4.913   6.688   4.934  0.0410 -0.4780  0.2643
 3989TIP3    H133382   4.840   6.708   4.874 -0.3163 -1.3167  0.4133
 3989TIP3    H233383   4.908   6.594   4.947  1.7853 -0.7112 -0.5261
 3990TIP3   OH233384   4.792   0.860  14.511 -0.0656  0.5853 -0.2835
 3990TIP3    H133385   4.731   0.842  14.439 -0.1143 -0.3578 -0.0240
 3990TIP3    H233386   4.741   0.911  14.574 -1.1606 -1.6308  0.7172
 3991TIP3   OH233387   1.558   0.872  15.890  0.0425  0.0420  0.6437
 3991TIP3    H133388   1.602   0.918  15.961  1.2978 -0.8269  0.4659
 3991TIP3    H233389   1.537   0.785  15.926 -0.3824  0.0060  0.3238
 3992TIP3   OH233390   2.107   6.186  15.357 -0.2700 -0.3339 -0.3494
 3992TIP3    H133391   2.079   6.228  15.439 -1.7102 -0.0172 -0.9745
 3992TIP3    H233392   2.199   6.163  15.372 -0.4134  0.0156  1.2311
 3993TIP3   OH233393   4.674   1.191   1.715 -0.2612 -0.6010 -0.1758
 3993TIP3    H133394   4.608   1.242   1.670 -0.5932 -0.6099  0.2994
 3993TIP3    H233395   4.636   1.171   1.800  0.3481 -0.6107  0.1008
 3994TIP3   OH233396   5.206   2.169  14.091  0.1082  0.4885  0.3096
 3994TIP3    H133397   5.287   2.203  14.053 -0.2172  0.5406 -0.3464
 3994TIP3    H233398   5.136   2.210  14.040 -0.3026 -1.6759 -0.9690
 3995TIP3   OH233399   5.982   2.066  13.557 -0.2518 -0.1369  0.1106
 3995TIP3    H133400   5.904   2.018  13.530 -0.2462 -0.2274  0.2537
 3995TIP3    H233401   5.952   2.122  13.629 -0.9617  2.2878 -1.9274
 3996TIP3   OH233402   6.392   4.437  16.914  0.6077 -0.1558 -0.3480
 3996TIP3    H133403   6.299   4.413  16.905  0.5522  0.4532 -1.5823
 3996TIP3    H233404   6.407   4.438  17.009 -0.3838 -1.2371 -0.1489
 3997TIP3   OH233405   0.108   4.721   5.302  0.6320 -0.2647  0.1101
 3997TIP3    H133406   0.101   4.807   5.261  1.7617 -0.5234 -0.6928
 3997TIP3    H233407   0.025   4.678   5.283  0.9700 -0.2267 -1.6106
 3998TIP3   OH233408   4.345   1.243  16.417  0.1251 -0.0653 -0.0076
 3998TIP3    H133409   4.420   1.186  16.429 -0.3402 -0.6252  0.3169
 3998TIP3    H233410   4.289   1.197  16.354 -0.9139 -0.6751  1.2891
 3999TIP3   OH233411   0.223   2.816   2.827  0.0017 -0.2840  0.4778
 3999TIP3    H133412   0.203   2.729   2.793 -0.8134 -0.0206  0.2624
 3999TIP3    H233413   0.161   2.828   2.900 -1.1110  0.7984 -0.6026
 4000TIP3   OH233414   5.035   2.430  14.408 -0.1195 -0.0123 -0.3865
 4000TIP3    H133415   5.078   2.356  14.451 -1.6242 -1.6445 -1.5371
 4000TIP3    H233416   4.941   2.410  14.413 -0.4297 -0.0494 -3.8168
 4001TIP3   OH233417   0.352   1.101   5.937  1.0900  0.5829  0.1606
 4001TIP3    H133418   0.322   1.171   5.995  1.4283  0.9624 -0.1116
 4001TIP3    H233419   0.341   1.021   5.988  2.2362  0.9918  1.1077
 4002TIP3   OH233420   5.950   5.062  17.131 -0.1147  0.0711  0.3822
 4002TIP3    H133421   5.863   5.076  17.167  0.1906 -0.8178  1.5079
 4002TIP3    H233422   6.007   5.119  17.182 -0.2164  1.9901 -1.4830
 4003TIP3   OH233423   1.021   6.397   5.653  0.5552 -0.9912 -0.7246
 4003TIP3    H133424   0.991   6.461   5.718  3.2686 -0.9792  0.6725
 4003TIP3    H233425   1.019   6.444   5.570 -1.0834 -0.3538 -0.3612
 4004TIP3   OH233426   3.945   2.848  14.399 -0.2355 -0.2863  0.0476
 4004TIP3    H133427   3.992   2.801  14.330  0.3536  1.3182 -0.6826
 4004TIP3    H233428   4.012   2.898  14.445 -0.4750 -1.9809  2.4136
 4005TIP3   OH233429   3.304   1.799   5.041 -0.5520 -0.1660 -0.0865
 4005TIP3    H133430   3.360   1.740   5.091 -0.6297 -0.1166  0.0592
 4005TIP3    H233431   3.300   1.879   5.094 -0.1136  0.1243 -0.4774
 4006TIP3   OH233432   1.330   0.679   4.168 -0.6567  0.9154  0.2711
 4006TIP3    H133433   1.276   0.650   4.241 -0.7400  1.3392  0.3816
 4006TIP3    H233434   1.289   0.760   4.139 -2.2093 -0.5435 -1.9326
 4007TIP3   OH233435   2.859   0.326  15.292 -0.0991  0.1289  0.1831
 4007TIP3    H133436   2.890   0.317  15.202 -0.1287  1.0789  0.0671
 4007TIP3    H233437   2.812   0.244  15.309 -0.5154  0.1355 -0.8321
 4008TIP3   OH233438   1.347   1.020  11.603  0.1551  0.3767 -0.6093
 4008TIP3    H133439   1.370   1.038  11.694  1.8781 -1.1332 -0.6968
 4008TIP3    H233440   1.410   1.070  11.551  0.0479  0.1778 -0.9412
 4009TIP3   OH233441   1.113   6.553  16.628 -0.5988  0.3089  0.1087
 4009TIP3    H133442   1.032   6.506  16.649 -0.1741 -1.1790 -1.4101
 4009TIP3    H233443   1.128   6.535  16.535  2.0106 -0.3389  0.5722
 4010TIP3   OH233444   6.446   4.746   3.491 -0.0957  0.7122  0.6460
 4010TIP3    H133445   6.416   4.739   3.582 -0.0479 -0.0675  0.6041
 4010TIP3    H233446   6.409   4.670   3.447 -1.3528  1.8548 -0.3621
 4011TIP3   OH233447   0.192   1.562  12.411  0.4075  0.2901  0.1643
 4011TIP3    H133448   0.218   1.638  12.359  0.4470  0.2457  0.1197
 4011TIP3    H233449   0.167   1.497  12.346  2.6198 -0.5763  0.1204
 4012TIP3   OH233450   6.281   0.936  15.238 -0.2513 -0.0712  0.1785
 4012TIP3    H133451   6.341   1.007  15.214  0.5486 -0.9915 -0.6141
 4012TIP3    H233452   6.194   0.976  15.234 -0.0736  0.2152 -3.0472
 4013TIP3   OH233453   1.201   4.680  16.358 -0.0697  0.4111 -0.3179
 4013TIP3    H133454   1.150   4.709  16.283  1.1583  0.5620 -1.1270
 4013TIP3    H233455   1.193   4.585  16.358  0.0116  0.4016 -0.7182
 4014TIP3   OH233456   4.233   3.947  16.620  0.1535  0.1251  0.1821
 4014TIP3    H133457   4.217   3.902  16.537  1.1694  1.3412 -0.7021
 4014TIP3    H233458   4.239   3.876  16.684 -1.8305 -0.7722 -0.5387
 4015TIP3   OH233459   2.096   6.407  17.043  0.3417  0.3632  0.2452
 4015TIP3    H133460   2.180   6.450  17.026  0.0559  1.3774  1.2552
 4015TIP3    H233461   2.031   6.476  17.033 -0.2228 -0.0537  0.9051
 4016TIP3   OH233462   5.220   0.915  12.351  0.1374 -0.1890  0.2259
 4016TIP3    H133463   5.126   0.895  12.351 -0.2458  1.2074  2.6415
 4016TIP3    H233464   5.262   0.830  12.364 -0.9292 -0.6319  0.9965
 4017TIP3   OH233465   4.617   2.225  13.858 -0.2739  0.3330  0.1906
 4017TIP3    H133466   4.559   2.221  13.782 -1.0279  3.0793  0.5217
 4017TIP3    H233467   4.626   2.318  13.877  2.7710 -0.0687  1.3293
 4018TIP3   OH233468   6.634   5.555   2.866 -0.3830 -0.2539  0.0337
 4018TIP3    H133469   6.672   5.469   2.884 -0.7300 -0.0511  2.0065
 4018TIP3    H233470   6.577   5.540   2.790  2.1570 -0.9442 -1.8673
 4019TIP3   OH233471   0.321   4.041   3.998 -0.0318  0.1886 -0.3291
 4019TIP3    H133472   0.305   4.091   4.078  2.0134 -1.2245  1.0696
 4019TIP3    H233473   0.245   3.983   3.991 -1.0356  1.4557 -0.3934
 4020TIP3   OH233474   2.183   1.003   3.731  0.1670 -0.6308  0.2805
 4020TIP3    H133475   2.186   0.935   3.799  2.3332  0.1336  1.0314
 4020TIP3    H233476   2.274   1.015   3.705 -0.3858  0.6460 -1.2211
 4021TIP3   OH233477   2.497   4.418  13.932 -0.4729 -0.0751  0.1919
 4021TIP3    H133478   2.542   4.407  13.848  0.8199  1.6544  0.6045
 4021TIP3    H233479   2.515   4.337  13.979  1.7732  0.2797  0.0921
 4022TIP3   OH233480   3.270   3.309   5.898 -0.3601 -0.2923 -0.0903
 4022TIP3    H133481   3.318   3.226   5.908 -1.2821 -0.8325  0.0057
 4022TIP3    H233482   3.220   3.317   5.979 -1.6107 -0.5423 -0.8022
 4023TIP3   OH233483   3.005   4.802   4.886  0.1271 -0.1632  0.4288
 4023TIP3    H133484   2.927   4.822   4.833  0.2928 -1.7972 -0.5040
 4023TIP3    H233485   2.971   4.751   4.960  0.1847  0.1002  0.6387
 4024TIP3   OH233486   5.405   1.556   5.752  0.1239 -0.1570 -0.4335
 4024TIP3    H133487   5.389   1.517   5.838 -1.9883 -0.6467 -0.9890
 4024TIP3    H233488   5.461   1.492   5.707  2.0724  0.5533  0.8488
 4025TIP3   OH233489   5.869   1.724   1.305 -0.4590 -0.3648  0.0089
 4025TIP3    H133490   5.904   1.649   1.257  0.7504 -0.8957  1.6046
 4025TIP3    H233491   5.910   1.800   1.264  0.7924 -0.8259  0.3650
 4026TIP3   OH233492   1.518   4.591  13.674 -0.2972  0.0913  0.0024
 4026TIP3    H133493   1.569   4.511  13.681  0.3229  0.6257  2.6456
 4026TIP3    H233494   1.574   4.659  13.712  0.4588  2.5506 -4.6888
 4027TIP3   OH233495   0.735   0.556  17.299 -0.9615 -0.0506 -0.4585
 4027TIP3    H133496   0.700   0.632  17.347  0.9287  0.9512 -0.5767
 4027TIP3    H233497   0.813   0.589  17.256  0.5105 -2.3160  0.2937
 4028TIP3   OH233498   5.566   6.237  14.038 -0.2279 -0.0476 -0.4455
 4028TIP3    H133499   5.599   6.316  14.080  1.5445 -1.6092  1.3352
 4028TIP3    H233500   5.645   6.193  14.006 -0.9175 -2.0472  0.4554
 4029TIP3   OH233501   6.408   3.347   0.472  0.3183  0.4443 -0.4209
 4029TIP3    H133502   6.503   3.339   0.485  0.1750 -1.6450 -0.2403
 4029TIP3    H233503   6.374   3.260   0.493 -1.7630  1.3807  0.3249
 4030TIP3   OH233504   5.980   5.045  12.054 -0.7537  0.1028 -0.7686
 4030TIP3    H133505   6.004   4.963  12.011 -2.9015 -0.6736 -0.5620
 4030TIP3    H233506   5.892   5.064  12.023 -1.6435  0.5021  1.7892
 4031TIP3   OH233507   1.099   1.677   3.026 -0.0825  0.0509  0.1565
 4031TIP3    H133508   1.015   1.720   3.045  1.0368  1.6006  2.0819
 4031TIP3    H233509   1.128   1.716   2.944 -1.5272 -1.0525 -0.9371
 4032TIP3   OH233510   0.643   5.657   2.113  0.2675 -0.1449  0.1170
 4032TIP3    H133511   0.734   5.676   2.089  0.6499 -1.5165  0.4081
 4032TIP3    H233512   0.594   5.672   2.032  0.6741  0.9794  0.0550
 4033TIP3   OH233513   5.589   1.295   0.719 -0.2188 -0.0173 -0.0036
 4033TIP3    H133514   5.577   1.371   0.662  1.5028  0.8019  0.6532
 4033TIP3    H233515   5.591   1.221   0.660 -1.1282  0.5215 -0.7412
 4034TIP3   OH233516   4.646   5.926  11.606  0.6633  0.4772  0.4065
 4034TIP3    H133517   4.574   5.972  11.564  1.2850  1.4678  0.3822
 4034TIP3    H233518   4.672   5.984  11.678  0.1637 -0.7923  1.6545
 4035TIP3   OH233519   1.085   6.658   0.647  0.2885 -0.0014 -0.4397
 4035TIP3    H133520   1.100   6.563   0.642 -0.0870 -0.2007  1.5065
 4035TIP3    H233521   1.155   6.690   0.704 -0.6177  0.6026  0.3589
 4036TIP3   OH233522   1.279   0.460   1.347 -0.5210 -0.0196 -0.1190
 4036TIP3    H133523   1.367   0.440   1.380 -0.2544  1.4255  0.1240
 4036TIP3    H233524   1.278   0.421   1.259 -0.0985 -1.1438  0.3580
 4037TIP3   OH233525   1.501   4.483  16.694  0.2970 -0.2277  0.1950
 4037TIP3    H133526   1.419   4.438  16.711  0.9056 -1.2252  0.5945
 4037TIP3    H233527   1.475   4.569  16.660 -0.8949 -0.5945  0.1363
 4038TIP3   OH233528   5.729   5.105   4.281  0.3621  0.4067 -0.0069
 4038TIP3    H133529   5.797   5.081   4.218  1.6159  0.2431  1.3782
 4038TIP3    H233530   5.659   5.041   4.266  1.5211 -0.9358  0.1644
 4039TIP3   OH233531   5.870   2.822   0.674 -0.5410 -0.2385 -0.9269
 4039TIP3    H133532   5.777   2.804   0.689 -0.1527 -0.5673  1.4315
 4039TIP3    H233533   5.911   2.811   0.760  1.3239  2.2064 -1.3865
 4040TIP3   OH233534   6.592   0.152   2.454 -0.1540 -0.4417  0.2584
 4040TIP3    H133535   6.681   0.122   2.436  1.0571  1.0593  3.0938
 4040TIP3    H233536   6.594   0.246   2.435 -1.4418 -0.5592 -0.5634
 4041TIP3   OH233537   0.624   3.233   3.843  0.1908  0.6051  0.1532
 4041TIP3    H133538   0.635   3.270   3.931  1.3178  1.1126 -0.1873
 4041TIP3    H233539   0.640   3.307   3.784  0.6238 -0.0047 -0.5055
 4042TIP3   OH233540   3.388   6.391  13.982  0.0732  0.2843 -0.4938
 4042TIP3    H133541   3.360   6.299  13.978  2.7285 -0.7250  1.0147
 4042TIP3    H233542   3.383   6.422  13.892 -2.3468 -0.7997 -0.8187
 4043TIP3   OH233543   1.737   2.900   1.978 -0.0358  0.7151  0.1134
 4043TIP3    H133544   1.732   2.844   1.900  1.9964  1.0701 -0.3334
 4043TIP3    H233545   1.808   2.861   2.030  0.5490  2.1219  0.4038
 4044TIP3   OH233546   5.740   4.786  16.296 -0.4613 -0.1143 -0.1086
 4044TIP3    H133547   5.785   4.778  16.212 -1.5325  1.4294 -0.8697
 4044TIP3    H233548   5.738   4.697  16.331  0.9689 -0.6088 -1.1959
 4045TIP3   OH233549   4.266   3.378   5.888  0.5639 -1.5681 -0.0559
 4045TIP3    H133550   4.187   3.368   5.941  0.5721  2.5470  1.1117
 4045TIP3    H233551   4.334   3.330   5.935 -0.0435 -0.3095  2.2461
 4046TIP3   OH233552   0.285   5.735  14.504 -0.0035 -0.1611 -0.1873
 4046TIP3    H133553   0.318   5.803  14.562  0.6140 -0.7420  0.1583
 4046TIP3    H233554   0.277   5.778  14.419  2.1922 -0.1069 -0.4242
 4047TIP3   OH233555   2.288   1.746   3.541 -0.5836  0.3159 -0.3751
 4047TIP3    H133556   2.325   1.835   3.549 -1.7053  0.6450  2.0989
 4047TIP3    H233557   2.267   1.737   3.448  0.4646  2.2601 -0.8566
 4048TIP3   OH233558   2.549   2.085  11.448 -0.2013 -0.1066 -0.2089
 4048TIP3    H133559   2.523   2.165  11.493  1.1196  0.7806 -0.9463
 4048TIP3    H233560   2.516   2.014  11.503  0.4166  0.9270  1.5805
 4049TIP3   OH233561   4.270   3.533  12.716 -0.4301 -0.4342 -0.0762
 4049TIP3    H133562   4.325   3.593  12.767  0.9639 -1.6933 -0.0277
 4049TIP3    H233563   4.284   3.447  12.757 -0.4887 -1.2142 -1.6236
 4050TIP3   OH233564   3.399   0.270  11.534  0.3173 -0.0922  0.3900
 4050TIP3    H133565   3.488   0.301  11.547  0.3127  0.5647 -0.9252
 4050TIP3    H233566   3.377   0.223  11.614  1.7800 -0.1173  0.7904
 4051TIP3   OH233567   3.300   3.515  13.410  0.3370  0.4799  0.2006
 4051TIP3    H133568   3.390   3.527  13.438  0.7257 -0.0318 -0.7636
 4051TIP3    H233569   3.249   3.514  13.491  1.2988 -0.0741  0.8179
 4052TIP3   OH233570   6.252   2.267  14.977 -0.1897  0.2270 -0.0447
 4052TIP3    H133571   6.295   2.192  14.936  0.4196  0.2881  0.4735
 4052TIP3    H233572   6.158   2.251  14.963 -0.0095  0.9608 -2.7468
 4053TIP3   OH233573   5.105   5.290  15.769  0.0534  0.2333 -0.3767
 4053TIP3    H133574   5.053   5.368  15.789  0.5750  0.4635  0.1280
 4053TIP3    H233575   5.082   5.268  15.679  0.0801  1.1272 -0.6163
 4054TIP3   OH233576   5.633   6.193   0.359  0.1452 -0.0734 -0.3981
 4054TIP3    H133577   5.647   6.287   0.347  0.1418 -0.0171  0.0054
 4054TIP3    H233578   5.629   6.157   0.271  0.9022  0.1970 -0.5507
 4055TIP3   OH233579   2.586   5.226   2.282  0.0245  0.0750 -0.2645
 4055TIP3    H133580   2.559   5.266   2.199  0.6223  0.9070 -0.0641
 4055TIP3    H233581   2.509   5.235   2.338 -1.1016 -2.2168 -1.2718
 4056TIP3   OH233582   0.247   4.927  14.202 -0.3947 -0.2402 -0.0948
 4056TIP3    H133583   0.237   4.998  14.139  0.4152 -1.4818 -1.7385
 4056TIP3    H233584   0.337   4.935  14.234 -0.9797  0.7222  1.3892
 4057TIP3   OH233585   5.818   0.459   1.904 -0.2969 -0.1546  0.4350
 4057TIP3    H133586   5.732   0.483   1.939 -0.2800 -1.3958  1.4158
 4057TIP3    H233587   5.856   0.542   1.876 -1.8854  0.3987 -0.2249
 4058TIP3   OH233588   0.470   2.096  14.268 -0.0647 -0.1834 -0.3218
 4058TIP3    H133589   0.535   2.159  14.234 -0.7833  0.9850  0.3965
 4058TIP3    H233590   0.474   2.023  14.207  2.4877 -0.5156  0.1392
 4059TIP3   OH233591   2.402   0.304  16.925  0.0762 -0.1066 -0.6799
 4059TIP3    H133592   2.384   0.322  16.833 -0.2130  2.6445 -0.1679
 4059TIP3    H233593   2.423   0.390  16.963 -0.5978 -1.0210  1.9912
 4060TIP3   OH233594   1.232   4.145  13.864  0.7507  0.0489  0.2505
 4060TIP3    H133595   1.276   4.120  13.782 -0.7380 -1.6795 -0.0886
 4060TIP3    H233596   1.300   4.137  13.931  1.4669 -0.6145 -0.5284
 4061TIP3   OH233597   0.096   6.425   3.271  0.2802  0.2982  0.4127
 4061TIP3    H133598   0.029   6.388   3.329  1.5046 -1.6153  0.7023
 4061TIP3    H233599   0.049   6.446   3.190 -0.6893 -0.9965  0.6011
 4062TIP3   OH233600   2.182   0.247  17.086  0.2340 -0.4583 -1.0553
 4062TIP3    H133601   2.256   0.280  17.035 -0.0312 -1.1963 -1.9405
 4062TIP3    H233602   2.159   0.319  17.145  0.9244  0.1912 -1.5682
 4063TIP3   OH233603   6.335   2.497  10.989 -0.1493 -0.4038  0.2632
 4063TIP3    H133604   6.292   2.537  10.914  0.3198 -0.5805 -0.1029
 4063TIP3    H233605   6.291   2.413  11.000 -2.0228  0.7112  1.8337
 4064TIP3   OH233606   2.991   3.765  15.521  0.4097  0.7124 -0.1874
 4064TIP3    H133607   3.030   3.721  15.597  0.2743 -0.9746 -1.0333
 4064TIP3    H233608   3.024   3.854  15.525  2.9089 -0.1465  0.1684
 4065TIP3   OH233609   6.353   0.718   3.269 -0.5913 -0.5791  0.0959
 4065TIP3    H133610   6.334   0.794   3.214  1.7825 -0.1192 -0.1720
 4065TIP3    H233611   6.270   0.700   3.314 -2.4740 -0.5689 -3.0502
 4066TIP3   OH233612   4.086   1.032   0.645 -0.5607 -0.3961 -0.4509
 4066TIP3    H133613   4.162   1.055   0.592  0.6741 -1.2051  0.8795
 4066TIP3    H233614   4.097   0.939   0.664 -3.0348 -1.1033 -1.9498
 4067TIP3   OH233615   4.505   3.457   4.437 -0.1412 -0.6032  0.1827
 4067TIP3    H133616   4.594   3.428   4.458  0.9202  2.8817  1.1383
 4067TIP3    H233617   4.458   3.453   4.520 -0.3137 -0.6207  0.0850
 4068TIP3   OH233618   3.564   1.959   3.070  0.2195 -0.5793 -0.0666
 4068TIP3    H133619   3.494   1.926   3.015  0.5531 -1.3028 -0.0586
 4068TIP3    H233620   3.554   1.912   3.153  0.6821 -0.6442 -0.0476
 4069TIP3   OH233621   0.938   5.109  14.211  0.8180  0.3848  0.1117
 4069TIP3    H133622   0.903   5.107  14.300 -1.9390  0.8799 -0.8827
 4069TIP3    H233623   1.025   5.068  14.219  0.7441  0.5950  3.0214
 4070TIP3   OH233624   6.136   4.710  14.607 -0.1320 -0.1361 -0.5691
 4070TIP3    H133625   6.132   4.798  14.570 -2.0735  0.2024  0.3001
 4070TIP3    H233626   6.147   4.652  14.532 -0.7975  0.7321 -1.3616
 4071TIP3   OH233627   6.274   4.503  17.167 -0.1680 -0.0006  0.0855
 4071TIP3    H133628   6.242   4.540  17.249  0.5147  0.3426  0.2017
 4071TIP3    H233629   6.211   4.433  17.146 -0.2697 -0.1789  0.9570
 4072TIP3   OH233630   3.687   0.676   4.457 -0.1478  0.3991 -0.0876
 4072TIP3    H133631   3.613   0.632   4.415 -1.2861 -0.1911  2.3569
 4072TIP3    H233632   3.681   0.767   4.427 -0.1589 -0.1982 -2.0630
 4073TIP3   OH233633   6.464   6.603   5.451  0.2224  0.0371 -0.6607
 4073TIP3    H133634   6.501   6.689   5.430  0.5489 -0.2251 -1.1728
 4073TIP3    H233635   6.371   6.621   5.469  0.4008  0.5653 -0.2560
 4074TIP3   OH233636   4.706   2.826  16.652  0.4224 -0.1845 -0.2218
 4074TIP3    H133637   4.627   2.876  16.671  0.9196  0.7014 -0.4019
 4074TIP3    H233638   4.681   2.734  16.665 -0.2779  0.1488  0.9983
 4075TIP3   OH233639   4.680   4.956  13.831 -0.2713  0.1524 -0.8952
 4075TIP3    H133640   4.723   5.026  13.782 -0.3129  0.5039 -0.4369
 4075TIP3    H233641   4.666   4.993  13.918 -1.5687  0.0744 -1.0514
 4076TIP3   OH233642   1.255   1.036   5.308 -0.0522 -0.5214  0.2774
 4076TIP3    H133643   1.168   1.057   5.274 -0.7311 -2.1672  0.9260
 4076TIP3    H233644   1.286   0.964   5.254  0.9259  0.0258  0.0729
 4077TIP3   OH233645   0.122   0.284   4.345  0.5946  0.8803  0.0205
 4077TIP3    H133646   0.114   0.380   4.349 -0.4857  0.7778  0.5903
 4077TIP3    H233647   0.086   0.260   4.260 -0.5167  0.8591  0.4904
 4078TIP3   OH233648   5.792   3.414   3.052 -0.2622 -0.2431  0.0735
 4078TIP3    H133649   5.859   3.418   2.984 -0.0878  0.3353  0.2730
 4078TIP3    H233650   5.830   3.460   3.127 -1.8554  2.5030 -0.6685
 4079TIP3   OH233651   0.977   4.057  17.282 -0.7869 -0.2579 -0.5134
 4079TIP3    H133652   1.020   4.008  17.352 -0.3162  0.9739  0.0864
 4079TIP3    H233653   1.049   4.102  17.236 -1.2605  0.4773 -0.5580
 4080TIP3   OH233654   4.407   4.842   0.007 -0.0615 -0.0592  0.1246
 4080TIP3    H133655   4.345   4.771   0.023 -1.9942  1.5120 -0.0080
 4080TIP3    H233656   4.355   4.922   0.017  1.5514  1.3109 -1.6283
 4081TIP3   OH233657   2.389   3.647   4.356  1.1465 -0.1755  0.8478
 4081TIP3    H133658   2.396   3.557   4.323  2.5489 -0.2159  1.1903
 4081TIP3    H233659   2.404   3.702   4.279  0.2161 -0.2150  0.6229
 4082TIP3   OH233660   4.392   2.431  14.750 -0.0738  0.3037 -0.0084
 4082TIP3    H133661   4.462   2.378  14.710 -0.5313 -0.9239  0.7556
 4082TIP3    H233662   4.329   2.366  14.781 -0.6244  1.3118  1.0231
 4083TIP3   OH233663   1.519   1.678   0.066 -0.3609 -0.0609  0.2053
 4083TIP3    H133664   1.545   1.760   0.024  0.9961 -0.0272  1.0444
 4083TIP3    H233665   1.478   1.627  -0.004 -2.1414  1.7012 -0.1060
 4084TIP3   OH233666   6.127   4.385  16.811  0.2010  0.0720 -0.1383
 4084TIP3    H133667   6.094   4.301  16.840  0.1728 -0.1428 -0.7662
 4084TIP3    H233668   6.143   4.373  16.717  1.2468  0.4211 -0.0233
 4085TIP3   OH233669   2.092   3.184   5.143  0.1522 -0.0048  0.2783
 4085TIP3    H133670   2.100   3.263   5.089 -1.1079  0.4742  0.7481
 4085TIP3    H233671   2.180   3.169   5.177  0.5508  0.8111 -0.3490
 4086TIP3   OH233672   5.073   5.866  14.081 -0.0211 -0.2983  0.8917
 4086TIP3    H133673   5.097   5.945  14.033 -0.5548 -0.4552  0.3537
 4086TIP3    H233674   5.127   5.797  14.044  0.4294 -0.1937  1.3467
 4087TIP3   OH233675   1.994   1.195  11.218  0.2260  0.2983 -0.1231
 4087TIP3    H133676   1.934   1.125  11.194  1.3928 -0.9416  0.4022
 4087TIP3    H233677   1.962   1.273  11.172 -0.8746 -0.6708 -1.0296
 4088TIP3   OH233678   3.746   1.655  15.799 -0.2204  0.1279 -0.2951
 4088TIP3    H133679   3.748   1.699  15.714 -1.5006 -0.1953 -0.5138
 4088TIP3    H233680   3.659   1.616  15.804  0.5203 -1.5157  0.3482
 4089TIP3   OH233681   4.691   5.661  16.267 -0.1106 -0.2551 -0.0744
 4089TIP3    H133682   4.659   5.686  16.353  0.7462  0.1993  0.1149
 4089TIP3    H233683   4.617   5.679  16.208 -1.4133 -2.3767  0.7913
 4090TIP3   OH233684   4.639   5.491  11.596 -0.3205  0.7537 -0.0636
 4090TIP3    H133685   4.598   5.406  11.582 -2.3016  1.2449  2.0810
 4090TIP3    H233686   4.566   5.553  11.596  0.9632  2.3529 -0.5660
 4091TIP3   OH233687   1.595   3.304   6.164 -0.1980  0.2478  0.4449
 4091TIP3    H133688   1.682   3.266   6.178  0.7190  2.0065 -0.2035
 4091TIP3    H233689   1.544   3.232   6.127  0.6660 -1.1003  1.7588
 4092TIP3   OH233690   2.610   5.024   5.640  0.3267 -0.7002  0.0169
 4092TIP3    H133691   2.642   5.011   5.551 -0.6381 -0.6733 -0.3527
 4092TIP3    H233692   2.685   5.008   5.696  2.2013  3.4718 -0.9422
 4093TIP3   OH233693   5.844   5.000  11.063  0.4507  0.0205  0.0355
 4093TIP3    H133694   5.874   5.080  11.018  1.1126 -0.0821  0.2758
 4093TIP3    H233695   5.789   4.956  10.998 -0.4499  0.9795  0.1156
 4094TIP3   OH233696   2.818   5.347  13.059  0.2876 -0.9325  0.6784
 4094TIP3    H133697   2.722   5.351  13.058  0.2808  3.2661  0.7082
 4094TIP3    H233698   2.842   5.331  12.968 -0.4463 -1.5595  0.5864
 4095TIP3   OH233699   4.320   1.203  15.561 -0.0766 -0.0310  0.1536
 4095TIP3    H133700   4.305   1.296  15.542 -1.8863 -0.2320  0.4521
 4095TIP3    H233701   4.235   1.169  15.587  0.8025 -1.5060  1.3140
 4096TIP3   OH233702   6.048   1.109  11.771 -0.4523 -0.2926 -0.3039
 4096TIP3    H133703   6.125   1.159  11.741 -0.3658 -0.4022 -0.2624
 4096TIP3    H233704   5.974   1.162  11.743 -0.3529  0.0795  0.1304
 4097TIP3   OH233705   3.783   0.138   0.677  0.6174  0.4794  0.3821
 4097TIP3    H133706   3.806   0.178   0.760  1.6433 -0.3190  0.5014
 4097TIP3    H233707   3.780   0.211   0.615 -0.8668  1.1848  1.2240
 4098TIP3   OH233708   1.077   5.142  17.240  0.3752  0.0231  0.0626
 4098TIP3    H133709   1.037   5.061  17.210  0.8345 -0.6039  1.0706
 4098TIP3    H233710   1.009   5.185  17.291 -0.7443  1.5741 -2.5470
 4099TIP3   OH233711   0.132   4.461   0.878 -0.1503  0.1028 -0.0979
 4099TIP3    H133712   0.093   4.502   0.801 -0.4573  0.4447  0.2322
 4099TIP3    H233713   0.220   4.436   0.851  0.2100  1.4038 -0.1764
 4100TIP3   OH233714   5.496   4.903   1.899  0.3625  0.4644 -0.4212
 4100TIP3    H133715   5.460   4.883   1.985  1.9968  1.9258  0.6915
 4100TIP3    H233716   5.433   4.963   1.860 -1.3211 -1.6211 -1.1008
 4101TIP3   OH233717   3.363   4.999   3.144  0.1558 -0.2581 -0.7217
 4101TIP3    H133718   3.268   4.990   3.154  0.2028  1.3829  3.1036
 4101TIP3    H233719   3.399   4.964   3.226  2.6249  1.3889 -0.9865
 4102TIP3   OH233720   5.089   3.852  11.544  0.1107  0.3013  0.3034
 4102TIP3    H133721   4.994   3.850  11.559 -0.2470  0.2499 -1.6729
 4102TIP3    H233722   5.109   3.767  11.506  1.2222 -0.2167  1.9781
 4103TIP3   OH233723   0.309   1.982  17.143 -0.1783  0.0106 -0.0942
 4103TIP3    H133724   0.366   1.909  17.167  0.1593  0.8700  1.9784
 4103TIP3    H233725   0.357   2.029  17.075  0.7309 -0.3460  0.2812
 4104TIP3   OH233726   5.970   3.134  10.630  0.2246 -0.2717  0.2409
 4104TIP3    H133727   5.964   3.076  10.706 -0.1480 -1.1547 -0.4502
 4104TIP3    H233728   5.883   3.133  10.592  1.0032 -1.8742 -1.6612
 4105TIP3   OH233729   6.508   1.844  16.165 -0.6844 -0.3703  0.0378
 4105TIP3    H133730   6.547   1.855  16.078 -1.0451  1.8505  0.1074
 4105TIP3    H233731   6.482   1.932  16.191 -1.5395 -1.1421  1.9722
 4106TIP3   OH233732   3.938   6.335   3.523  0.2165  0.0809  0.5073
 4106TIP3    H133733   3.965   6.301   3.437 -0.6862 -0.8525  0.5752
 4106TIP3    H233734   3.844   6.318   3.527 -0.3213  2.6637  0.5382
 4107TIP3   OH233735   3.078   6.242  12.725 -0.7532  0.2634  0.1310
 4107TIP3    H133736   3.068   6.259  12.632  0.5544 -0.6972 -0.2253
 4107TIP3    H233737   3.147   6.176  12.730 -1.3916 -0.3463  1.7358
 4108TIP3   OH233738   5.726   1.476  16.900  0.3431 -0.2167 -0.0879
 4108TIP3    H133739   5.681   1.393  16.915  0.8080 -0.3948  0.3248
 4108TIP3    H233740   5.771   1.495  16.982  1.0657 -0.0667 -0.5093
 4109TIP3   OH233741   4.655   0.604  13.745  0.2941  0.0503 -0.1456
 4109TIP3    H133742   4.746   0.574  13.749  0.8994  1.8667  1.5435
 4109TIP3    H233743   4.658   0.683  13.691 -0.0937  0.5660  0.5602
 4110TIP3   OH233744   2.975   5.658   5.138 -0.1759  0.3421 -0.1948
 4110TIP3    H133745   2.956   5.588   5.075  0.5118  1.4335 -1.6746
 4110TIP3    H233746   3.044   5.622   5.194  1.6150  0.4660 -2.1988
 4111TIP3   OH233747   2.049   4.957   6.255 -0.8295  0.5261 -0.2758
 4111TIP3    H133748   2.097   5.018   6.311  0.8753 -1.3351  0.3775
 4111TIP3    H233749   2.067   4.988   6.166 -1.2597  1.8557  0.0779
 4112TIP3   OH233750   3.958   5.549  10.976  0.5360  0.5242 -0.2145
 4112TIP3    H133751   3.931   5.517  10.889 -0.2228 -0.3424  0.3184
 4112TIP3    H233752   3.974   5.470  11.027  1.3666  1.0321  0.3297
 4113TIP3   OH233753   1.626   5.503   6.694 -0.0609 -0.1547  0.2070
 4113TIP3    H133754   1.560   5.498   6.625  0.1571  0.6470 -0.0695
 4113TIP3    H233755   1.646   5.596   6.701  0.1154 -0.2606  1.1756
 4114TIP3   OH233756   1.106   2.714  12.111 -0.0866 -0.7036  0.0567
 4114TIP3    H133757   1.096   2.621  12.092  0.0556 -0.3741 -1.8452
 4114TIP3    H233758   1.192   2.721  12.152 -0.1235 -1.4022  0.2732
 4115TIP3   OH233759   5.261   4.475   5.513 -0.2669 -0.4574 -0.0233
 4115TIP3    H133760   5.189   4.413   5.527 -0.7926  0.1090 -0.1326
 4115TIP3    H233761   5.221   4.546   5.462  0.8223 -0.9572 -1.6128
 4116TIP3   OH233762   1.604   4.379   2.619 -0.2661 -0.1897  0.1581
 4116TIP3    H133763   1.650   4.412   2.541  0.9260  1.0663  1.3500
 4116TIP3    H233764   1.655   4.412   2.693 -1.9538 -0.4659  1.4993
 4117TIP3   OH233765   0.284   5.911  13.466  0.2220  0.1095 -0.7177
 4117TIP3    H133766   0.338   5.832  13.463 -1.2038 -0.9139 -0.1742
 4117TIP3    H233767   0.285   5.938  13.557  1.0913  1.0171 -0.9813
 4118TIP3   OH233768   4.764   4.358   5.911 -0.1690 -0.6389  0.0529
 4118TIP3    H133769   4.829   4.410   5.958 -1.8319 -0.1816  1.9677
 4118TIP3    H233770   4.687   4.358   5.968 -1.5149 -2.0258 -1.6514
 4119TIP3   OH233771   1.546   4.535   5.496  0.2184 -0.0350  0.5415
 4119TIP3    H133772   1.474   4.536   5.559  0.5271  1.7959  0.9316
 4119TIP3    H233773   1.540   4.620   5.452  2.2566  0.2823  0.7614
 4120TIP3   OH233774   2.593   0.673   2.213 -0.5070  0.1909 -0.2346
 4120TIP3    H133775   2.498   0.675   2.218 -0.6045 -2.8154  1.4270
 4120TIP3    H233776   2.616   0.583   2.235  2.7353  0.7729 -0.7755
 4121TIP3   OH233777   4.068   0.988   1.645  0.0522 -0.1530 -0.0226
 4121TIP3    H133778   4.056   0.909   1.591  0.3897  0.7524 -1.4933
 4121TIP3    H233779   3.979   1.012   1.671 -0.0972 -0.7592  0.0516
 4122TIP3   OH233780   4.795   2.696   3.441  0.5982 -0.1594 -0.2632
 4122TIP3    H133781   4.887   2.673   3.456  0.7200  0.1071 -0.5936
 4122TIP3    H233782   4.745   2.627   3.486  0.9570 -0.0976  0.2312
 4123TIP3   OH233783   3.479   1.020   1.320  0.1811  0.6634  0.1662
 4123TIP3    H133784   3.477   1.040   1.414 -0.0369 -0.1228  0.3406
 4123TIP3    H233785   3.404   1.067   1.284  0.3516  1.0899  0.3560
 4124TIP3   OH233786   5.623   3.914   1.736  0.2598 -0.5130  0.4009
 4124TIP3    H133787   5.558   3.979   1.762  0.9031  0.2466  0.1520
 4124TIP3    H233788   5.635   3.861   1.815  2.0638  1.6578  1.7256
 4125TIP3   OH233789   5.108   6.614  14.725  0.8084  0.2964 -0.4323
 4125TIP3    H133790   5.102   6.564  14.644  1.2876  0.2971 -0.4738
 4125TIP3    H233791   5.020   6.648  14.740  0.0961 -1.7258  0.3408
 4126TIP3   OH233792   4.320   3.384  11.714  0.2182  0.0018 -0.6114
 4126TIP3    H133793   4.311   3.451  11.647 -0.7228  0.8130  0.2888
 4126TIP3    H233794   4.246   3.324  11.698 -1.2288  1.2893  0.8471
 4127TIP3   OH233795   4.557   6.094  17.388 -0.6434 -0.5642 -0.5895
 4127TIP3    H133796   4.529   6.022  17.331 -0.3180 -0.5079 -0.8181
 4127TIP3    H233797   4.646   6.072  17.413 -1.1259 -1.1276  0.7565
 4128TIP3   OH233798   2.381   2.228   5.525 -0.2288 -0.5536 -0.0745
 4128TIP3    H133799   2.295   2.219   5.483  0.0117 -2.2464 -0.2865
 4128TIP3    H233800   2.444   2.209   5.455  0.3022 -0.1798  0.2888
 4129TIP3   OH233801   1.745   1.471   3.527 -0.0149 -0.1455 -0.0054
 4129TIP3    H133802   1.771   1.557   3.494 -0.7518  1.0770  2.3591
 4129TIP3    H233803   1.650   1.469   3.516 -0.3168  0.3960  2.0600
 4130TIP3   OH233804   6.415   4.540   5.856  0.1698  0.1096  0.2842
 4130TIP3    H133805   6.414   4.448   5.882 -0.3235 -0.2253 -0.8627
 4130TIP3    H233806   6.349   4.546   5.787  0.8871  1.1211 -0.3299
 4131TIP3   OH233807   2.537   5.082  12.362 -0.5358 -0.2888  0.4312
 4131TIP3    H133808   2.539   5.150  12.430 -1.7198 -0.9588  1.1734
 4131TIP3    H233809   2.493   5.124  12.288  2.8118  1.2174 -0.8830
 4132TIP3   OH233810   2.883   4.334  15.705 -0.3678  0.2852  0.2644
 4132TIP3    H133811   2.876   4.385  15.785  0.3449 -0.9640  1.1636
 4132TIP3    H233812   2.863   4.244  15.732 -2.2226  0.1345 -1.3835
 4133TIP3   OH233813   1.617   6.551   3.537  0.5429  0.0567  0.4549
 4133TIP3    H133814   1.635   6.489   3.607  2.8282  1.5032  1.2989
 4133TIP3    H233815   1.522   6.548   3.525  0.4309 -2.5551  1.3443
 4134TIP3   OH233816   4.972   0.882  16.042 -0.2098  0.1809  0.0471
 4134TIP3    H133817   5.035   0.951  16.020  0.2790 -0.3984 -0.4180
 4134TIP3    H233818   4.904   0.889  15.975 -0.3235  0.4158  0.1871
 4135TIP3   OH233819   0.227   2.423   5.958  0.2791  0.0502 -0.1038
 4135TIP3    H133820   0.291   2.379   5.903 -0.1221  0.7388 -1.1500
 4135TIP3    H233821   0.201   2.501   5.909 -3.1700 -1.3940 -0.9074
 4136TIP3   OH233822   1.924   1.416  17.405 -0.4356 -0.2348  0.2726
 4136TIP3    H133823   1.922   1.487  17.469 -1.3787 -0.5961  0.6752
 4136TIP3    H233824   1.954   1.340  17.455  0.5777 -0.1288 -0.1577
 4137TIP3   OH233825   4.423   5.657   4.254  0.4925 -0.0513 -0.4287
 4137TIP3    H133826   4.468   5.734   4.289 -1.4004  1.5396 -1.3077
 4137TIP3    H233827   4.389   5.685   4.169 -1.0660 -1.5367 -0.3634
 4138TIP3   OH233828   3.488   5.202   4.435  0.7491 -0.5389 -0.9083
 4138TIP3    H133829   3.406   5.197   4.386  0.6450  0.6663 -0.8786
 4138TIP3    H233830   3.556   5.186   4.370  0.4851 -2.7907 -0.7187
 4139TIP3   OH233831   4.087   3.685   4.055  0.1093 -0.3573 -0.3298
 4139TIP3    H133832   4.087   3.750   3.985 -0.4893 -1.0905 -1.0273
 4139TIP3    H233833   4.000   3.645   4.050 -0.5274  0.5975  1.8075
 4140TIP3   OH233834   2.468   5.336   0.760 -0.0778 -0.4082  0.3531
 4140TIP3    H133835   2.449   5.359   0.669 -1.4306 -0.5656  0.5836
 4140TIP3    H233836   2.384   5.312   0.798  0.1613  1.2947  2.1231
 4141TIP3   OH233837   3.057   1.728  17.151  0.7264 -0.4417 -0.0804
 4141TIP3    H133838   3.054   1.800  17.088 -0.0106 -1.4773 -1.2666
 4141TIP3    H233839   2.983   1.744  17.209  1.7041  0.7958  0.8947
 4142TIP3   OH233840   4.154   1.098  16.269  0.0576 -0.0927 -0.2549
 4142TIP3    H133841   4.067   1.094  16.309 -0.1001  0.6460 -0.5124
 4142TIP3    H233842   4.139   1.132  16.181  0.4781 -1.0764 -0.7336
 4143TIP3   OH233843   4.418   2.859  17.304 -0.3690 -0.6672  0.3494
 4143TIP3    H133844   4.354   2.918  17.263  0.0029 -0.5599 -0.0856
 4143TIP3    H233845   4.368   2.781  17.327 -0.8608 -0.2052  0.8881
 4144TIP3   OH233846   3.673   1.929  16.438 -0.0539  0.1156  0.2391
 4144TIP3    H133847   3.728   1.888  16.505  0.1307 -0.2547 -0.1352
 4144TIP3    H233848   3.606   1.864  16.418  0.2261 -0.0009 -0.3418
 4145TIP3   OH233849   3.507   6.507  14.761  0.4095 -0.1652 -0.2447
 4145TIP3    H133850   3.582   6.522  14.704 -0.2267 -0.8182 -1.2860
 4145TIP3    H233851   3.515   6.415  14.787  1.2359  0.3686  1.5628
 4146TIP3   OH233852   1.962   5.635   2.220 -0.3425  0.0671  0.1413
 4146TIP3    H133853   1.967   5.729   2.240 -1.3840  0.0402  0.5973
 4146TIP3    H233854   1.931   5.595   2.301 -1.7860 -0.4261 -0.6230
 4147TIP3   OH233855   3.535   1.427   3.818 -0.3550  0.0389 -0.8104
 4147TIP3    H133856   3.466   1.397   3.879 -0.7711 -0.0833 -1.3352
 4147TIP3    H233857   3.501   1.510   3.784  0.4860  0.7904  0.1234
 4148TIP3   OH233858   1.104   0.956  15.534 -0.6509 -0.0432  0.3336
 4148TIP3    H133859   1.194   0.952  15.568 -0.4944  1.5508  0.2016
 4148TIP3    H233860   1.101   0.886  15.468  0.6470  0.1543  0.0200
 4149TIP3   OH233861   1.434   1.879   5.341 -0.9632  0.1321  0.6003
 4149TIP3    H133862   1.352   1.830   5.335 -0.8886 -0.0537  1.0801
 4149TIP3    H233863   1.496   1.816   5.377 -0.4107  0.0325 -0.4823
 4150TIP3   OH233864   1.629   3.439  15.139  0.2791 -0.0673 -0.0601
 4150TIP3    H133865   1.679   3.521  15.136 -0.4800  0.3742 -0.9471
 4150TIP3    H233866   1.633   3.413  15.231  0.3217  1.0941  0.2874
 4151TIP3   OH233867   0.198   0.354   0.073  0.1559 -0.1751 -0.0570
 4151TIP3    H133868   0.168   0.402  -0.005 -0.2727  0.3767  0.4450
 4151TIP3    H233869   0.119   0.315   0.110 -0.0810  1.7062  1.5613
 4152TIP3   OH233870   4.680   0.803  12.761 -0.5362  0.1814 -0.2256
 4152TIP3    H133871   4.591   0.779  12.735  0.3971 -3.0970 -0.9181
 4152TIP3    H233872   4.734   0.778  12.686  0.9283  3.4531 -0.4252
 4153TIP3   OH233873   1.572   4.724  16.319 -0.6795  0.6332 -0.3619
 4153TIP3    H133874   1.654   4.743  16.273  1.0856  0.5433  2.5025
 4153TIP3    H233875   1.564   4.629  16.316 -0.1293  0.5629  0.1515
 4154TIP3   OH233876   5.279   6.741   4.035 -0.2132 -0.5486  0.2815
 4154TIP3    H133877   5.326   6.662   4.007 -0.8223  0.2578 -3.5647
 4154TIP3    H233878   5.288   6.801   3.961 -1.2815  2.3711  2.3494
 4155TIP3   OH233879   2.464   2.199   0.713  0.1232 -0.4898 -0.2042
 4155TIP3    H133880   2.459   2.201   0.808  0.2672 -2.7311 -0.0949
 4155TIP3    H233881   2.384   2.153   0.686  0.4993 -0.6419 -1.0944
 4156TIP3   OH233882   0.397   3.449  15.305  0.2280  0.6323 -0.0290
 4156TIP3    H133883   0.382   3.543  15.306 -0.8556  0.4662  0.4664
 4156TIP3    H233884   0.423   3.428  15.395 -4.5964 -0.2527  1.4311
 4157TIP3   OH233885   6.167   4.681   1.920 -0.5746  0.4162  0.0408
 4157TIP3    H133886   6.179   4.630   2.000 -0.9248 -1.3829 -0.9923
 4157TIP3    H233887   6.103   4.631   1.869  2.3267 -0.5887 -3.0045
 4158TIP3   OH233888   4.951   6.276   1.565 -0.2553  0.4197  0.2505
 4158TIP3    H133889   4.882   6.309   1.623  0.4284  0.6421  0.9610
 4158TIP3    H233890   4.988   6.354   1.525  0.0457  0.3571  0.4065
 4159TIP3   OH233891   4.966   5.834   5.826  0.2556 -0.5599  0.3888
 4159TIP3    H133892   5.054   5.832   5.866  0.8190 -1.3594 -0.8293
 4159TIP3    H233893   4.938   5.925   5.836  1.1828 -0.3040  0.8809
 4160TIP3   OH233894   0.923   3.147   4.993 -0.4336  0.2150  0.0584
 4160TIP3    H133895   0.944   3.067   5.042 -1.2319 -0.3124 -0.4235
 4160TIP3    H233896   1.004   3.169   4.948  0.5582  1.1506  2.1611
 4161TIP3   OH233897   3.290   3.035   3.666  0.1511  0.0703  0.0837
 4161TIP3    H133898   3.228   3.049   3.595  0.6357 -2.4217 -0.9202
 4161TIP3    H233899   3.370   3.080   3.639  1.0896 -2.6666 -2.1654
 4162TIP3   OH233900   2.922   6.406   1.940 -0.1111 -0.1398  0.4284
 4162TIP3    H133901   3.011   6.434   1.963 -0.0854 -0.3454  0.5845
 4162TIP3    H233902   2.875   6.404   2.023 -0.9510  2.2832  0.0887
 4163TIP3   OH233903   5.292   2.029  15.456 -0.3386  0.2645  0.1534
 4163TIP3    H133904   5.351   2.075  15.515 -0.1068  0.9064 -0.5668
 4163TIP3    H233905   5.218   2.087  15.445 -0.7845 -0.2295  0.4838
 4164TIP3   OH233906   4.294   2.659   4.479  0.1213  0.1049 -0.2679
 4164TIP3    H133907   4.233   2.595   4.442 -0.7365  0.8689 -0.2049
 4164TIP3    H233908   4.323   2.710   4.403 -0.0774  0.3766 -0.1593
 4165TIP3   OH233909   2.238   0.431   3.453  0.3378  0.0767  0.0648
 4165TIP3    H133910   2.170   0.382   3.409  0.0533 -0.2381  0.8393
 4165TIP3    H233911   2.298   0.365   3.486  0.5649  0.3080  0.1221
 4166TIP3   OH233912   5.534   0.022  13.898 -0.1486  0.2844  0.1800
 4166TIP3    H133913   5.496   0.082  13.962 -0.1212  0.2288  0.2484
 4166TIP3    H233914   5.620   0.061  13.878  0.8705 -0.8980  1.9138
 4167TIP3   OH233915   2.838   3.679   2.907  0.8276  0.4313  0.1752
 4167TIP3    H133916   2.873   3.664   2.995  0.4709  0.5695  0.3446
 4167TIP3    H233917   2.827   3.592   2.870  1.3917  0.3879  0.0995
 4168TIP3   OH233918   5.804   5.325  17.383  0.3667  0.1395  0.4531
 4168TIP3    H133919   5.739   5.322  17.453  0.0599  1.3382  0.2409
 4168TIP3    H233920   5.857   5.402  17.403  0.1862  0.5775 -0.7002
 4169TIP3   OH233921   4.197   5.508  15.907 -0.1781 -0.3617  0.6581
 4169TIP3    H133922   4.140   5.583  15.922  2.0174  1.7182 -0.6484
 4169TIP3    H233923   4.238   5.490  15.991  0.6802  1.1947  0.5996
 4170TIP3   OH233924   6.332   0.127  14.304  0.1345  0.4359  0.2182
 4170TIP3    H133925   6.369   0.080  14.379  2.4761  0.7872 -0.6174
 4170TIP3    H233926   6.299   0.058  14.246  0.6110  0.0113  0.4466
 4171TIP3   OH233927   6.107   1.932   0.060  0.1033  0.0487  0.5417
 4171TIP3    H133928   6.058   1.850   0.050 -0.0409  0.1689  0.2514
 4171TIP3    H233929   6.134   1.933   0.152  0.9013 -0.7701  0.3317
 4172TIP3   OH233930   3.884   1.603  17.169 -0.2436 -0.1030  0.0561
 4172TIP3    H133931   3.940   1.538  17.127  0.2838  1.1283 -1.2587
 4172TIP3    H233932   3.814   1.619  17.104  0.5701  1.8252 -0.4308
 4173TIP3   OH233933   3.867   4.062  10.095  0.1240  0.0512  0.4989
 4173TIP3    H133934   3.944   4.060  10.038  1.3240  0.1272  2.0549
 4173TIP3    H233935   3.902   4.081  10.182 -1.6302 -0.2385  1.3084
 4174TIP3   OH233936   2.975   5.255   1.529 -0.3334  0.2335  0.0836
 4174TIP3    H133937   2.957   5.174   1.481 -0.6657  0.9616 -1.0557
 4174TIP3    H233938   3.070   5.258   1.538 -0.3601 -0.6755  0.8707
 4175TIP3   OH233939   0.186   3.376   0.071  0.1593 -0.3779  0.2070
 4175TIP3    H133940   0.201   3.386   0.165 -0.7499  1.2843  0.2214
 4175TIP3    H233941   0.095   3.403   0.058  0.6960  0.9113 -1.3214
 4176TIP3   OH233942   3.266   5.300  12.594 -0.0798 -0.2633  0.4394
 4176TIP3    H133943   3.236   5.287  12.683  0.7566  1.3795  1.0058
 4176TIP3    H233944   3.210   5.370  12.560  0.2629 -0.1815  0.0290
 4177TIP3   OH233945   4.582   6.382  14.898  0.0489  0.2921 -0.5709
 4177TIP3    H133946   4.555   6.398  14.807  1.0313 -1.0499 -1.1386
 4177TIP3    H233947   4.583   6.287  14.906  0.5548  0.3803  0.6748
 4178TIP3   OH233948   1.727   2.289   2.045  0.1723 -0.8142  0.0971
 4178TIP3    H133949   1.720   2.379   2.077 -0.2089 -0.6453 -0.4397
 4178TIP3    H233950   1.768   2.298   1.959 -0.7968 -1.0503 -0.3992
 4179TIP3   OH233951   1.434   3.114   5.848 -0.0388 -0.2506 -0.2689
 4179TIP3    H133952   1.456   3.074   5.933 -0.4258  0.8641  0.3786
 4179TIP3    H233953   1.436   3.041   5.786 -0.9985 -1.3454  0.9286
 4180TIP3   OH233954   3.351   6.031  17.374 -0.5016  0.0334  0.6198
 4180TIP3    H133955   3.387   5.978  17.445 -1.6461 -2.1790 -0.3423
 4180TIP3    H233956   3.300   6.099  17.419 -0.9356 -1.1171  1.9465
 4181TIP3   OH233957   6.073   5.878  15.024  0.1471 -0.1526 -0.1658
 4181TIP3    H133958   6.137   5.851  14.958 -1.6846 -1.3681 -1.5743
 4181TIP3    H233959   6.084   5.816  15.096  1.7211  0.7787  0.4526
 4182TIP3   OH233960   3.124   5.852  11.625 -0.3304 -0.2694  0.0683
 4182TIP3    H133961   3.197   5.909  11.599 -0.5347  0.2738  0.6581
 4182TIP3    H233962   3.053   5.875  11.565 -0.1838 -0.4252 -0.1669
 4183TIP3   OH233963   3.027   2.487   0.298  0.0031 -0.1050 -0.5049
 4183TIP3    H133964   3.110   2.485   0.251  0.0516 -1.5361 -0.4032
 4183TIP3    H233965   2.961   2.493   0.230  0.1508  4.6541 -0.5575
 4184TIP3   OH233966   2.177   3.637   2.172 -0.0965 -0.1122  0.7704
 4184TIP3    H133967   2.204   3.619   2.262 -1.5023  0.2565  1.2961
 4184TIP3    H233968   2.165   3.732   2.170  0.0202 -0.1096  0.1569
 4185TIP3   OH233969   6.527   1.052  15.878  0.6739  0.1078 -0.3828
 4185TIP3    H133970   6.591   1.053  15.949  0.2476 -2.0263  0.1139
 4185TIP3    H233971   6.529   0.962  15.846 -0.6420  0.5148 -1.7029
 4186TIP3   OH233972   1.030   4.437   2.556  0.2789  0.3585 -0.4750
 4186TIP3    H133973   1.107   4.479   2.518  0.7387 -0.1800 -0.1617
 4186TIP3    H233974   0.987   4.506   2.607  1.3125  0.3355  0.4707
 4187TIP3   OH233975   4.332   4.902   0.731  0.0690 -0.2930  0.3309
 4187TIP3    H133976   4.283   4.972   0.775  0.4701 -0.2191  0.6673
 4187TIP3    H233977   4.281   4.823   0.747  0.1800 -0.2562  0.8854
 4188TIP3   OH233978   0.214   3.218  16.231 -0.2956 -0.4265 -0.1360
 4188TIP3    H133979   0.229   3.304  16.191 -0.4036 -0.0651  0.5841
 4188TIP3    H233980   0.119   3.212  16.239 -0.3343 -0.9634 -0.9248
 4189TIP3   OH233981   3.262   6.481   1.483  0.7198  0.4959  0.7236
 4189TIP3    H133982   3.201   6.529   1.427  0.9212  1.0535  0.9800
 4189TIP3    H233983   3.242   6.510   1.572 -1.2278 -2.1153  1.2813
 4190TIP3   OH233984   1.604   2.211   5.779  0.3760 -0.0962 -0.0987
 4190TIP3    H133985   1.612   2.125   5.737  0.2422  0.1502 -0.6370
 4190TIP3    H233986   1.578   2.191   5.869 -1.3653 -0.5625 -0.6798
 4191TIP3   OH233987   4.284   6.531   0.235 -0.6704 -0.3724 -0.4731
 4191TIP3    H133988   4.191   6.549   0.245 -0.4827  1.8984 -2.0172
 4191TIP3    H233989   4.313   6.501   0.321 -2.6304 -0.1743  0.2926
 4192TIP3   OH233990   1.389   6.265   1.633  0.3231  0.0029 -0.3413
 4192TIP3    H133991   1.322   6.199   1.650 -0.3467  1.0425  1.2855
 4192TIP3    H233992   1.469   6.228   1.672 -0.2194  0.4201  1.2606
 4193TIP3   OH233993   6.056   5.211  14.875 -0.2396  0.5006  0.1849
 4193TIP3    H133994   6.116   5.264  14.823 -0.3355  1.0428  0.6091
 4193TIP3    H233995   6.000   5.275  14.919 -0.6297  0.0286  0.3881
 4194TIP3   OH233996   2.959   2.779   6.800 -0.4248 -0.1106 -0.7012
 4194TIP3    H133997   2.914   2.698   6.775  0.1042 -0.3426 -0.9193
 4194TIP3    H233998   2.942   2.839   6.727 -1.2158  0.1424 -0.3228
 4195TIP3   OH233999   0.365   0.020   3.358  0.0152  0.4364 -0.0128
 4195TIP3    H134000   0.426   0.089   3.383  0.3665  0.7984 -1.7334
 4195TIP3    H234001   0.420  -0.056   3.341 -0.0727  0.5554 -0.8615
 4196TIP3   OH234002   2.134   3.472   0.386 -0.6823 -0.0982 -0.4635
 4196TIP3    H134003   2.068   3.500   0.323 -0.5845 -1.2029 -1.0876
 4196TIP3    H234004   2.086   3.455   0.467 -0.8674  0.9466 -0.3466
 4197TIP3   OH234005   2.246   3.088  13.230 -0.0307  0.2042 -0.3791
 4197TIP3    H134006   2.265   3.040  13.311  2.3445 -0.4025 -1.2101
 4197TIP3    H234007   2.170   3.043  13.193 -0.1166 -0.5744  0.6887
 4198TIP3   OH234008   6.622   4.065   4.020  0.2049  0.3433  0.1596
 4198TIP3    H134009   6.697   4.015   3.987  0.7309  0.5190  1.0703
 4198TIP3    H234010   6.660   4.130   4.078 -0.4956  1.7219 -0.8811
 4199TIP3   OH234011   5.794   4.543  17.427  0.2510  0.1689  0.2725
 4199TIP3    H134012   5.806   4.624  17.476  1.9173 -0.6143  1.2470
 4199TIP3    H234013   5.839   4.476  17.479  0.6397 -1.0193 -1.5003
 4200TIP3   OH234014   1.475   5.601   1.012 -0.0654  0.0865 -0.0351
 4200TIP3    H134015   1.553   5.567   0.968  0.6034  0.5566  0.7380
 4200TIP3    H234016   1.418   5.630   0.941  0.3088 -0.5902 -0.6276
 4201TIP3   OH234017   2.689   5.045  16.653  0.4326  0.0667 -0.0170
 4201TIP3    H134018   2.710   5.018  16.564 -0.7596 -0.3554 -0.1905
 4201TIP3    H234019   2.654   4.965  16.694 -0.0460  0.5239  0.4781
 4202TIP3   OH234020   2.943   1.945  12.202  0.0470 -0.7324  0.1095
 4202TIP3    H134021   2.992   1.925  12.122 -0.5493 -2.0424  0.0404
 4202TIP3    H234022   2.865   1.991  12.171  1.1434  1.3052  0.2137
 4203TIP3   OH234023   3.736   5.589  14.896 -0.2741  0.1216  0.3515
 4203TIP3    H134024   3.762   5.571  14.987 -2.5531  3.6505  1.8989
 4203TIP3    H234025   3.642   5.576  14.895 -0.3874  0.8468 -1.3049
 4204TIP3   OH234026   2.661   5.604  12.813 -0.6757 -0.2796 -0.7071
 4204TIP3    H134027   2.582   5.641  12.773 -1.1457 -0.2187  0.2443
 4204TIP3    H234028   2.638   5.514  12.833 -0.6516 -0.1531 -0.0720
 4205TIP3   OH234029   1.972   3.306  13.936 -0.3010 -0.1092  0.2034
 4205TIP3    H134030   2.027   3.378  13.968 -0.7546 -0.3416  1.5713
 4205TIP3    H234031   1.999   3.295  13.844  1.0090  0.6317  0.4657
 4206TIP3   OH234032   3.091   4.512  16.427  0.1911  0.3027  0.3710
 4206TIP3    H134033   3.047   4.454  16.488  3.1083 -1.3527  1.0813
 4206TIP3    H234034   3.163   4.551  16.478 -1.3809  4.4407 -0.1319
 4207TIP3   OH234035   0.186   2.983  14.856  0.1228  0.7987 -0.2413
 4207TIP3    H134036   0.275   2.965  14.884 -0.5555  0.2460  1.6898
 4207TIP3    H234037   0.187   2.966  14.761  1.8181 -0.1177 -0.0997
 4208TIP3   OH234038   6.179   3.666  13.659 -0.6295  0.7484  0.0520
 4208TIP3    H134039   6.222   3.630  13.737  0.0679  1.3428 -0.0463
 4208TIP3    H234040   6.242   3.729  13.625 -0.3378 -0.4619 -1.7679
 4209TIP3   OH234041   3.645   5.167   2.073 -0.1877  0.2044  0.4753
 4209TIP3    H134042   3.596   5.217   2.008 -1.1925 -1.0316  0.2483
 4209TIP3    H234043   3.733   5.204   2.069 -0.3859  0.6010 -1.1218
 4210TIP3   OH234044   2.946   1.932   1.237  0.1395 -0.3834  0.3190
 4210TIP3    H134045   3.040   1.935   1.223  0.0546 -1.7960 -0.7450
 4210TIP3    H234046   2.911   1.891   1.158 -1.2020 -1.3070  1.3450
 4211TIP3   OH234047   5.406   6.000   1.821 -1.0794  0.2128  0.2472
 4211TIP3    H134048   5.457   5.921   1.838 -0.4662  0.1438 -1.6221
 4211TIP3    H234049   5.317   5.968   1.805 -1.1896  0.0819  1.0873
 4212TIP3   OH234050   2.270   6.010   3.106 -0.4792  0.9147  0.9464
 4212TIP3    H134051   2.365   6.016   3.098 -0.3152 -0.6579  1.4529
 4212TIP3    H234052   2.238   6.092   3.067  1.0154  0.9915 -0.2096
 4213TIP3   OH234053   0.002   2.361   0.097 -0.4096  0.3870 -0.3893
 4213TIP3    H134054  -0.052   2.438   0.114 -1.5615 -0.5552  0.3956
 4213TIP3    H234055   0.087   2.396   0.071 -0.6849  1.9197  0.6592
 4214TIP3   OH234056   3.608   6.682  14.346 -0.1160  0.8630 -0.1756
 4214TIP3    H134057   3.602   6.721  14.259  0.4805  0.2659 -0.4975
 4214TIP3    H234058   3.603   6.588  14.331 -2.1589  0.7947  0.6529
 4215TIP3   OH234059   4.852   0.054  15.950  0.1099 -0.4363  0.1473
 4215TIP3    H134060   4.837   0.059  15.855 -1.6517 -1.0255  0.3547
 4215TIP3    H234061   4.851   0.145  15.979 -0.4712 -0.3056 -0.2589
 4216TIP3   OH234062   4.042   5.326  14.774 -0.4504 -0.6276  0.8723
 4216TIP3    H134063   4.042   5.332  14.870 -0.4819 -1.6888  0.9552
 4216TIP3    H234064   3.960   5.281  14.753 -1.7301  1.8394  0.1392
 4217TIP3   OH234065   0.749   3.823  14.677  0.2776 -0.2072 -0.5734
 4217TIP3    H134066   0.675   3.882  14.664 -1.1754 -1.9321 -0.4349
 4217TIP3    H234067   0.727   3.774  14.756  2.0838 -0.0407  0.0721
 4218TIP3   OH234068   3.556   4.944  12.585  0.9773  0.1311  0.4788
 4218TIP3    H134069   3.507   4.917  12.506  0.4296  2.4215 -0.0360
 4218TIP3    H234070   3.496   4.924  12.657  0.0915  0.9746  0.0161
 4219TIP3   OH234071   2.442   2.614   2.021  0.5576  0.2696  0.3308
 4219TIP3    H134072   2.525   2.585   1.984 -0.1735 -0.7899 -0.5282
 4219TIP3    H234073   2.429   2.559   2.098 -0.6594 -1.5755 -1.1025
 4220TIP3   OH234074   3.002   5.343   2.457 -0.1773 -0.7247  0.1163
 4220TIP3    H134075   2.917   5.300   2.469  0.6367 -2.4990 -0.1872
 4220TIP3    H234076   3.066   5.273   2.470  1.2097  0.3609 -0.6434
 4221TIP3   OH234077   4.130   1.099   3.854  0.1320 -0.5319  0.2075
 4221TIP3    H134078   4.100   1.016   3.891 -3.5877 -0.2705 -1.7614
 4221TIP3    H234079   4.171   1.076   3.771 -2.2821 -0.4490 -1.0955
 4222TIP3   OH234080   2.632   4.459  12.896  0.5963 -0.1690  0.5703
 4222TIP3    H134081   2.622   4.377  12.847 -0.3292  0.4792 -0.3678
 4222TIP3    H234082   2.669   4.432  12.980  0.3657 -1.5389  0.2582
 4223TIP3   OH234083   2.401   6.468   4.961 -0.0122  0.6501  0.3665
 4223TIP3    H134084   2.335   6.401   4.945  0.7210 -0.2439  0.9705
 4223TIP3    H234085   2.405   6.476   5.056 -0.1947  1.6751  0.2970
 4224TIP3   OH234086   5.343   3.499  17.339 -1.0822  0.0940 -0.5007
 4224TIP3    H134087   5.355   3.536  17.251  0.3869  2.0599  0.4278
 4224TIP3    H234088   5.305   3.570  17.390 -0.8334 -0.6148  0.7174
 4225TIP3   OH234089   0.194   6.209  15.661  0.2295 -0.4328 -0.1228
 4225TIP3    H134090   0.179   6.259  15.581  0.7584  0.5239  0.3591
 4225TIP3    H234091   0.289   6.208  15.672  0.1398 -0.0359  0.7978
 4226TIP3   OH234092   6.176   6.708   4.654  0.0375 -0.3979 -0.3257
 4226TIP3    H134093   6.234   6.745   4.587 -0.5736  1.2754  0.0337
 4226TIP3    H234094   6.170   6.776   4.721 -0.6435 -1.4146  0.6801
 4227TIP3   OH234095   3.778   4.976   4.371 -0.2430  0.0196 -0.3274
 4227TIP3    H134096   3.835   5.025   4.313 -0.0752 -0.2260 -0.3722
 4227TIP3    H234097   3.787   4.885   4.342 -1.3694  0.0919 -0.9400
 4228TIP3   OH234098   3.612   0.380  15.318  0.3047  0.8166 -0.3974
 4228TIP3    H134099   3.582   0.293  15.291 -0.6359  0.7803  0.6770
 4228TIP3    H234100   3.570   0.440  15.257  0.3373  0.5674 -0.6665
 4229TIP3   OH234101   1.246   6.478   0.214  0.1494 -0.2790  0.2450
 4229TIP3    H134102   1.190   6.402   0.231 -2.2437  0.5033 -3.0209
 4229TIP3    H234103   1.335   6.444   0.220 -0.7867 -3.0439  0.1976
 4230TIP3   OH234104   5.458   3.322  16.147 -0.2032  0.3609 -0.0114
 4230TIP3    H134105   5.502   3.238  16.131 -1.6239  0.1007 -3.2636
 4230TIP3    H234106   5.368   3.298  16.170 -0.7543  0.9338 -1.4505
 4231TIP3   OH234107   0.106   6.181   1.388  0.0137  0.1125  0.1772
 4231TIP3    H134108   0.177   6.231   1.428  0.5164  0.3413 -0.9803
 4231TIP3    H234109   0.142   6.094   1.374  0.0377  0.1965 -0.3049
 4232TIP3   OH234110   2.633   5.643   3.898  0.1628  0.7499 -0.6579
 4232TIP3    H134111   2.675   5.718   3.855  0.3418  1.4477  0.6895
 4232TIP3    H234112   2.688   5.568   3.875  2.3219  1.6619  1.1628
 4233TIP3   OH234113   6.631   0.168   2.738 -0.1296  0.4680  0.7640
 4233TIP3    H134114   6.598   0.190   2.651  0.7794  0.3070  0.3686
 4233TIP3    H234115   6.646   0.252   2.781  0.2739  0.5704  0.4293
 4234TIP3   OH234116   4.869   3.442  10.733  0.0250 -0.0309 -0.4285
 4234TIP3    H134117   4.810   3.489  10.791 -0.3213  0.4218 -1.1392
 4234TIP3    H234118   4.853   3.350  10.751  0.4737  0.0972  0.7391
 4235TIP3   OH234119   4.429   0.320   3.189 -0.0820 -0.7138 -0.0368
 4235TIP3    H134120   4.461   0.406   3.213  0.9972 -0.9821 -0.4300
 4235TIP3    H234121   4.334   0.329   3.186  0.0009  0.3666  0.2613
 4236TIP3   OH234122   0.366   1.804  16.534 -0.2649  0.4883  0.2589
 4236TIP3    H134123   0.385   1.850  16.453 -0.9165  1.0203  0.3996
 4236TIP3    H234124   0.421   1.846  16.599  0.8754 -0.4828 -0.0490
 4237TIP3   OH234125   4.911   1.169  14.087 -0.4972 -0.6235  0.0573
 4237TIP3    H134126   4.833   1.169  14.031 -0.3419  0.6031 -0.1994
 4237TIP3    H234127   4.878   1.187  14.175 -0.6660 -1.8312  0.2572
 4238TIP3   OH234128   0.068   6.027   0.067 -0.2462  0.4358  0.0447
 4238TIP3    H134129   0.014   6.081   0.125 -0.0242  2.6014 -1.6351
 4238TIP3    H234130   0.158   6.047   0.093 -0.1412 -1.3193  1.2247
 4239TIP3   OH234131   1.252   5.635  16.690  0.1863  0.0542  0.0167
 4239TIP3    H134132   1.223   5.549  16.719  0.6024  0.3048  1.2625
 4239TIP3    H234133   1.324   5.657  16.749  1.3503  0.4623 -1.4754
 4240TIP3   OH234134   5.798   5.648  15.627  0.2009  0.5202 -0.3220
 4240TIP3    H134135   5.834   5.625  15.541 -0.6600  0.3426 -0.6461
 4240TIP3    H234136   5.713   5.688  15.608 -1.2285 -1.9159  0.5277
 4241TIP3   OH234137   4.615   4.609  14.710 -0.2764 -0.2652  0.2051
 4241TIP3    H134138   4.682   4.541  14.701  0.2643  0.2977 -0.0937
 4241TIP3    H234139   4.613   4.629  14.803  0.6618  0.3927  0.0943
 4242TIP3   OH234140   6.304   0.490  16.305  0.2302 -0.0347 -0.7433
 4242TIP3    H134141   6.377   0.433  16.330  0.6177  0.7654  0.0130
 4242TIP3    H234142   6.282   0.463  16.216  1.1357 -0.6155 -0.8075
 4243TIP3   OH234143   2.869   4.412   3.564  0.1182 -0.0439  0.4727
 4243TIP3    H134144   2.875   4.317   3.560 -1.3511 -0.1499  0.1054
 4243TIP3    H234145   2.945   4.439   3.616  0.1498 -1.4692  1.2168
 4244TIP3   OH234146   3.788   1.349  14.697 -0.6860  0.1969  0.4288
 4244TIP3    H134147   3.742   1.329  14.615 -0.0088  2.2173 -0.4950
 4244TIP3    H234148   3.722   1.333  14.765 -2.0837  0.9145 -0.6931
 4245TIP3   OH234149   4.442   4.727  14.185 -0.3295 -0.1607  0.4695
 4245TIP3    H134150   4.484   4.804  14.222 -1.2629  0.2171  0.7732
 4245TIP3    H234151   4.491   4.710  14.104  0.5247  0.1304  0.9141
 4246TIP3   OH234152   2.333   2.211  13.552  0.2964  0.3561  0.1199
 4246TIP3    H134153   2.282   2.292  13.544 -1.5967 -0.9117 -2.0593
 4246TIP3    H234154   2.354   2.187  13.462 -0.0274 -2.0274  0.6060
 4247TIP3   OH234155   5.577   3.218  12.457 -0.5461  0.0065 -0.3845
 4247TIP3    H134156   5.565   3.150  12.524 -1.2321 -1.3344 -1.7997
 4247TIP3    H234157   5.488   3.238  12.427 -0.1512 -1.4142 -2.7461
 4248TIP3   OH234158   1.505   3.538  16.248  0.2436  0.1007 -0.2909
 4248TIP3    H134159   1.586   3.500  16.282  0.4630 -2.0991 -2.9708
 4248TIP3    H234160   1.435   3.483  16.284 -0.0645  1.4390  1.2786
 4249TIP3   OH234161   4.445   4.213  11.376 -0.2857 -0.0080 -0.3930
 4249TIP3    H134162   4.404   4.150  11.436  0.0626  0.5261  0.4146
 4249TIP3    H234163   4.396   4.203  11.295 -0.1335 -1.4473 -0.3399
 4250TIP3   OH234164   3.100   1.057   3.531 -0.1471  0.2620  0.2720
 4250TIP3    H134165   3.100   1.085   3.439  2.1868  0.1596  0.1768
 4250TIP3    H234166   3.083   1.137   3.580  2.0287  1.0743 -0.1713
 4251TIP3   OH234167   3.349   5.857  14.120  0.3604 -0.1982  0.2246
 4251TIP3    H134168   3.387   5.929  14.069  0.2657 -0.7581 -0.6479
 4251TIP3    H234169   3.411   5.845  14.192  1.0299 -0.0568 -0.3047
 4252TIP3   OH234170   5.786   1.995  16.452  0.3236 -0.2728 -0.1254
 4252TIP3    H134171   5.757   1.942  16.526 -0.7550  0.2806 -0.1340
 4252TIP3    H234172   5.816   1.931  16.387  2.0574 -0.7301  1.0754
 4253TIP3   OH234173   3.649   5.324   5.358  0.2451 -0.0018  0.0376
 4253TIP3    H134174   3.696   5.373   5.290 -0.0391 -0.8298 -0.7750
 4253TIP3    H234175   3.686   5.356   5.440  0.2719  1.3520 -0.4809
 4254TIP3   OH234176   5.482   2.127   4.700  0.0737  1.0498  0.3158
 4254TIP3    H134177   5.507   2.087   4.617  0.0589  2.3299 -0.3228
 4254TIP3    H234178   5.555   2.109   4.759  0.5683  1.0652 -0.2854
 4255TIP3   OH234179   6.082   0.878  12.613 -0.4588 -0.0834 -0.1692
 4255TIP3    H134180   6.077   0.875  12.517 -1.1898  1.8587 -0.2303
 4255TIP3    H234181   5.998   0.844  12.642 -0.6978  0.4319 -0.2538
 4256TIP3   OH234182   0.496   2.572   4.917 -0.3812 -0.2822  0.2141
 4256TIP3    H134183   0.489   2.663   4.947  0.6824 -0.1691  0.1365
 4256TIP3    H234184   0.516   2.578   4.824  0.4497 -0.5754  0.3649
 4257TIP3   OH234185   1.214   3.062  13.891 -0.5146 -0.4562 -0.7064
 4257TIP3    H134186   1.218   3.046  13.796 -0.3928  0.7915 -0.9270
 4257TIP3    H234187   1.164   3.143  13.899  0.9039  0.3688  0.1870
 4258TIP3   OH234188   4.454   1.396   3.614 -0.3763 -0.2292  0.1279
 4258TIP3    H134189   4.449   1.388   3.709  3.1734 -2.4159  0.2774
 4258TIP3    H234190   4.434   1.309   3.581 -1.4940  0.4854 -1.1902
 4259TIP3   OH234191   4.375   0.976   2.078  0.1054  0.3253  0.0252
 4259TIP3    H134192   4.426   1.012   2.150 -1.1776  0.3267  0.9558
 4259TIP3    H234193   4.381   1.042   2.008  0.4098  0.8496  0.5420
 4260TIP3   OH234194   3.726   4.326   3.665 -0.1690 -0.0457  0.7981
 4260TIP3    H134195   3.635   4.342   3.641  0.2435  1.1712 -0.0823
 4260TIP3    H234196   3.743   4.236   3.639 -0.8528  0.0267  0.0702
 4261TIP3   OH234197   4.518   5.945   4.786  0.0825 -0.6168 -0.1099
 4261TIP3    H134198   4.554   6.010   4.726 -0.7431  0.0195  0.0750
 4261TIP3    H234199   4.566   5.959   4.868  1.5611 -1.8072 -0.7028
 4262TIP3   OH234200   2.810   4.123   5.042 -0.6194 -0.4260 -0.0839
 4262TIP3    H134201   2.852   4.085   4.965 -1.0595 -0.2249 -0.4276
 4262TIP3    H234202   2.745   4.057   5.068 -0.9993 -0.1559 -0.3465
 4263TIP3   OH234203   6.391   5.470   0.136  0.0007  0.2149 -0.0556
 4263TIP3    H134204   6.436   5.388   0.155 -0.5058 -0.6423 -2.2208
 4263TIP3    H234205   6.315   5.445   0.083 -1.0628  1.9527  0.5455
 4264TIP3   OH234206   5.371   4.903   2.675 -0.2219  0.0809 -0.3331
 4264TIP3    H134207   5.358   4.996   2.661 -0.6742  0.0236 -0.2957
 4264TIP3    H234208   5.451   4.897   2.728 -0.8046  0.4935  0.5975
 4265TIP3   OH234209   1.353   6.496   3.523  0.3325  0.3173  0.0170
 4265TIP3    H134210   1.261   6.481   3.503  0.1423  2.1252 -0.6055
 4265TIP3    H234211   1.353   6.552   3.600  0.8127  2.1560 -1.2507
 4266TIP3   OH234212   5.197   0.472  12.614  0.3340 -0.1618  0.4145
 4266TIP3    H134213   5.137   0.523  12.668 -0.0089 -0.6946  0.5515
 4266TIP3    H234214   5.143   0.443  12.539  1.2160  1.9696 -1.1280
 4267TIP3   OH234215   5.079   6.265   3.733  0.0461 -0.3877  0.0233
 4267TIP3    H134216   5.170   6.257   3.703  0.2383  2.7403 -0.5249
 4267TIP3    H234217   5.065   6.186   3.786  2.6897 -1.5140 -0.7613
 4268TIP3   OH234218   1.917   3.279   4.406  0.1013  0.0658 -0.0684
 4268TIP3    H134219   2.001   3.240   4.430 -0.0748  0.8842  2.1628
 4268TIP3    H234220   1.864   3.205   4.374  0.7377 -1.0159  1.2608
 4269TIP3   OH234221   1.394   3.717   3.896 -0.2316 -0.2216 -0.1030
 4269TIP3    H134222   1.357   3.641   3.942  1.1325 -1.1664 -0.4868
 4269TIP3    H234223   1.452   3.758   3.961 -1.5674  0.9876  0.3580
 4270TIP3   OH234224   3.319   1.675  16.838 -0.1872 -0.0014  0.1653
 4270TIP3    H134225   3.317   1.701  16.930  2.9636  1.6603 -0.1243
 4270TIP3    H234226   3.264   1.739  16.793  1.7001  1.8732  0.4098
 4271TIP3   OH234227   1.295   5.515  15.529  0.4085  0.2152  0.0460
 4271TIP3    H134228   1.333   5.429  15.546 -0.0404  0.4769  3.0600
 4271TIP3    H234229   1.223   5.498  15.468  0.1714 -1.6114  0.7732
 4272TIP3   OH234230   0.593   5.303  14.189 -0.8977 -0.4445 -0.7713
 4272TIP3    H134231   0.570   5.342  14.273  0.5868 -0.7126 -0.2206
 4272TIP3    H234232   0.591   5.209  14.205  0.2593 -0.4799 -0.7789
 4273TIP3   OH234233   0.126   4.232  13.333 -0.0278  0.0554  0.5097
 4273TIP3    H134234   0.042   4.238  13.288  0.2850 -0.6850 -0.1924
 4273TIP3    H234235   0.104   4.201  13.421 -0.6149  1.2428  0.7941
 4274TIP3   OH234236   6.555   0.366   4.260  0.1497  0.3046 -0.4857
 4274TIP3    H134237   6.581   0.458   4.269  0.3086  0.2167 -0.0417
 4274TIP3    H234238   6.510   0.345   4.342 -3.0707  0.9908 -1.9082
 4275TIP3   OH234239   2.437   6.536  14.959  0.0960  0.3503 -0.7531
 4275TIP3    H134240   2.444   6.631  14.954  0.0872  0.3700 -0.4581
 4275TIP3    H234241   2.386   6.520  15.039  1.0428  0.0737 -0.1773
 4276TIP3   OH234242   4.757   3.818  13.862 -0.1558  0.0575  0.5066
 4276TIP3    H134243   4.764   3.912  13.877  1.0392  0.0489  0.1153
 4276TIP3    H234244   4.845   3.791  13.835 -0.7728 -0.9673 -0.5882
 4277TIP3   OH234245   2.078   6.147  14.767  0.4558 -0.6013 -0.2506
 4277TIP3    H134246   2.148   6.212  14.776  0.4082 -0.2232 -2.1334
 4277TIP3    H234247   2.072   6.132  14.673 -0.8628 -1.8983  0.0110
 4278TIP3   OH234248   2.256   6.026   0.387  0.0953  0.0580 -0.6612
 4278TIP3    H134249   2.278   5.987   0.472 -0.0526 -0.2614 -0.7681
 4278TIP3    H234250   2.309   5.978   0.324  0.0603  0.1651 -0.7733
 4279TIP3   OH234251   5.030   6.452  16.166  0.4194 -0.1955  0.1098
 4279TIP3    H134252   5.050   6.519  16.231 -0.4074 -0.3812  0.5744
 4279TIP3    H234253   5.002   6.501  16.089  0.3572  0.0083  0.2602
 4280TIP3   OH234254   0.185   0.286  14.791 -0.1421 -0.1842  0.0931
 4280TIP3    H134255   0.238   0.364  14.808 -1.5399  0.4176  1.8591
 4280TIP3    H234256   0.130   0.311  14.716 -0.5779  0.5327  0.6402
 4281TIP3   OH234257   0.446   6.256  13.802  0.0281 -0.2276  0.0744
 4281TIP3    H134258   0.397   6.329  13.764  0.6004  1.2447  2.0426
 4281TIP3    H234259   0.535   6.268  13.770  0.1917  0.1279  0.6645
 4282TIP3   OH234260   4.826   5.468  13.466 -0.1150 -0.0254  0.5659
 4282TIP3    H134261   4.895   5.401  13.472 -2.3809 -2.3794  2.9175
 4282TIP3    H234262   4.799   5.466  13.374  2.2776  0.3357 -0.2000
 4283TIP3   OH234263   1.969   4.213  11.494  0.2962 -0.0673 -0.0361
 4283TIP3    H134264   1.943   4.214  11.401  0.8450  0.8708 -0.1932
 4283TIP3    H234265   2.062   4.188  11.492  0.5865  0.9360  0.1675
 4284TIP3   OH234266   0.568   3.003   2.608  0.8785 -0.0412 -0.1000
 4284TIP3    H134267   0.535   2.926   2.561 -1.5912 -0.6213  2.3479
 4284TIP3    H234268   0.567   3.073   2.543 -2.2114 -0.8329 -1.0600
 4285TIP3   OH234269   5.070   3.244  11.525  0.2711  0.3813 -1.1182
 4285TIP3    H134270   5.034   3.155  11.522 -0.5644  0.7210 -1.9225
 4285TIP3    H234271   5.089   3.265  11.433 -2.8518  2.2883 -1.4755
 4286TIP3   OH234272   1.143   0.250  13.673 -0.0114 -0.1433 -0.9248
 4286TIP3    H134273   1.147   0.290  13.586 -0.1999  2.6656  0.2315
 4286TIP3    H234274   1.218   0.288  13.720 -0.1871 -1.2289  0.2833
 4287TIP3   OH234275   3.379   4.507  15.660 -0.2877  0.2026  0.3520
 4287TIP3    H134276   3.303   4.503  15.603 -1.4992 -0.2610  1.9104
 4287TIP3    H234277   3.367   4.434  15.721  0.9627  0.6413  1.1732
 4288TIP3   OH234278   6.411   2.870  12.415  0.0146  0.2257 -0.4739
 4288TIP3    H134279   6.481   2.934  12.415  0.3578 -0.1358 -1.1048
 4288TIP3    H234280   6.355   2.895  12.488  0.9829  0.3102  0.2545
 4289TIP3   OH234281   5.060   5.627  11.418 -0.0259 -0.2013  0.3549
 4289TIP3    H134282   4.998   5.553  11.423 -0.1914 -0.1452 -0.6773
 4289TIP3    H234283   5.055   5.656  11.327  0.6240  0.5901  0.5647
 4290TIP3   OH234284   2.714   4.407   2.296  0.0485  0.3110  0.0588
 4290TIP3    H134285   2.742   4.481   2.350  1.4398  0.6778 -1.0732
 4290TIP3    H234286   2.770   4.413   2.218  0.0763 -1.8402 -0.1403
 4291TIP3   OH234287   1.486   2.399  12.027  0.3049 -0.0349 -0.5902
 4291TIP3    H134288   1.414   2.357  12.074  0.6421  0.2898  0.2347
 4291TIP3    H234289   1.507   2.476  12.080  3.4733 -1.8300  1.1178
 4292TIP3   OH234290   5.498   4.302   6.214  0.1893  0.3010 -0.3615
 4292TIP3    H134291   5.507   4.396   6.222  1.0222  0.4389 -2.4153
 4292TIP3    H234292   5.549   4.279   6.137 -0.7047 -1.7139 -0.4221
 4293TIP3   OH234293   3.680   1.439   2.953 -0.4337  0.7039 -1.1590
 4293TIP3    H134294   3.600   1.392   2.976 -0.4694  1.8946  1.5496
 4293TIP3    H234295   3.689   1.506   3.021  1.4738  2.3385 -2.8645
 4294TIP3   OH234296   5.324   4.364   2.240 -0.0733 -0.2287 -0.6478
 4294TIP3    H134297   5.335   4.269   2.244  0.7730 -0.1424 -0.7822
 4294TIP3    H234298   5.394   4.395   2.182 -0.5267  0.4496 -0.8506
 4295TIP3   OH234299   5.697   4.053  14.266  0.8144 -0.6375 -0.0162
 4295TIP3    H134300   5.611   4.012  14.276  1.2481 -1.5386  0.1520
 4295TIP3    H234301   5.684   4.121  14.200 -0.2186 -0.1900  0.6350
 4296TIP3   OH234302   3.481   6.145  14.980 -0.4437 -0.1278 -0.0438
 4296TIP3    H134303   3.403   6.164  14.927 -0.8118  0.7198  0.7480
 4296TIP3    H234304   3.445   6.111  15.063  0.1676 -2.8646 -0.8211
 4297TIP3   OH234305   0.742   4.772   5.357 -0.6895 -0.3169  0.5291
 4297TIP3    H134306   0.766   4.803   5.270 -0.5047  0.9923  1.0148
 4297TIP3    H234307   0.691   4.693   5.341  1.2170 -1.3969 -0.6669
 4298TIP3   OH234308   1.674   1.942   2.875  0.6906  0.1348 -0.1219
 4298TIP3    H134309   1.721   2.018   2.841  0.3381  0.7695  0.7810
 4298TIP3    H234310   1.668   1.958   2.969 -2.5809  0.8229 -0.3350
 4299TIP3   OH234311   1.510   5.991  11.336  0.4453  0.0865 -0.6141
 4299TIP3    H134312   1.562   5.935  11.278  1.8365  1.7877 -1.0808
 4299TIP3    H234313   1.572   6.019  11.403 -1.3139 -2.5937  2.4112
 4300TIP3   OH234314   5.510   0.791  14.264 -0.1526 -0.2982  0.1186
 4300TIP3    H134315   5.527   0.697  14.266  1.0951 -0.2369 -2.4645
 4300TIP3    H234316   5.423   0.801  14.303  1.5525 -1.8515  4.9450
 4301TIP3   OH234317   4.957   2.063  13.411 -0.4330  0.9903 -0.5055
 4301TIP3    H134318   4.993   2.041  13.325 -1.1095  2.1161 -1.0865
 4301TIP3    H234319   4.971   2.157  13.420  0.0372  0.8163  0.8227
 4302TIP3   OH234320   3.769   1.625   3.660  0.1124 -0.0179 -0.0434
 4302TIP3    H134321   3.691   1.681   3.665 -1.0304 -1.4661 -0.9766
 4302TIP3    H234322   3.740   1.546   3.615  2.2134 -0.4758 -0.7255
 4303TIP3   OH234323   2.711   5.612   2.380 -0.2663  0.2209  0.2680
 4303TIP3    H134324   2.804   5.593   2.364 -0.3070  1.0386 -1.0988
 4303TIP3    H234325   2.676   5.633   2.293 -1.1396  2.4414  1.0917
 4304TIP3   OH234326   4.317   3.493   6.262 -0.3304  0.3280  0.8118
 4304TIP3    H134327   4.392   3.525   6.312 -1.4393  0.9551  2.1368
 4304TIP3    H234328   4.272   3.432   6.322  0.4023 -1.9465 -0.8034
 4305TIP3   OH234329   1.821   4.951   1.768 -0.0769  0.0792  0.2316
 4305TIP3    H134330   1.801   4.998   1.848 -1.3567  0.5357 -0.3240
 4305TIP3    H234331   1.738   4.951   1.719  0.2784 -1.4732 -0.4327
 4306TIP3   OH234332   3.275   0.768  12.332 -0.1146 -0.8716  0.5917
 4306TIP3    H134333   3.250   0.744  12.422  0.5401 -0.3984  0.9152
 4306TIP3    H234334   3.300   0.861  12.339 -0.6292 -0.6714 -0.2047
 4307TIP3   OH234335   2.876   4.162  14.719 -0.3061  0.9302  0.3183
 4307TIP3    H134336   2.891   4.181  14.626  1.1815  2.4225  0.8083
 4307TIP3    H234337   2.919   4.078  14.734  0.7736  1.4040 -0.0383
 4308TIP3   OH234338   3.902   5.979   3.253 -0.3709  0.2916  0.4656
 4308TIP3    H134339   3.901   6.069   3.286  0.2168  0.2905  0.4833
 4308TIP3    H234340   3.952   5.984   3.172  0.1524 -0.1168  0.7579
 4309TIP3   OH234341   2.130   2.485  11.883 -0.4774 -0.1998  0.9212
 4309TIP3    H134342   2.195   2.418  11.901 -0.4300 -0.0176  1.4451
 4309TIP3    H234343   2.048   2.437  11.871 -0.2174 -0.4447  0.0701
 4310TIP3   OH234344   0.131   2.328  14.897  0.6879  0.3873 -0.4220
 4310TIP3    H134345   0.053   2.361  14.940  1.0892 -0.3862  0.9433
 4310TIP3    H234346   0.107   2.240  14.867  0.5561  0.7436 -1.3898
 4311TIP3   OH234347   1.476   3.587   5.661  0.3468 -0.1076  0.5526
 4311TIP3    H134348   1.424   3.510   5.638  0.4444  0.1992 -0.8035
 4311TIP3    H234349   1.447   3.611   5.749 -0.6702 -0.8800  0.4420
 4312TIP3   OH234350   4.832   0.940   2.686  0.3892  0.1054  0.1733
 4312TIP3    H134351   4.795   0.950   2.598 -0.0337  0.4182  0.3836
 4312TIP3    H234352   4.781   0.999   2.741 -0.6843 -1.5373  1.0329
 4313TIP3   OH234353   0.097   0.510   1.601 -0.0225 -0.5038 -0.3560
 4313TIP3    H134354   0.154   0.435   1.582  4.1337  1.9846  0.7482
 4313TIP3    H234355   0.093   0.558   1.519 -0.0907 -0.4275 -0.3084
 4314TIP3   OH234356   4.880   2.536   1.256 -0.3045  0.5795 -0.0642
 4314TIP3    H134357   4.944   2.579   1.198 -0.4031  1.4017  0.4141
 4314TIP3    H234358   4.809   2.600   1.263 -0.7242  0.0838  0.1954
 4315TIP3   OH234359   4.973   2.973  11.658 -0.7182  0.2742 -0.2052
 4315TIP3    H134360   4.887   2.995  11.693 -0.9258 -0.8871  0.0402
 4315TIP3    H234361   5.034   3.003  11.725 -0.9730  0.4034 -0.0295
 4316TIP3   OH234362   0.483   1.551  16.322 -0.4430  0.7493 -0.7924
 4316TIP3    H134363   0.513   1.576  16.410 -0.4178 -1.4361 -0.1169
 4316TIP3    H234364   0.388   1.558  16.327 -0.4468  0.5361 -0.5618
 4317TIP3   OH234365   1.286   3.615  10.572 -0.1878 -0.8279 -1.0543
 4317TIP3    H134366   1.348   3.610  10.645  0.4317  2.6250 -1.1673
 4317TIP3    H234367   1.328   3.565  10.502  0.7728 -1.4605 -0.0637
 4318TIP3   OH234368   5.894   1.822  14.847 -0.7433 -0.2127 -0.0142
 4318TIP3    H134369   5.907   1.797  14.755 -1.4545  0.4880 -0.3184
 4318TIP3    H234370   5.821   1.884  14.844 -0.9115 -0.3498  1.0547
 4319TIP3   OH234371   3.442   2.654  12.864  0.0433 -0.4542 -0.6864
 4319TIP3    H134372   3.458   2.586  12.798 -0.6446 -0.8839 -0.4153
 4319TIP3    H234373   3.484   2.620  12.943  1.3790  0.3221 -1.0174
 4320TIP3   OH234374   4.420   6.395  11.291 -0.0685 -0.3053  0.1952
 4320TIP3    H134375   4.443   6.317  11.341  0.3251  0.1299  0.7141
 4320TIP3    H234376   4.490   6.458  11.312  0.1472 -0.1277 -0.9466
 4321TIP3   OH234377   4.534   0.024   0.672  0.5901 -0.4334 -0.1479
 4321TIP3    H134378   4.625   0.051   0.661 -0.0795  1.5790 -1.1817
 4321TIP3    H234379   4.501   0.016   0.582  0.4717 -4.1228  0.0600
 4322TIP3   OH234380   0.122   2.278  15.398  0.0621  0.1562  0.0752
 4322TIP3    H134381   0.180   2.352  15.379 -0.9166  0.6573 -1.1401
 4322TIP3    H234382   0.121   2.227  15.316 -0.6457 -0.2384  0.3205
 4323TIP3   OH234383   0.584   4.598  12.374 -0.6555 -0.0294 -0.1621
 4323TIP3    H134384   0.494   4.625  12.390 -0.3048  0.8072  0.5034
 4323TIP3    H234385   0.621   4.585  12.462 -0.6320 -2.1752 -0.4434
 4324TIP3   OH234386   3.479   1.823  10.711  0.3362 -0.1970  0.0665
 4324TIP3    H134387   3.555   1.801  10.658  0.7377  3.8231 -1.3716
 4324TIP3    H234388   3.512   1.825  10.801  2.0926  1.7842 -0.5566
 4325TIP3   OH234389   6.630   5.150  17.244 -0.9000  0.6471 -0.5028
 4325TIP3    H134390   6.619   5.232  17.196  1.1541  0.1260 -2.0384
 4325TIP3    H234391   6.625   5.082  17.177 -1.3980 -0.4163  0.5693
 4326TIP3   OH234392   2.469   4.290   4.475  1.0173 -0.2202  0.5491
 4326TIP3    H134393   2.384   4.300   4.431  2.1626  1.7990 -1.4275
 4326TIP3    H234394   2.462   4.207   4.521 -1.0115 -1.6073 -1.9708
 4327TIP3   OH234395   2.808   0.001  12.592  0.4003 -0.6043 -0.0856
 4327TIP3    H134396   2.903   0.007  12.601  0.3573 -0.2946  0.1653
 4327TIP3    H234397   2.795  -0.061  12.521  0.7938 -0.5197 -0.2343
 4328TIP3   OH234398   4.208   4.691   1.588 -0.3196  0.3279 -0.0659
 4328TIP3    H134399   4.293   4.673   1.547 -0.6874 -0.7700 -0.3957
 4328TIP3    H234400   4.230   4.735   1.670  0.5108  1.0077 -0.6317
 4329TIP3   OH234401   2.531   3.061   4.250 -0.1757  0.3853 -0.0135
 4329TIP3    H134402   2.595   3.077   4.181 -0.8232  2.4956 -0.2048
 4329TIP3    H234403   2.446   3.068   4.207 -0.5599  0.1147  0.6821
 4330TIP3   OH234404   6.673   2.022  14.593  0.4258 -0.1184 -0.6908
 4330TIP3    H134405   6.704   2.022  14.503 -2.0101 -0.2793 -1.6004
 4330TIP3    H234406   6.579   2.005  14.586  0.3858 -1.5145  1.9657
 4331TIP3   OH234407   4.592   4.628  10.823 -0.2100 -0.1147  0.0715
 4331TIP3    H134408   4.576   4.720  10.842 -0.3905  0.2571 -1.7834
 4331TIP3    H234409   4.509   4.595  10.789 -0.2032 -1.0361  0.8821
 4332TIP3   OH234410   1.255   6.130  16.229 -0.2582 -0.4152 -0.2134
 4332TIP3    H134411   1.256   6.034  16.234 -1.5637 -0.3916  1.0834
 4332TIP3    H234412   1.170   6.151  16.191 -1.6910  0.2836  3.0598
 4333TIP3   OH234413   0.273   2.982  15.610  0.0115  0.4029 -0.0721
 4333TIP3    H134414   0.273   2.959  15.517  1.5323 -3.2889  0.6700
 4333TIP3    H234415   0.193   2.941  15.644 -0.6407  1.9026  0.2683
 4334TIP3   OH234416   3.539   5.146  14.912 -0.5753 -0.2441 -0.4562
 4334TIP3    H134417   3.525   5.053  14.928  0.1719 -0.5539 -1.4492
 4334TIP3    H234418   3.473   5.191  14.966 -0.5213 -1.3115  0.5307
 4335TIP3   OH234419   1.384   2.728  11.962  0.3244 -0.0406  0.6931
 4335TIP3    H134420   1.364   2.788  12.034  0.5283 -1.3450  1.8801
 4335TIP3    H234421   1.480   2.730  11.957  0.3105  0.0332  0.4687
 4336TIP3   OH234422   3.634   3.777   2.261 -0.0806  0.0564  0.6301
 4336TIP3    H134423   3.662   3.701   2.311  1.5427  0.3967  0.2972
 4336TIP3    H234424   3.630   3.746   2.170 -1.2842 -0.1065  0.7271
 4337TIP3   OH234425   5.996   3.623  12.427  0.5380  0.0432 -1.0728
 4337TIP3    H134426   6.073   3.576  12.397  2.4292  0.7398  2.2047
 4337TIP3    H234427   6.028   3.711  12.449 -0.8911  0.0764  1.2392
 4338TIP3   OH234428   3.929   5.466   4.344  0.1863 -0.1659  0.0470
 4338TIP3    H134429   4.024   5.463   4.333  0.2877  1.1098  0.3657
 4338TIP3    H234430   3.913   5.552   4.383 -0.5630 -2.2589  5.1682
 4339TIP3   OH234431   1.803   5.106  15.678 -0.0725 -0.4045 -0.4538
 4339TIP3    H134432   1.881   5.130  15.727 -1.8432  2.7654  1.1547
 4339TIP3    H234433   1.818   5.141  15.590 -0.0067  0.9832  0.0955
 4340TIP3   OH234434   6.229   5.265   6.971  0.5462  0.3403  0.0478
 4340TIP3    H134435   6.213   5.224   7.056 -1.0414  3.3264  1.3553
 4340TIP3    H234436   6.316   5.303   6.979 -0.2337  2.0502  1.1013
 4341TIP3   OH234437   5.698   4.277   6.660 -0.2794 -0.1501  0.0490
 4341TIP3    H134438   5.621   4.312   6.706 -0.6483 -0.1806 -0.5255
 4341TIP3    H234439   5.771   4.290   6.720 -0.9002 -1.0454  1.0195
 4342TIP3   OH234440   0.915   0.476   3.635  0.8930  0.6230 -0.6018
 4342TIP3    H134441   0.823   0.495   3.615  0.3600 -2.7167 -1.8834
 4342TIP3    H234442   0.912   0.395   3.686  3.1311  0.8424 -0.0342
 4343TIP3   OH234443   1.020   1.237  15.159 -0.5317  0.1160 -0.3181
 4343TIP3    H134444   1.019   1.218  15.253 -0.1544  0.3614 -0.2627
 4343TIP3    H234445   1.008   1.332  15.154  1.4868  0.3955 -0.4247
 4344TIP3   OH234446   0.568   5.324   2.076  0.2151 -0.0630  0.3389
 4344TIP3    H134447   0.533   5.389   2.015  1.9515 -0.9124 -1.7022
 4344TIP3    H234448   0.636   5.370   2.124  0.4330  0.0256 -0.0483
 4345TIP3   OH234449   1.855   3.246   1.121  0.4197  0.4420 -0.1623
 4345TIP3    H134450   1.812   3.261   1.205 -0.4718  0.3095 -0.5918
 4345TIP3    H234451   1.888   3.332   1.095  0.0775  0.6165 -0.0153
 4346TIP3   OH234452   1.011   2.819  16.679 -0.9991  0.2046 -0.4485
 4346TIP3    H134453   1.092   2.870  16.671 -0.0236 -1.3562 -0.9006
 4346TIP3    H234454   1.009   2.792  16.771 -0.8340 -0.0098 -0.5066
 4347TIP3   OH234455   3.611   4.107   6.950 -0.4963 -0.2240 -0.2216
 4347TIP3    H134456   3.588   4.015   6.963 -1.3736 -0.3879 -2.5224
 4347TIP3    H234457   3.577   4.152   7.028 -0.9205 -1.6985  0.4686
 4348TIP3   OH234458   4.915   1.556   3.765  0.1281 -0.4310 -0.5323
 4348TIP3    H134459   4.835   1.562   3.816  1.0669  0.3128  0.9419
 4348TIP3    H234460   4.887   1.528   3.678 -1.8558  0.9866 -0.4053
 4349TIP3   OH234461   0.630   3.656   0.377 -0.3409  0.4058 -0.5833
 4349TIP3    H134462   0.678   3.689   0.301  0.8446  0.0960  0.0079
 4349TIP3    H234463   0.691   3.597   0.421 -0.9463  0.6863  0.6892
 4350TIP3   OH234464   4.814   6.646  14.539 -0.1736 -0.7664  0.3104
 4350TIP3    H134465   4.819   6.705  14.464  0.8925 -2.5045 -1.0632
 4350TIP3    H234466   4.858   6.694  14.610  0.1730  0.3001 -0.5881
 4351TIP3   OH234467   3.926   1.309   2.881  0.2477 -0.6302  0.1815
 4351TIP3    H134468   4.006   1.361   2.874  0.4978 -1.1220 -0.7883
 4351TIP3    H234469   3.855   1.372   2.866  0.4065 -0.0620  1.7246
 4352TIP3   OH234470   2.519   4.104   3.259 -0.1100  0.7290  0.3167
 4352TIP3    H134471   2.501   4.098   3.165 -0.2415  2.9907  0.1403
 4352TIP3    H234472   2.611   4.081   3.267 -0.2441 -0.0660 -0.2811
 4353TIP3   OH234473   4.038   1.379  12.315 -0.3484 -0.6199  0.5780
 4353TIP3    H134474   4.123   1.337  12.324 -1.3249 -2.6850  0.6508
 4353TIP3    H234475   4.025   1.426  12.397  1.9249  2.2147 -0.5186
 4354TIP3   OH234476   4.624   3.518  16.129 -0.2813  0.6890 -0.2777
 4354TIP3    H134477   4.534   3.549  16.138  0.1107  1.3477  2.0222
 4354TIP3    H234478   4.644   3.528  16.036 -2.9100 -0.4984 -1.0681
 4355TIP3   OH234479   0.052   0.647   5.405  0.2010  0.1820  0.4522
 4355TIP3    H134480   0.060   0.671   5.497  2.1121  0.3297  0.2848
 4355TIP3    H234481   0.137   0.608   5.382 -0.2103  0.1858 -1.2540
 4356TIP3   OH234482   0.992   5.661  13.062  0.2877 -0.2519  0.2149
 4356TIP3    H134483   1.058   5.648  13.130  0.3869 -3.1812 -0.3053
 4356TIP3    H234484   0.916   5.611  13.093 -0.6541  0.6756 -0.5543
 4357TIP3   OH234485   1.900   3.421  14.721 -0.1105  0.1362 -0.0612
 4357TIP3    H134486   1.995   3.438  14.723 -0.3119  1.6052 -0.9997
 4357TIP3    H234487   1.881   3.407  14.628 -0.7954 -0.2660  0.1394
 4358TIP3   OH234488   0.526   6.238   2.789  0.4565  0.0435  0.3945
 4358TIP3    H134489   0.569   6.304   2.735 -3.6583  2.2254 -0.6338
 4358TIP3    H234490   0.486   6.177   2.727  0.2702 -0.6620  1.1866
 4359TIP3   OH234491   6.751   4.796  16.150  0.0254  0.0550  0.2760
 4359TIP3    H134492   6.782   4.868  16.095 -0.5079  0.0672 -0.0195
 4359TIP3    H234493   6.693   4.746  16.093 -0.5256  0.0605  0.8211
 4360TIP3   OH234494   5.700   3.871   2.608  0.3197  0.1863  0.2122
 4360TIP3    H134495   5.709   3.801   2.544 -2.2307 -0.9499  0.9675
 4360TIP3    H234496   5.672   3.947   2.558 -0.8567 -0.4715 -0.1593
 4361TIP3   OH234497   5.858   2.245   3.893 -0.4432  0.7298 -0.1196
 4361TIP3    H134498   5.885   2.319   3.948  0.7296 -0.0663  0.4267
 4361TIP3    H234499   5.912   2.172   3.924 -1.3879 -0.2927 -0.8227
 4362TIP3   OH234500   3.500   4.595   3.194  0.2028  0.0648  0.3724
 4362TIP3    H134501   3.528   4.512   3.156  0.6506  0.3262  0.1235
 4362TIP3    H234502   3.580   4.646   3.204  0.0258  0.2135  1.1603
 4363TIP3   OH234503   6.044   4.113  15.358  0.0623  0.1368 -0.1983
 4363TIP3    H134504   6.044   4.103  15.453 -0.2112  0.1953 -0.1916
 4363TIP3    H234505   5.956   4.087  15.331 -0.0459  0.6927 -0.3785
 4364TIP3   OH234506   5.463   6.232  16.610 -0.9910 -0.3834  0.2546
 4364TIP3    H134507   5.503   6.223  16.696  0.3126  1.8038 -0.0213
 4364TIP3    H234508   5.409   6.311  16.617  0.9407  1.1875 -1.4750
 4365TIP3   OH234509   0.368   4.216   0.583  0.4233 -0.3990 -0.0602
 4365TIP3    H134510   0.317   4.136   0.595 -2.2179  1.2481  0.4894
 4365TIP3    H234511   0.366   4.231   0.488 -0.5675 -0.1010 -0.0017
 4366TIP3   OH234512   5.457   4.702   0.454 -0.0781 -0.0869 -0.8527
 4366TIP3    H134513   5.466   4.773   0.517  0.2238  0.3275 -1.3483
 4366TIP3    H234514   5.465   4.622   0.506 -1.7926  0.2055 -0.0749
 4367TIP3   OH234515   3.862   1.092   4.894  0.2748 -0.0100  0.3728
 4367TIP3    H134516   3.858   1.085   4.799 -2.9822  0.3168  0.3632
 4367TIP3    H234517   3.876   1.185   4.911  0.0049  0.0595  0.2136
 4368TIP3   OH234518   2.218   4.699  14.645 -0.9182 -0.8209  0.6352
 4368TIP3    H134519   2.234   4.608  14.619  1.9877 -0.5619  1.1434
 4368TIP3    H234520   2.254   4.751  14.574 -1.2676 -0.0601  1.0014
 4369TIP3   OH234521   3.133   4.910  15.210 -0.1180  0.7616 -0.6732
 4369TIP3    H134522   3.197   4.853  15.167  0.6466  0.2295  1.0975
 4369TIP3    H234523   3.063   4.852  15.237  1.2249  0.3383  2.2273
 4370TIP3   OH234524   3.277   5.721  17.319 -0.4452  0.1594  0.5493
 4370TIP3    H134525   3.337   5.794  17.303 -0.8751  0.8810  2.0103
 4370TIP3    H234526   3.316   5.647  17.274  0.1431  1.2247 -0.7723
 4371TIP3   OH234527   2.685   5.721   0.218  0.1724 -0.1511 -0.0382
 4371TIP3    H134528   2.639   5.787   0.166  0.7235 -0.2151 -0.6135
 4371TIP3    H234529   2.617   5.681   0.272 -0.3834  0.0216 -0.6049
 4372TIP3   OH234530   0.789   2.280   4.454 -0.1372  0.7485 -0.4032
 4372TIP3    H134531   0.705   2.234   4.454 -0.5670  1.5218  0.0523
 4372TIP3    H234532   0.852   2.213   4.482 -0.9767  0.7790  1.7134
 4373TIP3   OH234533   1.392   0.097  17.187  0.0975 -0.4669  0.1507
 4373TIP3    H134534   1.388   0.128  17.096  1.0585 -2.4755 -0.6449
 4373TIP3    H234535   1.469   0.141  17.223 -1.8720  2.6111  1.0228
 4374TIP3   OH234536   4.771   0.117   3.866 -0.1334 -0.3418 -0.6513
 4374TIP3    H134537   4.836   0.060   3.908  0.3272  1.2216  0.8664
 4374TIP3    H234538   4.699   0.122   3.929 -0.1920  0.6775 -0.7743
 4375TIP3   OH234539   2.908   6.689  11.364 -0.2171 -0.2272  0.7622
 4375TIP3    H134540   2.877   6.601  11.345  2.5348 -1.1906  0.2611
 4375TIP3    H234541   2.854   6.746  11.308 -1.9212 -1.5621  0.9742
 4376TIP3   OH234542   6.548   3.885   3.021  0.0108  0.4316  0.4714
 4376TIP3    H134543   6.502   3.937   2.955  1.0284  0.7092 -0.0405
 4376TIP3    H234544   6.531   3.930   3.104 -1.7519 -0.2380  0.5261
 4377TIP3   OH234545   4.086   0.945   3.370  0.2750 -0.4003  0.2655
 4377TIP3    H134546   4.001   0.949   3.412 -0.0901  0.9706 -0.5403
 4377TIP3    H234547   4.104   1.035   3.342  2.0386 -0.6282  0.5185
 4378TIP3   OH234548   2.471   5.809  16.554  0.2995  0.1680  0.4791
 4378TIP3    H134549   2.490   5.796  16.647 -0.8977 -0.1476  0.6914
 4378TIP3    H234550   2.449   5.902  16.547 -0.8322 -0.0680  0.7499
 4379TIP3   OH234551   0.543   4.670  13.435  0.3885  0.5967  0.5332
 4379TIP3    H134552   0.512   4.585  13.403 -0.3472  0.1505  2.3011
 4379TIP3    H234553   0.635   4.675  13.407  0.1092 -0.2501 -0.5833
 4380TIP3   OH234554   3.805   4.431   3.191 -0.0923  0.9580 -0.0418
 4380TIP3    H134555   3.839   4.408   3.278 -1.5632 -0.5404  0.1853
 4380TIP3    H234556   3.865   4.499   3.160  1.8625 -0.0987  1.1563
 4381TIP3   OH234557   0.806   4.535  15.979 -0.0593 -0.1751  0.4542
 4381TIP3    H134558   0.807   4.512  16.072  1.2486 -0.7201  0.3224
 4381TIP3    H234559   0.897   4.529  15.952 -0.5307 -0.8550 -1.0845
 4382TIP3   OH234560   0.871   0.413  12.089 -0.3607  0.5957 -0.3440
 4382TIP3    H134561   0.937   0.344  12.101  1.5740  2.4918  0.5369
 4382TIP3    H234562   0.877   0.466  12.169 -0.3583  2.9015 -1.7825
 4383TIP3   OH234563   4.384   2.745  16.789 -0.0575  0.6083  0.5543
 4383TIP3    H134564   4.385   2.690  16.711 -0.9889  2.9172 -1.2106
 4383TIP3    H234565   4.292   2.744  16.816  0.1430  0.3689  1.2427
 4384TIP3   OH234566   1.609   0.148   1.680 -0.3582 -0.1262 -0.4392
 4384TIP3    H134567   1.528   0.199   1.678  0.1154  0.6391 -0.4760
 4384TIP3    H234568   1.671   0.203   1.729 -0.4660 -1.6315  1.4994
 4385TIP3   OH234569   0.767   3.040  12.480  0.3607 -0.4919 -0.5197
 4385TIP3    H134570   0.793   2.948  12.473  0.1928 -0.8415  2.2159
 4385TIP3    H234571   0.688   3.038  12.533  0.8030  1.2731  0.2791
 4386TIP3   OH234572   2.360   0.467   2.814 -0.0317 -0.1186 -0.3115
 4386TIP3    H134573   2.313   0.550   2.806 -2.7074 -1.5757 -0.8156
 4386TIP3    H234574   2.333   0.416   2.738  2.0112 -1.3058 -0.3270
 4387TIP3   OH234575   5.048   3.604   2.207  0.0598 -0.6932  0.2531
 4387TIP3    H134576   5.120   3.636   2.152 -3.0134  5.1593 -1.1316
 4387TIP3    H234577   5.001   3.542   2.152  0.7921 -0.0759 -1.0977
 4388TIP3   OH234578   5.859   5.193   4.523  0.9228  0.3497 -0.0673
 4388TIP3    H134579   5.946   5.192   4.484  1.1933  3.1020  0.2371
 4388TIP3    H234580   5.801   5.160   4.454  2.0231 -0.0172 -0.8389
 4389TIP3   OH234581   3.747   1.422  14.203  0.6145 -0.2156 -0.4511
 4389TIP3    H134582   3.658   1.453  14.220 -0.2776 -2.1596 -1.2414
 4389TIP3    H234583   3.768   1.456  14.116  0.6831  0.2997 -0.2371
 4390TIP3   OH234584   2.716   4.491  15.477 -0.3841  0.2820 -0.2579
 4390TIP3    H134585   2.772   4.568  15.476 -0.9148  0.6834 -1.8034
 4390TIP3    H234586   2.672   4.494  15.562  1.0785  0.5653  0.5148
 4391TIP3   OH234587   0.569   1.417   4.550 -0.1611  0.3020 -0.1501
 4391TIP3    H134588   0.488   1.376   4.578 -0.6556  0.6680 -0.9853
 4391TIP3    H234589   0.631   1.344   4.540  0.2634  0.2214  2.4741
 4392TIP3   OH234590   3.976   6.719   0.785  0.0088  0.2506  0.3845
 4392TIP3    H134591   3.944   6.736   0.874  0.3105 -1.9759  0.9852
 4392TIP3    H234592   3.911   6.761   0.728 -0.5479  1.1572  1.6252
 4393TIP3   OH234593   4.035   6.681   0.214  0.8484  0.6728  0.4267
 4393TIP3    H134594   4.060   6.713   0.128 -1.9343 -1.7337 -1.4485
 4393TIP3    H234595   3.954   6.728   0.235  1.1956  0.8196  1.5037
 4394TIP3   OH234596   4.002   5.517   3.876 -0.3268  0.0464  0.1587
 4394TIP3    H134597   4.072   5.465   3.837 -1.4175  0.1392 -2.1084
 4394TIP3    H234598   3.956   5.457   3.934 -0.4846 -1.0406 -1.0432
 4395TIP3   OH234599   4.085   2.243  13.457 -0.1154 -0.5618 -0.3293
 4395TIP3    H134600   4.058   2.325  13.498 -2.4326 -0.9105 -1.0308
 4395TIP3    H234601   4.168   2.264  13.414  1.6489  0.2401  3.0595
 4396TIP3   OH234602   5.746   2.086  13.970 -0.0527 -0.7711  0.2717
 4396TIP3    H134603   5.733   2.034  13.890  0.0672 -0.2034 -0.1262
 4396TIP3    H234604   5.773   2.022  14.036 -1.5143 -1.4605  0.2294
 4397TIP3   OH234605   0.304   3.753   2.480 -0.1552 -0.5588 -0.0466
 4397TIP3    H134606   0.307   3.660   2.458  1.6430 -0.0554 -2.3627
 4397TIP3    H234607   0.394   3.775   2.506 -0.2303  0.7649 -0.8042
 4398TIP3   OH234608   5.855   4.165   2.634  0.1169  0.6785  0.3298
 4398TIP3    H134609   5.785   4.214   2.590  0.4120 -0.5549 -1.6208
 4398TIP3    H234610   5.904   4.124   2.563  0.3165 -1.8420  1.7986
 4399TIP3   OH234611   2.229   6.107  12.057 -0.4874  0.2929  0.1511
 4399TIP3    H134612   2.195   6.187  12.017 -0.4151  0.2782  0.0586
 4399TIP3    H234613   2.158   6.076  12.113 -0.4274  0.5482  0.3702
 4400TIP3   OH234614   3.021   5.792   4.524  0.4639 -0.0368 -0.2306
 4400TIP3    H134615   2.936   5.757   4.501 -0.4683  1.4048  0.8006
 4400TIP3    H234616   3.084   5.726   4.495 -0.8508 -0.3274 -2.6777
 4401TIP3   OH234617   1.423   1.831   4.138  0.2227 -0.2727 -0.1467
 4401TIP3    H134618   1.346   1.884   4.118  0.1036  0.0221  0.9880
 4401TIP3    H234619   1.485   1.894   4.176  0.8090 -0.6140 -0.5223
 4402TIP3   OH234620   3.352   6.202   1.634  0.2607 -0.0197  0.0259
 4402TIP3    H134621   3.420   6.149   1.592 -0.9663 -2.1556  0.5803
 4402TIP3    H234622   3.288   6.218   1.564 -0.3035 -0.9725  0.3041
 4403TIP3   OH234623   5.250   0.410  11.202 -0.6979  0.2258 -0.8122
 4403TIP3    H134624   5.258   0.360  11.121  1.4624 -0.7717 -0.0304
 4403TIP3    H234625   5.267   0.501  11.175  0.9868 -0.2189 -1.3498
 4404TIP3   OH234626   4.278   2.360  14.171 -0.2257 -0.0405 -0.3137
 4404TIP3    H134627   4.270   2.456  14.168 -1.4172 -0.1182  0.1113
 4404TIP3    H234628   4.370   2.345  14.192  0.2949  0.9850 -1.6865
 4405TIP3   OH234629   6.584   6.533  16.722 -0.3035  0.8060  0.4602
 4405TIP3    H134630   6.617   6.445  16.703 -2.3540  0.2690 -0.9491
 4405TIP3    H234631   6.537   6.524  16.805 -3.1474 -0.2845 -1.1323
 4406TIP3   OH234632   6.321   6.205  13.255 -0.6810  0.4572 -0.0630
 4406TIP3    H134633   6.319   6.248  13.170 -0.9791  0.3170 -0.1267
 4406TIP3    H234634   6.368   6.124  13.240 -3.4073 -1.1054 -0.8208
 4407TIP3   OH234635   5.136   4.791   4.792  0.4223 -0.2352 -0.1857
 4407TIP3    H134636   5.109   4.795   4.701  1.6730  1.0768 -0.5396
 4407TIP3    H234637   5.231   4.786   4.789  0.3989 -2.8468  1.0328
 4408TIP3   OH234638   3.591   1.781   6.149 -0.1477  0.6619 -0.1158
 4408TIP3    H134639   3.622   1.859   6.194 -0.4076  0.5129  0.3290
 4408TIP3    H234640   3.629   1.787   6.062 -0.6287  1.5692 -0.2695
 4409TIP3   OH234641   0.799   2.890   1.638 -0.8848 -0.1217 -0.2178
 4409TIP3    H134642   0.881   2.875   1.685 -0.0627  0.7062 -1.3566
 4409TIP3    H234643   0.731   2.870   1.703  0.1707 -2.0363  0.3733
 4410TIP3   OH234644   5.086   0.637  11.358 -0.0120 -0.8646  0.0034
 4410TIP3    H134645   5.174   0.642  11.322  0.5959 -1.5965  1.3301
 4410TIP3    H234646   5.040   0.576  11.300 -0.8724  2.3028 -2.9771
 4411TIP3   OH234647   5.199   4.594   1.321  0.1119  0.4150  0.1977
 4411TIP3    H134648   5.220   4.674   1.370 -0.9599  1.7337 -1.3878
 4411TIP3    H234649   5.281   4.568   1.280  0.4638  0.6946  0.7039
 4412TIP3   OH234650   4.821   5.065   0.851 -0.1793 -0.4972  0.2461
 4412TIP3    H134651   4.731   5.079   0.825  0.0032 -1.5799 -1.0674
 4412TIP3    H234652   4.818   4.991   0.913 -0.3766  0.7394  1.7849
 4413TIP3   OH234653   1.995   6.297  11.510  0.0076 -0.1055 -0.1231
 4413TIP3    H134654   1.915   6.317  11.461 -0.7725 -0.9177  0.7681
 4413TIP3    H234655   2.031   6.383  11.533 -0.4501  0.2738 -0.7759
 4414TIP3   OH234656   3.386   1.384  14.791  0.0006  0.1018  0.0160
 4414TIP3    H134657   3.378   1.470  14.750  0.4441 -0.5075 -1.4104
 4414TIP3    H234658   3.472   1.385  14.833  0.6962 -0.1644 -1.3395
 4415TIP3   OH234659   1.989   0.823  11.129 -0.2623 -0.1847 -0.3740
 4415TIP3    H134660   1.959   0.782  11.049 -0.9724 -0.5964  0.0912
 4415TIP3    H234661   1.921   0.888  11.150 -1.1310 -1.4248  0.9204
 4416TIP3   OH234662   3.818   2.682  15.817  0.6583 -0.2828 -0.7463
 4416TIP3    H134663   3.868   2.727  15.748 -0.2626 -0.8414 -1.8144
 4416TIP3    H234664   3.778   2.753  15.867 -0.7691  0.1596 -2.4091
 4417TIP3   OH234665   6.505   6.696  15.803 -0.0701 -0.0279 -0.8139
 4417TIP3    H134666   6.579   6.721  15.748  0.4274  0.0978 -0.0963
 4417TIP3    H234667   6.506   6.601  15.805  0.5419 -0.0188 -0.1955
 4418TIP3   OH234668   3.239   2.069  12.284  0.3723  0.3583 -1.3294
 4418TIP3    H134669   3.199   2.021  12.211 -1.0631  0.2968 -0.5413
 4418TIP3    H234670   3.328   2.088  12.254 -0.3459  0.8489 -3.3401
 4419TIP3   OH234671   4.642   2.147   2.982  0.0457 -0.0608 -0.7213
 4419TIP3    H134672   4.560   2.115   3.019 -0.0590 -1.2939 -1.9444
 4419TIP3    H234673   4.631   2.138   2.888  1.4012  0.2311 -0.9280
 4420TIP3   OH234674   4.717   3.141  15.544 -0.0280  0.1846  0.0397
 4420TIP3    H134675   4.722   3.161  15.450  0.1545  1.0340  0.2269
 4420TIP3    H234676   4.642   3.082  15.552  0.2144 -0.2363 -0.6970
 4421TIP3   OH234677   1.388   3.259   1.581 -0.7249 -0.2743  0.4291
 4421TIP3    H134678   1.294   3.257   1.565 -0.5177 -0.4372 -0.8591
 4421TIP3    H234679   1.396   3.285   1.673 -2.0337 -0.9154  0.7440
 4422TIP3   OH234680   0.559   0.813   3.636 -0.2830 -0.2089  0.1938
 4422TIP3    H134681   0.629   0.878   3.629 -0.5488  0.0429 -0.1678
 4422TIP3    H234682   0.485   0.852   3.588 -0.4418 -0.7838 -0.0399
 4423TIP3   OH234683   5.020   3.405  13.296  0.4154 -0.5850 -0.0504
 4423TIP3    H134684   5.102   3.372  13.334 -0.8936 -1.3369  2.3562
 4423TIP3    H234685   4.968   3.326  13.279 -0.5632 -0.0406  0.3435
 4424TIP3   OH234686   3.877   1.182  13.145 -0.3765 -0.0285  0.0306
 4424TIP3    H134687   3.967   1.171  13.115  0.2480  2.0154  1.0154
 4424TIP3    H234688   3.830   1.109  13.104  1.5057 -0.5935 -1.2838
 4425TIP3   OH234689   3.651   6.732  15.254  0.7132 -0.1120 -0.0843
 4425TIP3    H134690   3.640   6.799  15.186  0.3502 -1.6199 -1.6018
 4425TIP3    H234691   3.691   6.659  15.208  0.5926 -1.1444  1.3923
 4426TIP3   OH234692   6.406   5.242  12.384  0.5541  0.1661  0.1634
 4426TIP3    H134693   6.352   5.313  12.419  0.2389  0.1573 -0.3024
 4426TIP3    H234694   6.438   5.275  12.300 -0.2134 -0.5236 -0.4145
 4427TIP3   OH234695   0.539   2.740   5.347  0.1349 -0.1863 -0.4731
 4427TIP3    H134696   0.556   2.663   5.294 -2.0823  0.6443 -2.5998
 4427TIP3    H234697   0.516   2.808   5.284  0.4838  1.7952  1.4146
 4428TIP3   OH234698   5.640   5.064  14.866 -0.1575 -0.2146  0.2896
 4428TIP3    H134699   5.721   5.045  14.914  0.7792 -0.4285 -1.2835
 4428TIP3    H234700   5.593   4.980  14.866  0.2390 -0.4449  0.1407
 4429TIP3   OH234701   1.989   4.883  15.507  0.0100 -0.5742  0.4001
 4429TIP3    H134702   1.979   4.847  15.595  0.4157 -2.2560 -0.2108
 4429TIP3    H234703   2.076   4.923  15.508  0.0927 -0.7570  0.7129
 4430TIP3   OH234704   2.820   2.961  15.053  0.1779  0.1380  0.2790
 4430TIP3    H134705   2.763   2.981  14.979  0.0717  0.5790  0.4772
 4430TIP3    H234706   2.822   2.866  15.057 -1.0667  0.1166  0.6726
 4431TIP3   OH234707   3.796   5.674   1.431  0.2222  0.2006  0.3221
 4431TIP3    H134708   3.755   5.679   1.517  0.9654 -0.5322  0.7375
 4431TIP3    H234709   3.804   5.765   1.403 -1.9948  0.3503  0.0485
 4432TIP3   OH234710   6.429   4.772   2.288  0.0779 -0.0114  0.3298
 4432TIP3    H134711   6.517   4.765   2.251  0.1367  2.1247 -0.0889
 4432TIP3    H234712   6.439   4.742   2.379  0.2176 -4.0357 -0.8209
 4433TIP3   OH234713   4.677   2.942  14.766  0.0946  0.1777 -0.4483
 4433TIP3    H134714   4.634   2.947  14.681  1.4832 -2.1841 -1.3736
 4433TIP3    H234715   4.710   2.853  14.771 -0.9680 -0.1788  3.1109
 4434TIP3   OH234716   3.364   3.955   3.303 -0.2122 -0.2495  0.4699
 4434TIP3    H134717   3.291   3.940   3.363 -1.4360  0.4419 -0.7815
 4434TIP3    H234718   3.387   3.868   3.270 -3.0232 -0.2234 -1.9560
 4435TIP3   OH234719   4.805   6.404  14.667  0.1260 -0.3028 -0.0611
 4435TIP3    H134720   4.812   6.470  14.599  0.4730  0.6602  0.8721
 4435TIP3    H234721   4.735   6.436  14.724 -1.1611 -1.8217 -0.7181
 4436TIP3   OH234722   2.102   4.253   3.378  0.6503 -0.0080 -0.1091
 4436TIP3    H134723   2.064   4.209   3.301  1.5276  0.3267 -0.7571
 4436TIP3    H234724   2.032   4.309   3.411  0.0681 -0.6028 -0.2952
 4437TIP3   OH234725   3.537   4.567   0.240  0.1676  0.0612  0.3589
 4437TIP3    H134726   3.528   4.648   0.190  1.6149 -0.7699 -1.3492
 4437TIP3    H234727   3.452   4.555   0.281 -0.6017  1.5902 -0.6788
 4438TIP3   OH234728   5.874   1.601  16.690 -0.6985 -0.1933 -0.5142
 4438TIP3    H134729   5.953   1.548  16.683 -0.5414  0.0769 -0.8054
 4438TIP3    H234730   5.819   1.554  16.754 -0.1199 -0.1514  0.0240
 4439TIP3   OH234731   0.766   4.826  12.326 -0.2729  0.4417 -0.5137
 4439TIP3    H134732   0.700   4.761  12.303 -0.6911  0.3954  0.7559
 4439TIP3    H234733   0.719   4.909  12.324 -0.2870  0.4500  0.0428
 4440TIP3   OH234734   1.212   4.816   1.218  0.1512 -0.1146 -0.5098
 4440TIP3    H134735   1.282   4.869   1.256  0.9198 -1.2601 -0.2933
 4440TIP3    H234736   1.243   4.726   1.226 -0.6558 -0.5323 -1.8454
 4441TIP3   OH234737   3.077   0.008  12.579  0.6581 -0.5058 -0.4741
 4441TIP3    H134738   3.092   0.026  12.486 -0.1459 -0.2849 -0.5673
 4441TIP3    H234739   3.154   0.044  12.623  0.2762  0.8943 -0.8977
 4442TIP3   OH234740   2.981   1.813   2.308  0.7472  0.0535  0.5757
 4442TIP3    H134741   2.901   1.760   2.309 -0.5265  1.8716  1.6483
 4442TIP3    H234742   3.050   1.752   2.282 -0.8804 -1.7286  0.2100
 4443TIP3   OH234743   1.396   0.992   6.527 -0.2678 -0.3612  0.3221
 4443TIP3    H134744   1.485   0.986   6.491 -0.8737 -1.9847 -1.0595
 4443TIP3    H234745   1.403   0.958   6.616  0.9250  1.9790  1.2151
 4444TIP3   OH234746   3.348   0.899  10.553 -0.1463 -0.0317 -0.3110
 4444TIP3    H134747   3.295   0.908  10.632  0.2725 -0.6128  0.0388
 4444TIP3    H234748   3.422   0.958  10.566  1.1574 -1.8223  0.7793
 4445TIP3   OH234749   5.325   2.492  14.989 -0.0673  0.3891 -0.0291
 4445TIP3    H134750   5.334   2.447  14.905 -0.1504  1.3716 -0.5798
 4445TIP3    H234751   5.231   2.511  14.996  0.0395  0.9604 -0.0698
 4446TIP3   OH234752   0.764   1.305   0.693  0.9407 -0.1559 -0.4712
 4446TIP3    H134753   0.675   1.283   0.665  0.7153  0.0822  0.0387
 4446TIP3    H234754   0.820   1.273   0.623  0.9453 -5.0769  1.3693
 4447TIP3   OH234755   2.964   4.948   0.237 -0.0636 -0.1909  0.2629
 4447TIP3    H134756   3.004   5.023   0.279  0.8983 -0.6235  0.1474
 4447TIP3    H234757   2.874   4.947   0.269 -0.2957  1.3987 -0.2743
 4448TIP3   OH234758   0.622   6.684   1.531  0.7846  0.0504  0.4610
 4448TIP3    H134759   0.584   6.659   1.615  1.1428 -0.9586  0.3278
 4448TIP3    H234760   0.685   6.616   1.511 -1.2739 -1.3256 -1.9788
 4449TIP3   OH234761   1.782   2.398  16.002  0.3356 -0.3251 -0.0674
 4449TIP3    H134762   1.854   2.374  16.060  0.0686 -1.5112 -0.2013
 4449TIP3    H234763   1.722   2.448  16.057  0.3930 -0.8887  0.5066
 4450TIP3   OH234764   2.167   4.650   4.402 -0.2930 -0.3053  0.1912
 4450TIP3    H134765   2.101   4.619   4.340  1.2770 -1.2938 -1.0489
 4450TIP3    H234766   2.187   4.574   4.456  2.1307 -1.0481 -1.5757
 4451TIP3   OH234767   1.770   3.116   3.738 -0.8223 -0.4907  0.0659
 4451TIP3    H134768   1.705   3.180   3.767 -0.4392  0.2289 -0.6392
 4451TIP3    H234769   1.854   3.158   3.753 -0.5906 -0.4982 -1.1211
 4452TIP3   OH234770   3.995   4.442   5.133 -0.2420  0.2794 -0.7453
 4452TIP3    H134771   4.046   4.510   5.089  1.3016 -0.0573  0.4529
 4452TIP3    H234772   4.031   4.360   5.100 -0.8291  0.0266 -0.7744
 4453TIP3   OH234773   4.535   1.433  16.923  0.5599 -0.4414 -0.7432
 4453TIP3    H134774   4.589   1.483  16.861 -1.1373  0.5527 -1.4756
 4453TIP3    H234775   4.574   1.345  16.922 -0.8050 -1.2700 -5.2228
 4454TIP3   OH234776   0.853   1.167   4.044 -0.1983  0.1629  0.6585
 4454TIP3    H134777   0.889   1.251   4.072 -0.1934  0.6851 -0.8269
 4454TIP3    H234778   0.776   1.190   3.993 -0.1155 -0.7243  0.1111
 4455TIP3   OH234779   0.987   1.472   4.773  0.0323 -0.4940  0.1836
 4455TIP3    H134780   1.069   1.478   4.822 -0.0138 -1.5775  0.4138
 4455TIP3    H234781   1.011   1.491   4.683  0.2734  0.6366  0.4754
 4456TIP3   OH234782   1.272   4.658  13.203 -0.1933 -0.5577 -0.2204
 4456TIP3    H134783   1.283   4.596  13.131  1.8248 -0.9800  0.4040
 4456TIP3    H234784   1.344   4.638  13.263 -1.5922  0.0178  1.7519
 4457TIP3   OH234785   0.929   4.197  14.496 -0.0302 -0.8437  0.4438
 4457TIP3    H134786   0.946   4.102  14.494  0.2129 -0.8000 -1.6260
 4457TIP3    H234787   0.979   4.232  14.422 -0.7424  0.8054  0.6988
 4458TIP3   OH234788   4.547   0.741  14.939 -0.0735  0.0403  0.5350
 4458TIP3    H134789   4.456   0.747  14.910 -0.3431 -0.3858  1.2627
 4458TIP3    H234790   4.570   0.649  14.925  0.2757  0.1635  0.2786
 4459TIP3   OH234791   0.414   5.437   0.103 -0.0369 -0.5917  0.1738
 4459TIP3    H134792   0.496   5.486   0.111 -0.8154  0.8224 -0.1274
 4459TIP3    H234793   0.416   5.377   0.177  0.6272  0.4291  1.0275
 4460TIP3   OH234794   3.401   5.498  10.625  0.9282 -0.1260  0.1146
 4460TIP3    H134795   3.490   5.466  10.639  0.7670 -1.5308 -1.7542
 4460TIP3    H234796   3.345   5.431  10.667  0.6884  1.8045  3.2129
 4461TIP3   OH234797   5.822   2.064   5.759  0.0342 -0.5270  0.7248
 4461TIP3    H134798   5.752   2.046   5.821  0.7531  0.2136  1.7834
 4461TIP3    H234799   5.872   2.136   5.798  1.0359 -0.6281 -0.2884
 4462TIP3   OH234800   3.163   3.831  11.531  0.2429  0.4803 -0.7562
 4462TIP3    H134801   3.203   3.790  11.608  2.1470  1.3831 -1.2101
 4462TIP3    H234802   3.165   3.764  11.464  0.6670  0.3961 -0.6628
 4463TIP3   OH234803   1.841   6.065  14.408 -0.1214  0.1158  0.1432
 4463TIP3    H134804   1.807   5.982  14.442 -1.6044  1.4669  2.2024
 4463TIP3    H234805   1.762   6.116  14.388  0.7367  1.4312  0.0245
 4464TIP3   OH234806   0.809   6.700   1.794 -0.8163 -0.5939  0.0477
 4464TIP3    H134807   0.860   6.776   1.765  0.1865 -0.0412  2.9490
 4464TIP3    H234808   0.871   6.628   1.795  0.1398  0.0694  3.5397
 4465TIP3   OH234809   1.810   5.451  14.006  0.1741  0.1667 -0.3042
 4465TIP3    H134810   1.865   5.481  14.078 -0.0612  0.0972 -0.0924
 4465TIP3    H234811   1.822   5.516  13.936 -0.9361  1.1923  0.4241
 4466TIP3   OH234812   4.477   0.757  11.880  0.4805  0.0774 -0.1754
 4466TIP3    H134813   4.508   0.667  11.872  0.7483  0.1299  0.2410
 4466TIP3    H234814   4.384   0.753  11.859  0.2967 -0.4480  0.7245
 4467TIP3   OH234815   4.412   3.694  16.335 -0.0070  0.3679  0.5741
 4467TIP3    H134816   4.364   3.612  16.347 -0.6033  0.7907  1.0648
 4467TIP3    H234817   4.419   3.703  16.240 -0.9572  0.3386  0.4930
 4468TIP3   OH234818   1.127   3.303  14.538 -0.1258 -0.1271 -0.2571
 4468TIP3    H134819   1.190   3.264  14.477 -0.9038 -0.9152 -0.5831
 4468TIP3    H234820   1.055   3.334  14.482  1.0250  3.0975 -0.1845
 4469TIP3   OH234821   6.184   3.537   6.654  0.4215 -0.1901  0.2595
 4469TIP3    H134822   6.267   3.551   6.699 -0.4629  0.4729  1.7639
 4469TIP3    H234823   6.207   3.485   6.577  2.0459 -1.1903  1.3425
 4470TIP3   OH234824   6.106   3.419  13.183 -0.6151 -0.0349  0.6435
 4470TIP3    H134825   6.049   3.451  13.113  0.4866  0.3361 -0.1195
 4470TIP3    H234826   6.105   3.489  13.248  0.6216  0.9817 -0.3507
 4471TIP3   OH234827   2.836   1.184  13.554  0.0477 -0.0190 -0.2869
 4471TIP3    H134828   2.899   1.119  13.582 -0.4227  0.5360  2.3297
 4471TIP3    H234829   2.761   1.173  13.612 -0.6460  1.8893 -0.7077
 4472TIP3   OH234830   4.982   5.468  14.545 -0.1040 -0.1209  0.2639
 4472TIP3    H134831   5.030   5.389  14.569 -1.9220 -0.6797  2.4547
 4472TIP3    H234832   5.048   5.538  14.544  1.2216 -1.3381  0.0745
 4473TIP3   OH234833   2.206   0.277   1.020 -0.6151  0.1026  0.2086
 4473TIP3    H134834   2.292   0.235   1.026 -0.2969  0.8863  1.4888
 4473TIP3    H234835   2.195   0.322   1.103 -2.4197 -0.2234  0.1990
 4474TIP3   OH234836   1.068   3.623  15.161 -0.0407 -0.3702 -0.1031
 4474TIP3    H134837   1.110   3.586  15.238  1.1372  1.2177  0.0915
 4474TIP3    H234838   1.057   3.549  15.101  0.8307 -1.2814  0.8245
 4475TIP3   OH234839   3.208   6.186  15.397  0.3757  0.0586 -0.0859
 4475TIP3    H134840   3.276   6.250  15.376  0.4985  0.2142  0.7350
 4475TIP3    H234841   3.126   6.236  15.394  0.1063 -0.3965 -2.3260
 4476TIP3   OH234842   5.785   6.569  16.007  0.0549  0.6231 -0.5843
 4476TIP3    H134843   5.769   6.534  16.095  1.0906 -0.6917 -0.8828
 4476TIP3    H234844   5.701   6.561  15.963  0.0118 -0.6442 -0.3254
 4477TIP3   OH234845   0.952   6.280  11.735  0.3855  0.2828 -0.2896
 4477TIP3    H134846   1.028   6.286  11.678 -0.1824  3.4975 -0.8981
 4477TIP3    H234847   0.896   6.213  11.695  2.0532 -0.8485 -0.8006
 4478TIP3   OH234848   1.132   5.494   6.150 -0.6041  0.4527 -0.4460
 4478TIP3    H134849   1.150   5.462   6.238  0.9820  1.7439 -0.2581
 4478TIP3    H234850   1.105   5.585   6.163  0.5580  0.9501 -1.3364
 4479TIP3   OH234851   0.827   3.517  12.308 -0.2698  0.1340 -0.2029
 4479TIP3    H134852   0.919   3.538  12.322 -0.1075  0.6293 -1.8734
 4479TIP3    H234853   0.784   3.603  12.297 -0.8246 -0.1203 -0.0773
 4480TIP3   OH234854   6.615   6.185   0.975 -0.4351  0.6312  0.2843
 4480TIP3    H134855   6.631   6.128   0.901  0.8061 -0.1227  1.0956
 4480TIP3    H234856   6.520   6.180   0.990 -0.2816 -1.8048  0.7706
 4481TIP3   OH234857   5.729   6.578   3.253 -0.0022  0.1839  0.3618
 4481TIP3    H134858   5.787   6.650   3.279  0.2498  0.3055 -0.4972
 4481TIP3    H234859   5.688   6.608   3.172  1.6654 -1.4174 -1.1838
 4482TIP3   OH234860   3.187   0.853   0.420 -0.6347  0.2303  0.4855
 4482TIP3    H134861   3.132   0.906   0.363 -0.7390 -1.2822 -0.9163
 4482TIP3    H234862   3.149   0.765   0.414 -0.0903 -0.1617  2.2067
 4483TIP3   OH234863   2.023   0.942   2.687  0.3784 -0.0299 -0.5909
 4483TIP3    H134864   2.044   0.975   2.774 -0.4274 -1.7264  0.2902
 4483TIP3    H234865   2.075   0.997   2.627  0.4880  1.5496  0.8907
 4484TIP3   OH234866   3.988   4.917  11.956  0.2427 -0.3445  0.0420
 4484TIP3    H134867   3.962   4.943  11.868 -0.1203  0.1257  0.2748
 4484TIP3    H234868   3.928   4.966  12.013  1.5232  0.6487  0.6083
 4485TIP3   OH234869   2.982   1.810  13.238  0.7027  0.2861 -0.3894
 4485TIP3    H134870   3.065   1.808  13.285  1.8938 -0.7101 -2.3657
 4485TIP3    H234871   2.970   1.902  13.214  0.1159  0.7946  1.6473
 4486TIP3   OH234872   0.529   4.288  15.762 -0.5264  0.4972 -0.7359
 4486TIP3    H134873   0.477   4.225  15.713  0.6579 -2.1802  1.2336
 4486TIP3    H234874   0.599   4.314  15.702  0.4568 -2.1224 -0.8346
 4487TIP3   OH234875   2.680   2.481  16.540  0.4153  0.2603 -0.4519
 4487TIP3    H134876   2.744   2.553  16.547 -0.0310  0.5994  0.2818
 4487TIP3    H234877   2.619   2.510  16.472 -0.8379  1.4766  1.0878
 4488TIP3   OH234878   6.105   3.086   5.195  0.7241  0.0836 -0.6403
 4488TIP3    H134879   6.048   3.012   5.174  0.5543 -0.0949  0.3887
 4488TIP3    H234880   6.188   3.046   5.221  0.5232  0.2228  0.2570
 4489TIP3   OH234881   3.111   4.068   1.428  0.2105  0.2343  0.3002
 4489TIP3    H134882   3.089   3.980   1.398 -0.0526  0.2590  0.4187
 4489TIP3    H234883   3.028   4.115   1.426  0.0981  0.1051  1.5191
 4490TIP3   OH234884   4.695   5.637   0.154 -0.1562  0.0660  0.4484
 4490TIP3    H134885   4.744   5.705   0.200 -0.2395 -0.6198  1.6223
 4490TIP3    H234886   4.603   5.658   0.172 -0.3202  1.1371 -1.4330
 4491TIP3   OH234887   3.940   4.953  11.372  0.3337  0.1449  0.3532
 4491TIP3    H134888   3.845   4.946  11.360  0.2153  0.5843  0.9928
 4491TIP3    H234889   3.971   4.990  11.289  0.1107 -1.1110 -0.3317
 4492TIP3   OH234890   2.223   4.151  13.881 -0.3774 -0.3854 -0.2439
 4492TIP3    H134891   2.295   4.090  13.897  0.3714  0.6346  0.3284
 4492TIP3    H234892   2.144   4.098  13.896  0.2425 -0.7171  2.2976
 4493TIP3   OH234893   3.349   0.234  13.243 -0.2400  0.1473 -0.0412
 4493TIP3    H134894   3.335   0.236  13.148 -0.4466 -0.5129 -0.0253
 4493TIP3    H234895   3.332   0.144  13.268  1.4053 -0.0764  0.3912
 4494TIP3   OH234896   1.818   6.329   1.855 -0.2620 -0.1998  0.4462
 4494TIP3    H134897   1.806   6.416   1.819  0.5609  0.4894  1.7805
 4494TIP3    H234898   1.902   6.299   1.819  0.7513  0.6448  2.0267
 4495TIP3   OH234899   1.293   3.364  15.517 -0.7249  0.2073  0.2865
 4495TIP3    H134900   1.201   3.388  15.507 -0.9398 -1.0111 -0.8968
 4495TIP3    H234901   1.342   3.434  15.472 -1.1770 -0.1334 -0.7399
 4496TIP3   OH234902   2.286   0.670   6.367 -0.4066 -0.4012 -1.0906
 4496TIP3    H134903   2.319   0.581   6.355 -1.5085 -0.8374 -0.9626
 4496TIP3    H234904   2.253   0.695   6.280  0.1174 -0.0209 -1.1847
 4497TIP3   OH234905   2.614   2.026  16.113  0.1185  0.4605  0.3591
 4497TIP3    H134906   2.579   2.080  16.184 -0.0239  0.0025  0.6418
 4497TIP3    H234907   2.635   2.089  16.043 -2.3615  0.6690 -0.2986
 4498TIP3   OH234908   0.863   6.478   2.330  0.4130  0.0103  0.1248
 4498TIP3    H134909   0.771   6.464   2.355  0.8297  0.0384  1.8102
 4498TIP3    H234910   0.861   6.553   2.271 -0.8139 -1.0672 -1.3013
 4499TIP3   OH234911   4.955   1.905  12.169  0.5875  0.5263 -0.7290
 4499TIP3    H134912   4.897   1.976  12.197 -0.1046  0.3399 -1.6278
 4499TIP3    H234913   5.031   1.912  12.226 -0.4414  0.6013  0.6920
 4500TIP3   OH234914   4.756   4.460  13.329  0.3199  0.1320 -0.1227
 4500TIP3    H134915   4.675   4.459  13.277  0.5234 -0.1249 -0.4375
 4500TIP3    H234916   4.801   4.539  13.301  1.1998 -0.8354 -1.5401
 4501TIP3   OH234917   2.572   3.389   5.168 -0.1316 -0.1944 -0.4497
 4501TIP3    H134918   2.533   3.394   5.080 -1.6261  0.9270  0.2296
 4501TIP3    H234919   2.498   3.400   5.227  1.1761  1.7914  0.9156
 4502TIP3   OH234920   4.670   2.119  14.385  0.0977 -0.1481 -0.2347
 4502TIP3    H134921   4.714   2.040  14.356  0.0312 -0.2767  0.0175
 4502TIP3    H234922   4.644   2.102  14.475  3.0753  1.4099  1.0463
 4503TIP3   OH234923   2.757   0.832   1.746 -0.3795  0.1401  0.1608
 4503TIP3    H134924   2.682   0.811   1.690 -0.0272 -0.3713 -0.1320
 4503TIP3    H234925   2.816   0.757   1.735 -0.2291  0.1083  1.0867
 4504TIP3   OH234926   5.397   4.410   3.234  0.2251  0.6224 -0.2549
 4504TIP3    H134927   5.317   4.459   3.250  0.1181  0.0658  0.9925
 4504TIP3    H234928   5.467   4.472   3.252  0.2323 -0.5103  5.1666
 4505TIP3   OH234929   3.937   1.101  17.234  0.0461  0.4653 -0.2977
 4505TIP3    H134930   3.935   1.036  17.304  1.5283 -0.2514 -0.8709
 4505TIP3    H234931   3.923   1.050  17.154  0.6805  0.9073 -0.7041
 4506TIP3   OH234932   5.298   5.751   2.583 -0.6500  0.4313 -0.4559
 4506TIP3    H134933   5.376   5.696   2.586 -2.4201 -2.2333  0.5311
 4506TIP3    H234934   5.319   5.826   2.639  0.4934 -1.2686  1.5214
 4507TIP3   OH234935   0.733   0.050   3.813 -0.2275  0.2027 -0.5545
 4507TIP3    H134936   0.713  -0.030   3.765 -0.3815 -0.0574 -0.0695
 4507TIP3    H234937   0.653   0.102   3.809 -1.1083 -0.8713  1.4528
 4508TIP3   OH234938   5.199   4.526   2.666 -0.1714 -0.7125 -0.1655
 4508TIP3    H134939   5.112   4.486   2.670 -0.0886 -0.8182  1.0627
 4508TIP3    H234940   5.184   4.620   2.679 -0.1477 -0.6746 -0.4207
 4509TIP3   OH234941   1.435   0.081   5.838 -0.3745 -0.3279  0.2640
 4509TIP3    H134942   1.360   0.027   5.814 -1.0067  0.6252  0.0292
 4509TIP3    H234943   1.409   0.125   5.918 -1.5992  2.7801 -1.6489
 4510TIP3   OH234944   2.848   2.509   3.627  0.2425  0.2769  0.2596
 4510TIP3    H134945   2.760   2.498   3.663 -0.1487 -0.9125 -0.9906
 4510TIP3    H234946   2.845   2.595   3.584  0.1216  0.8289  1.3263
 4511TIP3   OH234947   5.827   5.445   3.269  0.0284 -0.0520 -0.1651
 4511TIP3    H134948   5.739   5.479   3.287  0.0249 -0.6161  0.9743
 4511TIP3    H234949   5.872   5.517   3.224 -0.5782  0.7541  0.4800
 4512TIP3   OH234950   5.771   0.605  13.285 -0.3057  0.2586  0.4355
 4512TIP3    H134951   5.844   0.571  13.336  0.6809  1.6388 -0.0113
 4512TIP3    H234952   5.762   0.696  13.313 -0.4200  0.7388 -1.0840
 4513TIP3   OH234953   2.359   2.146   2.375  0.3321 -0.2918 -0.7055
 4513TIP3    H134954   2.434   2.204   2.386 -1.3811  1.8683  0.5779
 4513TIP3    H234955   2.362   2.119   2.283  3.8708 -2.1974 -0.1920
 4514TIP3   OH234956   4.909   0.114   3.507 -0.4874  0.8265 -0.8888
 4514TIP3    H134957   4.951   0.083   3.587 -0.1230 -1.3692 -1.8347
 4514TIP3    H234958   4.893   0.207   3.521 -1.6322  0.2725  2.2327
 4515TIP3   OH234959   6.071   1.760   4.681 -0.4840  0.5683  0.2919
 4515TIP3    H134960   6.137   1.770   4.749 -0.5437  3.1274  0.0891
 4515TIP3    H234961   6.007   1.700   4.717  0.7276 -0.0637  1.4702
 4516TIP3   OH234962   2.634   5.862   5.317  0.1293  0.7052 -0.3937
 4516TIP3    H134963   2.562   5.917   5.285 -0.0672 -0.0371 -1.2897
 4516TIP3    H234964   2.597   5.774   5.319  1.0088  0.3139 -0.8550
 4517TIP3   OH234965   1.836   4.376  13.827 -0.0171  0.3172  0.4942
 4517TIP3    H134966   1.855   4.366  13.733 -1.1712  0.8655  0.1753
 4517TIP3    H234967   1.921   4.387  13.868  0.4201  2.6955 -0.8260
 4518TIP3   OH234968   4.429   1.960   0.057  0.4030  0.0345 -0.1648
 4518TIP3    H134969   4.354   1.987   0.004  1.4963  0.1264 -1.7555
 4518TIP3    H234970   4.391   1.914   0.131 -1.3719  2.8050  0.7985
 4519TIP3   OH234971   1.634   2.254  11.257  0.0161  0.2107 -0.0300
 4519TIP3    H134972   1.570   2.185  11.273  0.3215  0.2246  1.4732
 4519TIP3    H234973   1.638   2.303  11.340  2.0327  0.1318 -0.0120
 4520TIP3   OH234974   0.108   0.089  14.054  0.7809  0.4826 -0.2844
 4520TIP3    H134975   0.108   0.105  14.148  0.1695 -2.2374  0.2466
 4520TIP3    H234976   0.169   0.017  14.041  0.3025  0.3090 -1.8629
 4521TIP3   OH234977   2.498   2.086   3.696  0.0977 -0.0112 -0.0965
 4521TIP3    H134978   2.540   2.000   3.693 -2.7259 -1.5595  1.1512
 4521TIP3    H234979   2.430   2.082   3.629 -0.1410  1.2342  0.0572
 4522TIP3   OH234980   1.092   5.084  11.801 -0.1664 -0.0578  0.4288
 4522TIP3    H134981   1.041   5.105  11.879  0.9670 -1.1029  1.4933
 4522TIP3    H234982   1.084   4.990  11.791 -1.4109  0.2009 -1.5665
 4523TIP3   OH234983   1.809   0.341  16.806 -0.0119  0.1816  0.0057
 4523TIP3    H134984   1.812   0.376  16.895  0.5214 -1.8218  0.8468
 4523TIP3    H234985   1.761   0.407  16.756  1.0363  2.1076  1.3936
 4524TIP3   OH234986   1.204   1.541  14.408 -0.5793 -0.2370  0.4548
 4524TIP3    H134987   1.136   1.477  14.430 -1.3951  0.9561  1.5417
 4524TIP3    H234988   1.284   1.503  14.443 -0.8903 -1.0886  0.2643
 4525TIP3   OH234989   0.543   1.012  12.046  0.0141 -0.0367 -0.0747
 4525TIP3    H134990   0.524   1.075  12.115  1.1205 -0.4682  0.6473
 4525TIP3    H234991   0.458   0.994  12.006 -0.4570  1.1838  0.3264
 4526TIP3   OH234992   1.164   3.896   3.224  0.6297 -0.3315  0.1385
 4526TIP3    H134993   1.150   3.972   3.167  2.7838 -1.0084 -1.4095
 4526TIP3    H234994   1.177   3.934   3.311 -3.8310  0.6810  0.6580
 4527TIP3   OH234995   6.181   4.218  12.858  0.6124 -0.0924 -0.2821
 4527TIP3    H134996   6.194   4.229  12.764  0.5494  1.1211 -0.1656
 4527TIP3    H234997   6.173   4.308  12.891  1.6576 -0.4595  1.0335
 4528TIP3   OH234998   1.228   4.422  16.333  0.1892  0.0368  0.4637
 4528TIP3    H134999   1.139   4.393  16.313  0.2194  0.1539  0.1369
 4528TIP3    H235000   1.283   4.345  16.318  0.4205  0.5329 -1.5741
 4529TIP3   OH235001   5.549   6.268   6.382  0.4359 -0.2302 -0.8722
 4529TIP3    H135002   5.482   6.210   6.418  0.7560 -1.3655 -2.0167
 4529TIP3    H235003   5.632   6.225   6.403  0.7315  0.3163 -0.9029
 4530TIP3   OH235004   1.794   5.512  14.749  0.1343  0.5359  0.1173
 4530TIP3    H135005   1.873   5.546  14.790 -0.0925  0.0918  0.9395
 4530TIP3    H235006   1.737   5.487  14.822  0.0242 -0.9432 -0.4395
 4531TIP3   OH235007   0.552   0.274  12.266  0.7203 -0.1301 -0.2353
 4531TIP3    H135008   0.483   0.213  12.292 -0.6274  0.8299 -1.3868
 4531TIP3    H235009   0.596   0.230  12.193  0.0960  0.0276 -0.7173
 4532TIP3   OH235010   5.658   5.875   2.159 -0.4598 -0.9571  0.2353
 4532TIP3    H135011   5.567   5.899   2.176 -0.3169 -1.3732  1.7668
 4532TIP3    H235012   5.670   5.887   2.065 -1.9673 -0.4707  0.0940
 4533TIP3   OH235013   1.844   5.998   6.269  0.0477 -0.5364  0.7458
 4533TIP3    H135014   1.757   5.963   6.288 -0.8027  2.2846  2.6157
 4533TIP3    H235015   1.829   6.061   6.198  0.2904  0.8783  1.9169
 4534TIP3   OH235016   1.463   4.166  14.649  0.4687  0.2432  0.0656
 4534TIP3    H135017   1.545   4.195  14.688 -0.5303  1.1844  1.5742
 4534TIP3    H235018   1.443   4.232  14.582  2.1548 -1.3437 -2.1643
 4535TIP3   OH235019   6.410   0.012   0.556  0.6794  0.2113 -0.0294
 4535TIP3    H135020   6.490   0.014   0.504  0.2887 -1.8095 -0.8014
 4535TIP3    H235021   6.439  -0.015   0.643  1.0118  1.0373  0.1232
 4536TIP3   OH235022   1.739   3.419  13.090  0.3698  0.1248 -0.2924
 4536TIP3    H135023   1.746   3.324  13.085  0.2800  0.1179 -0.2866
 4536TIP3    H235024   1.772   3.450  13.005  0.9842  0.1200 -0.0581
 4537TIP3   OH235025   3.456   1.986  15.866  0.3321  0.0129 -0.7324
 4537TIP3    H135026   3.549   1.986  15.843  0.8086  0.2292  1.0634
 4537TIP3    H235027   3.446   1.912  15.926 -0.4409  0.5674 -0.1472
 4538TIP3   OH235028   6.599   5.926   3.482 -0.0733  0.1112  0.2153
 4538TIP3    H135029   6.686   5.949   3.513  1.0372 -2.0550 -1.0542
 4538TIP3    H235030   6.557   5.886   3.559 -1.8427  5.1776  2.2796
 4539TIP3   OH235031   4.566   4.178  16.492 -0.4722 -0.0616 -0.5891
 4539TIP3    H135032   4.611   4.114  16.547  0.0293 -1.0745 -2.1075
 4539TIP3    H235033   4.501   4.127  16.444  0.0302  0.5224 -1.9354
 4540TIP3   OH235034   2.376   1.743  16.996  0.0252  0.7209  0.3127
 4540TIP3    H135035   2.343   1.822  17.038  2.1533  0.7513  2.1276
 4540TIP3    H235036   2.447   1.774  16.940 -0.1181  0.2252 -0.1503
 4541TIP3   OH235037   5.484   4.063   4.853 -0.5275  0.1504  0.2146
 4541TIP3    H135038   5.421   4.112   4.800 -0.8935  2.0023  2.2154
 4541TIP3    H235039   5.480   4.105   4.939  1.2713 -1.6301  1.2383
 4542TIP3   OH235040   6.267   2.264  15.975 -0.1774  0.8688 -0.2375
 4542TIP3    H135041   6.219   2.263  16.058 -0.7872 -0.1049 -0.5821
 4542TIP3    H235042   6.359   2.263  16.000 -0.3553  0.4606  0.4264
 4543TIP3   OH235043   0.633   5.046  15.384 -0.2180  0.0495 -0.1978
 4543TIP3    H135044   0.600   4.971  15.335  1.1740  0.0280 -1.1660
 4543TIP3    H235045   0.710   5.013  15.430  0.8110  0.9996 -1.1721
 4544TIP3   OH235046   1.861   2.362  11.818  0.2105  0.2862 -0.1537
 4544TIP3    H135047   1.796   2.432  11.812  0.9635  0.9069 -1.5285
 4544TIP3    H235048   1.818   2.286  11.779  0.1551  0.5804 -0.6724
 4545TIP3   OH235049   6.506   0.616   2.906  0.4569 -0.6535 -0.3705
 4545TIP3    H135050   6.567   0.550   2.874  0.1879 -0.3363 -1.5995
 4545TIP3    H235051   6.420   0.575   2.900  0.1113  0.2208 -2.5136
 4546TIP3   OH235052   3.354   0.342  15.812  0.1481  0.5071  0.1981
 4546TIP3    H135053   3.306   0.424  15.822  1.1477  1.4542 -1.9945
 4546TIP3    H235054   3.402   0.352  15.730  2.3745 -1.2544  1.1597
 4547TIP3   OH235055   2.095   5.921  15.749 -0.3286  0.0652 -0.3225
 4547TIP3    H135056   2.076   5.842  15.800  0.6809 -0.3042 -0.5073
 4547TIP3    H235057   2.152   5.973  15.805 -1.0896  0.7298 -0.1544
 4548TIP3   OH235058   4.529   3.025   5.726  0.6582  0.0860  0.6541
 4548TIP3    H135059   4.453   3.083   5.724  0.1729 -0.5426  0.0288
 4548TIP3    H235060   4.604   3.082   5.711  0.3668  0.7822  1.7239
 4549TIP3   OH235061   5.585   1.362   4.230  0.0141  0.0017 -0.5401
 4549TIP3    H135062   5.582   1.405   4.144 -1.0241  0.4315 -0.3054
 4549TIP3    H235063   5.678   1.357   4.251  0.3602 -0.9747 -2.1078
 4550TIP3   OH235064   1.172   4.147  11.542 -0.2428  0.0379 -0.3406
 4550TIP3    H135065   1.261   4.166  11.573  0.1711  1.3749 -2.1885
 4550TIP3    H235066   1.134   4.232  11.524 -1.3376 -0.5860 -1.0872
 4551TIP3   OH235067   2.097   5.124  13.540 -0.0639 -0.0715  0.0859
 4551TIP3    H135068   2.142   5.176  13.473  0.9177 -0.4383  0.4373
 4551TIP3    H235069   2.025   5.082  13.494 -0.1916  0.7079 -0.4455
 4552TIP3   OH235070   1.884   4.809   2.633 -0.4831  0.1359  0.1731
 4552TIP3    H135071   1.817   4.868   2.667  0.0689  1.3642 -0.7966
 4552TIP3    H235072   1.967   4.850   2.658 -0.0839  0.1952 -1.1773
 4553TIP3   OH235073   4.087   3.484   1.350  0.0198  0.1237  0.3529
 4553TIP3    H135074   4.076   3.449   1.438  3.3701  0.5481  1.0816
 4553TIP3    H235075   4.080   3.408   1.292 -1.0444 -0.3398  1.0525
 4554TIP3   OH235076   2.218   1.152   5.343  0.4732  0.5899  0.5889
 4554TIP3    H135077   2.215   1.216   5.272 -0.8609  0.1715  0.2393
 4554TIP3    H235078   2.281   1.086   5.314 -1.7997 -0.8723 -1.3968
 4555TIP3   OH235079   6.095   5.118   4.429  0.8234 -0.2803  0.0744
 4555TIP3    H135080   6.189   5.111   4.446  0.6295 -2.6106  0.4798
 4555TIP3    H235081   6.063   5.028   4.433 -1.1664  0.2699 -1.6599
 4556TIP3   OH235082   2.176   6.262   3.041 -0.3057  0.8524 -0.0184
 4556TIP3    H135083   2.196   6.312   2.962  0.6669  1.8732  0.8414
 4556TIP3    H235084   2.086   6.286   3.062 -0.7021  0.2811 -1.0125
 4557TIP3   OH235085   2.967   4.654   5.117  0.5548  0.2747 -0.1014
 4557TIP3    H135086   3.056   4.621   5.126  0.4653  0.5680  2.5756
 4557TIP3    H235087   2.913   4.575   5.114  0.8434  0.0918 -1.8612
 4558TIP3   OH235088   1.226   3.642  11.314 -0.8549 -0.3896 -0.0665
 4558TIP3    H135089   1.284   3.715  11.291 -2.9945  1.4912  0.0670
 4558TIP3    H235090   1.206   3.657  11.407 -0.1683 -2.0612  0.3817
 4559TIP3   OH235091   0.546   5.476  15.164  0.3169 -0.5480 -0.4567
 4559TIP3    H135092   0.487   5.401  15.173 -0.3236 -0.1224 -1.0575
 4559TIP3    H235093   0.494   5.552  15.190  1.1162 -0.3469  0.6519
 4560TIP3   OH235094   2.655   6.380  14.979  0.6063  0.6658  0.4184
 4560TIP3    H135095   2.691   6.377  14.890  1.4747  0.2310  0.7635
 4560TIP3    H235096   2.571   6.425  14.970  1.1428  1.5356 -0.4636
 4561TIP3   OH235097   1.110   2.166  14.267 -0.1997  0.5321  0.6950
 4561TIP3    H135098   1.205   2.175  14.257  0.0902  0.7415  3.1649
 4561TIP3    H235099   1.079   2.255  14.284 -1.3322  0.9811 -2.8078
 4562TIP3   OH235100   5.644   0.747  17.025 -0.0748  0.5526  0.2523
 4562TIP3    H135101   5.679   0.816  16.968  0.1614  1.0330  0.9700
 4562TIP3    H235102   5.722   0.700  17.055 -0.1792  0.4572  0.3725
 4563TIP3   OH235103   4.486   2.031  13.659 -0.1507 -0.1531  0.6399
 4563TIP3    H135104   4.439   1.960  13.615  0.9266  0.7113 -2.1004
 4563TIP3    H235105   4.578   2.018  13.635  0.2512  1.3597  1.2293
 4564TIP3   OH235106   5.749   4.157   1.098  0.0727 -0.4749  0.6333
 4564TIP3    H135107   5.762   4.113   1.013  0.1616  0.7385  0.0062
 4564TIP3    H235108   5.686   4.101   1.144 -1.3437 -0.2275 -0.9383
 4565TIP3   OH235109   3.550   5.317  16.380  0.0898  0.3070  0.3039
 4565TIP3    H135110   3.632   5.350  16.344  2.0157 -1.0225  3.1703
 4565TIP3    H235111   3.492   5.393  16.380  1.0476  1.1562 -2.2905
 4566TIP3   OH235112   0.086   1.788  13.246  0.0449 -0.5146  0.1615
 4566TIP3    H135113   0.172   1.792  13.287 -0.5280 -1.9609  1.6803
 4566TIP3    H235114   0.025   1.792  13.320 -1.1756  0.1452 -0.8547
 4567TIP3   OH235115   4.959   1.454   4.221 -0.1428 -0.2226 -0.2689
 4567TIP3    H135116   4.950   1.417   4.309  1.6480  0.5359  0.2870
 4567TIP3    H235117   4.966   1.377   4.164 -0.6109 -0.7281  0.3396
 4568TIP3   OH235118   1.638   0.827   5.763 -0.7370  0.2044 -0.2306
 4568TIP3    H135119   1.607   0.918   5.769 -0.0106  0.4947 -0.6491
 4568TIP3    H235120   1.673   0.821   5.674 -0.1292 -0.2748  0.0377
 4569TIP3   OH235121   3.918   6.192   0.977  0.1742 -0.2074  0.3988
 4569TIP3    H135122   3.891   6.222   0.890  0.2478  1.3675  0.8879
 4569TIP3    H235123   3.839   6.200   1.031  0.1897 -0.9521  0.5406
 4570TIP3   OH235124   6.591   5.899   2.116  1.0649 -0.0832  0.0324
 4570TIP3    H135125   6.520   5.837   2.134  1.3028 -0.4256 -0.1848
 4570TIP3    H235126   6.660   5.874   2.177  1.8222 -1.1565 -1.2080
 4571TIP3   OH235127   5.182   6.547  15.406  0.3689  0.2669  0.1381
 4571TIP3    H135128   5.229   6.571  15.486 -0.5407  1.3055  0.4024
 4571TIP3    H235129   5.248   6.509  15.348  1.1066 -0.1699  1.2495
 4572TIP3   OH235130   4.099   2.101   1.909  0.4396  0.3619  0.0083
 4572TIP3    H135131   4.015   2.057   1.912  1.0211 -0.8368 -0.4892
 4572TIP3    H235132   4.101   2.155   1.987 -0.8090  0.4472 -0.0088
 4573TIP3   OH235133   1.155   3.732  12.049  0.0655 -0.5226  0.3560
 4573TIP3    H135134   1.218   3.676  12.003 -0.0627 -0.7901  0.5030
 4573TIP3    H235135   1.195   3.749  12.134 -0.0141 -0.6017  0.4084
 4574TIP3   OH235136   0.652   1.607  14.035  0.0161  0.1290  0.0871
 4574TIP3    H135137   0.736   1.611  13.989  0.1999  1.0319  0.4837
 4574TIP3    H235138   0.586   1.609  13.965  0.3099  0.6363 -0.1808
 4575TIP3   OH235139   0.752   3.171  14.638 -0.6701  0.6976  0.1893
 4575TIP3    H135140   0.797   3.226  14.574 -0.2048 -1.6967 -1.6826
 4575TIP3    H235141   0.816   3.159  14.708  0.8602 -0.8218 -1.3758
 4576TIP3   OH235142   3.149   6.005  14.797  0.3364  0.4308  0.1092
 4576TIP3    H135143   3.113   5.952  14.726  2.2085 -0.4016 -0.2882
 4576TIP3    H235144   3.073   6.031  14.849 -0.7563 -2.0719 -0.0672
 4577TIP3   OH235145   2.090   4.167   3.740  0.3898 -0.1749 -0.7200
 4577TIP3    H135146   2.014   4.221   3.718  1.3173  1.1695 -0.8152
 4577TIP3    H235147   2.086   4.157   3.835  2.9236  4.7048  0.2636
 4578TIP3   OH235148   4.104   6.048  14.401 -0.3986  0.0614 -0.2326
 4578TIP3    H135149   4.078   5.983  14.466  0.0651  0.5599  0.4630
 4578TIP3    H235150   4.026   6.062  14.348 -1.1620  0.5706  1.0039
 4579TIP3   OH235151   1.407   3.516  11.049 -0.0287 -0.4558  0.4078
 4579TIP3    H135152   1.423   3.553  10.962 -2.0874 -1.7243 -0.5839
 4579TIP3    H235153   1.314   3.533  11.066  0.0519 -1.2767  1.8329
 4580TIP3   OH235154   1.559   5.325  16.329  0.1078  0.4333  0.1517
 4580TIP3    H135155   1.488   5.262  16.329 -0.9069  1.4660 -1.7562
 4580TIP3    H235156   1.552   5.370  16.413 -1.4759  0.4414  0.0459
 4581TIP3   OH235157   4.058   5.653  16.155  0.5113 -0.5317  0.2334
 4581TIP3    H135158   3.998   5.702  16.098 -0.5318 -1.9688  0.0359
 4581TIP3    H235159   4.011   5.646  16.238  1.9167  1.3335  1.2637
 4582TIP3   OH235160   6.367   3.089   0.563 -0.0597 -0.3661 -0.0376
 4582TIP3    H135161   6.306   3.021   0.534 -0.1690  0.8695 -3.0840
 4582TIP3    H235162   6.392   3.063   0.651 -3.8224 -1.7422  0.7979
 4583TIP3   OH235163   2.448   5.114   3.044 -0.1044  0.7954 -0.0760
 4583TIP3    H135164   2.533   5.130   3.086  0.2263 -2.1038  0.5271
 4583TIP3    H235165   2.403   5.053   3.102 -1.2849 -0.2134 -1.9442
 4584TIP3   OH235166   6.191   6.192   0.459  0.3410 -0.4733 -0.5018
 4584TIP3    H135167   6.255   6.145   0.406  0.7242 -1.4349  0.7746
 4584TIP3    H235168   6.107   6.156   0.432  0.3497  0.3979 -1.7856
 4585TIP3   OH235169   5.587   5.360  11.157  0.3319 -0.4382  0.0318
 4585TIP3    H135170   5.515   5.304  11.126  0.7932 -0.8561 -0.2988
 4585TIP3    H235171   5.662   5.302  11.161  0.7457  0.0882  0.0043
 4586TIP3   OH235172   0.506   0.154   3.722  0.2149 -0.0405  0.0177
 4586TIP3    H135173   0.458   0.203   3.789 -1.4831  0.1707 -1.2992
 4586TIP3    H235174   0.439   0.121   3.663  1.2015 -4.3378  0.9725
 4587TIP3   OH235175   4.664   4.322   0.485 -0.8453 -0.3007 -0.0483
 4587TIP3    H135176   4.575   4.358   0.483 -0.7201 -0.0005 -0.4975
 4587TIP3    H235177   4.698   4.340   0.397 -0.1251  0.1260  0.3231
 4588TIP3   OH235178   0.221   6.385  16.423  0.5123  0.5355 -0.6007
 4588TIP3    H135179   0.193   6.439  16.349 -3.3619  0.1748  0.4217
 4588TIP3    H235180   0.206   6.295  16.394  1.2204  0.2633 -0.1610
 4589TIP3   OH235181   3.409   6.505  15.764 -0.0775  0.2080  0.7475
 4589TIP3    H135182   3.332   6.531  15.814 -2.2618 -2.9445 -0.6314
 4589TIP3    H235183   3.406   6.559  15.684 -1.7486 -0.8227  0.0680
 4590TIP3   OH235184   4.347   3.366  15.072 -0.4447 -0.2154  0.1160
 4590TIP3    H135185   4.259   3.402  15.081 -0.8318 -1.3585  1.1198
 4590TIP3    H235186   4.367   3.329  15.158  1.2560  0.5262  0.0711
 4591TIP3   OH235187   6.737   3.825  16.651  0.5363 -0.1098 -0.0721
 4591TIP3    H135188   6.652   3.852  16.686  0.3432  0.6740 -1.0837
 4591TIP3    H235189   6.751   3.737  16.686 -1.5494 -1.0183 -1.3675
 4592TIP3   OH235190   0.257   5.504  12.941  0.1438 -0.0997 -0.5386
 4592TIP3    H135191   0.177   5.497  12.889 -0.7628  1.0654  0.6467
 4592TIP3    H235192   0.323   5.535  12.879 -0.4142 -0.6711 -1.4357
 4593TIP3   OH235193   4.741   3.536   2.117  0.6530  0.3614  0.2287
 4593TIP3    H135194   4.742   3.554   2.212 -0.2025  1.2017  0.0997
 4593TIP3    H235195   4.653   3.561   2.090  1.1351  0.8597 -0.9248
 4594TIP3   OH235196   4.837   5.681   1.660  0.1197 -0.1348 -0.7626
 4594TIP3    H135197   4.779   5.703   1.733  0.1560 -3.0788  0.2877
 4594TIP3    H235198   4.888   5.760   1.645  0.2699  0.5452  2.5977
 4595TIP3   OH235199   2.100   5.270  14.379 -0.2234 -0.3457 -0.3187
 4595TIP3    H135200   2.113   5.318  14.461 -0.1926 -0.2380 -0.3861
 4595TIP3    H235201   2.005   5.266  14.369 -0.3736 -2.7568  1.1353
 4596TIP3   OH235202   5.592   4.928  15.686 -0.3254 -0.0414  0.0383
 4596TIP3    H135203   5.588   4.880  15.768 -1.4482 -0.9931 -0.5448
 4596TIP3    H235204   5.601   5.020  15.712  1.1850 -0.4819  1.1759
 4597TIP3   OH235205   1.350   5.833   3.799 -0.3258 -0.0491  0.4530
 4597TIP3    H135206   1.299   5.854   3.878 -0.6567  0.3103  0.1454
 4597TIP3    H235207   1.407   5.909   3.788 -0.2704 -0.1062  0.3504
 4598TIP3   OH235208   5.700   4.782  13.475  0.4508 -0.2920  0.5405
 4598TIP3    H135209   5.768   4.748  13.532 -0.9930 -0.4850  2.2345
 4598TIP3    H235210   5.708   4.877  13.482 -0.0463 -0.3089  1.5257
 4599TIP3   OH235211   1.795   6.605   1.527 -0.0030  0.4763  0.6755
 4599TIP3    H135212   1.767   6.517   1.550  0.1278 -0.2896 -1.7383
 4599TIP3    H235213   1.890   6.605   1.541  0.4631 -0.7690 -1.8697
 4600TIP3   OH235214   0.878   4.436  14.607 -0.0446  0.0635 -0.1677
 4600TIP3    H135215   0.872   4.342  14.587 -0.0714 -0.2394  1.1422
 4600TIP3    H235216   0.970   4.449  14.631 -0.6089 -0.2939  2.5029
 4601TIP3   OH235217   4.930   4.802   0.993 -0.3322 -0.0725  0.8116
 4601TIP3    H135218   4.894   4.735   1.052 -0.9554 -0.8677 -0.4219
 4601TIP3    H235219   4.950   4.754   0.913  2.1820  0.6284  0.9369
 4602TIP3   OH235220   0.781   2.489   5.903 -0.4543  0.4779  0.6965
 4602TIP3    H135221   0.787   2.436   5.982  2.5024 -0.0780  0.2017
 4602TIP3    H235222   0.829   2.569   5.924  0.5277  0.2417 -0.5736
 4603TIP3   OH235223   3.415   5.023  15.439  0.0557  0.0166  0.5482
 4603TIP3    H135224   3.389   5.077  15.514 -1.2101  0.4840 -0.1972
 4603TIP3    H235225   3.364   4.942  15.449  0.4654 -0.2427  0.5916
 4604TIP3   OH235226   5.320   1.193   4.043  0.4272 -0.4763  0.5906
 4604TIP3    H135227   5.288   1.139   3.971  0.1438 -1.1206  1.1873
 4604TIP3    H235228   5.409   1.163   4.059  1.2098  0.9727 -0.7337
 4605TIP3   OH235229   6.729   5.346  15.077  0.2190  0.0831  0.0542
 4605TIP3    H135230   6.727   5.414  15.010 -0.2075  0.7283  0.7166
 4605TIP3    H235231   6.714   5.392  15.159  0.8437 -0.6859  0.6181
 4606TIP3   OH235232   5.904   5.661   3.108 -0.0433  0.2693  0.2039
 4606TIP3    H135233   5.852   5.742   3.110 -0.6718 -0.1357  0.8473
 4606TIP3    H235234   5.983   5.683   3.157 -0.6293  0.2291  1.1941
 4607TIP3   OH235235   3.877   1.353   6.536  0.0524  0.9488  0.2073
 4607TIP3    H135236   3.842   1.439   6.515 -1.0676  0.8612  1.5581
 4607TIP3    H235237   3.967   1.355   6.504 -0.8102  1.5830 -2.3742
 4608TIP3   OH235238   0.790   5.186   4.583 -0.3716 -0.2767 -0.1776
 4608TIP3    H135239   0.861   5.157   4.524  1.8597  0.5975  1.9001
 4608TIP3    H235240   0.767   5.274   4.551  2.0419  0.9288  1.1241
 4609TIP3   OH235241   4.162   2.577   5.744 -0.4635  0.1236 -0.5009
 4609TIP3    H135242   4.150   2.617   5.830 -0.3415 -1.4340  0.2728
 4609TIP3    H235243   4.074   2.559   5.713 -0.4883 -0.1167 -0.2961
 4610TIP3   OH235244   5.535   3.808   4.401 -0.9451  0.3787  0.3470
 4610TIP3    H135245   5.603   3.754   4.441  0.1141  2.0925  1.0101
 4610TIP3    H235246   5.584   3.880   4.360 -2.2399  0.4287 -1.1760
 4611TIP3   OH235247   0.579   5.380  11.797 -0.6519  0.3278 -0.2097
 4611TIP3    H135248   0.597   5.364  11.704  0.7518  2.8829 -0.4465
 4611TIP3    H235249   0.655   5.346  11.843 -1.1676 -0.5660  0.0248
 4612TIP3   OH235250   6.696   2.501  15.099  0.2546  1.0419 -0.0182
 4612TIP3    H135251   6.614   2.460  15.126 -0.2047  1.5459 -0.6303
 4612TIP3    H235252   6.736   2.530  15.181  1.5082 -2.2049  0.6761
 4613TIP3   OH235253   5.157   0.849   4.274  0.7700 -0.1903  0.0544
 4613TIP3    H135254   5.111   0.858   4.357  0.1783 -0.6873 -0.2160
 4613TIP3    H235255   5.128   0.925   4.223 -1.3047 -1.5077 -0.8368
 4614TIP3   OH235256   0.209   1.013  16.789 -0.5942  0.1337 -0.3485
 4614TIP3    H135257   0.270   0.956  16.742 -0.9301 -0.7861  0.2869
 4614TIP3    H235258   0.260   1.091  16.811  1.2670 -1.7213  2.5657
 4615TIP3   OH235259   5.819   0.501   5.299 -0.0971  0.3689  0.3950
 4615TIP3    H135260   5.883   0.562   5.263 -0.2537  1.0067  1.1608
 4615TIP3    H235261   5.739   0.518   5.250  0.5156 -1.0910 -1.2319
 4616TIP3   OH235262   2.724   4.003  14.935 -0.1803  0.2752  0.2230
 4616TIP3    H135263   2.804   3.978  14.982 -1.0426 -1.6762  0.7857
 4616TIP3    H235264   2.679   4.064  14.993  0.0857  0.0352  0.6844
 4617TIP3   OH235265   5.422   3.469   1.083 -0.1136  0.1732 -0.1071
 4617TIP3    H135266   5.448   3.471   0.991  1.7085  1.9236  0.3749
 4617TIP3    H235267   5.348   3.529   1.089 -0.4359 -0.1907 -0.5003
 4618TIP3   OH235268   1.867   2.404  12.826  0.4713 -0.5171  0.0411
 4618TIP3    H135269   1.850   2.469  12.758 -0.4217 -1.9555 -1.1911
 4618TIP3    H235270   1.954   2.425  12.859  0.4231  0.9591 -0.6988
 4619TIP3   OH235271   3.092   2.987  13.591  0.3749  0.4127 -0.1537
 4619TIP3    H135272   3.033   3.062  13.606  0.1762  0.5393 -1.4420
 4619TIP3    H235273   3.054   2.917  13.644  0.1460  1.0029  0.4984
 4620TIP3   OH235274   1.221   1.740  12.699 -0.4121  0.3266  0.0027
 4620TIP3    H135275   1.192   1.703  12.615  1.4376  0.8150 -0.9067
 4620TIP3    H235276   1.295   1.796  12.676  1.0652 -0.6466  2.1119
 4621TIP3   OH235277   1.520   5.599   0.277 -0.0556  0.6992  0.0862
 4621TIP3    H135278   1.425   5.608   0.268 -0.0648 -0.4024 -1.3589
 4621TIP3    H235279   1.552   5.689   0.285 -0.9270  1.4881 -3.3731
 4622TIP3   OH235280   0.776   3.639   5.617  0.2389 -0.0396 -0.3436
 4622TIP3    H135281   0.695   3.590   5.603 -0.0823  0.6488 -0.9498
 4622TIP3    H235282   0.775   3.706   5.549  0.8576  0.5658  0.2361
 4623TIP3   OH235283   0.223   0.741   5.913 -0.2243 -0.2963  0.1242
 4623TIP3    H135284   0.259   0.788   5.989 -2.3405 -0.5578  1.3628
 4623TIP3    H235285   0.257   0.652   5.922 -1.0298 -0.5123  1.1998
 4624TIP3   OH235286   2.280   5.482   5.219 -0.6639 -0.1710  0.4761
 4624TIP3    H135287   2.261   5.534   5.142 -0.2018  0.2852  0.6667
 4624TIP3    H235288   2.335   5.538   5.274 -0.6586 -0.6315  0.9563
 4625TIP3   OH235289   1.505   0.150   2.865  0.3497 -0.1970  0.5174
 4625TIP3    H135290   1.413   0.174   2.858  0.7495  1.7585  1.2076
 4625TIP3    H235291   1.504   0.067   2.914 -0.9860  0.8940  2.5016
 4626TIP3   OH235292   3.488   1.085   1.601 -0.6370  0.4333 -0.0986
 4626TIP3    H135293   3.564   1.121   1.648 -0.6333  0.0685  0.1766
 4626TIP3    H235294   3.485   0.993   1.626  0.1721 -0.1198 -1.8624
 4627TIP3   OH235295   4.470   4.105   0.032  0.3985 -0.0863 -0.1046
 4627TIP3    H135296   4.396   4.060   0.074 -0.4237  0.8492 -0.4997
 4627TIP3    H235297   4.429   4.164  -0.031  1.5095  0.2403 -0.5431
 4628TIP3   OH235298   4.043   5.939   0.762 -0.3654 -0.2358 -0.7032
 4628TIP3    H135299   4.007   5.950   0.850 -0.5708  0.0140 -0.8153
 4628TIP3    H235300   3.982   5.880   0.719 -0.5193  0.0107 -0.8236
 4629TIP3   OH235301   5.555   3.176   3.583  0.5389  0.4927  0.1358
 4629TIP3    H135302   5.577   3.265   3.612 -0.0510  0.9417 -0.7392
 4629TIP3    H235303   5.628   3.150   3.527  0.0144  1.0367 -0.8287
 4630TIP3   OH235304   0.093   2.076  14.791 -0.0275  0.6185 -0.3037
 4630TIP3    H135305   0.039   2.046  14.718 -0.5908  0.2788  0.2365
 4630TIP3    H235306   0.103   1.999  14.847  1.6759  0.4736 -0.7709
 4631TIP3   OH235307   4.538   5.843   4.433  0.3959  0.3919 -0.7999
 4631TIP3    H135308   4.601   5.822   4.503 -0.8799 -2.1237 -0.2715
 4631TIP3    H235309   4.488   5.917   4.467  1.4741  0.8698 -0.1909
 4632TIP3   OH235310   1.776   4.287  15.184  0.2626 -0.1055 -0.2370
 4632TIP3    H135311   1.850   4.237  15.148 -0.5701 -1.2070 -0.4868
 4632TIP3    H235312   1.792   4.289  15.279  1.6176  1.3937 -0.4551
 4633TIP3   OH235313   1.920   2.636   0.710  0.2801  0.1106 -0.6677
 4633TIP3    H135314   1.936   2.568   0.775 -0.2410  0.0783 -0.5651
 4633TIP3    H235315   1.876   2.706   0.758 -0.8615 -0.2585 -1.1335
 4634TIP3   OH235316   2.889   0.186  11.835  0.0581  0.4682 -0.2912
 4634TIP3    H135317   2.960   0.131  11.868 -0.5430  0.1991  0.5907
 4634TIP3    H235318   2.890   0.173  11.740  1.0489  0.3072 -0.2657
 4635TIP3   OH235319   1.990   6.114   0.959 -0.0774  0.2880 -0.2797
 4635TIP3    H135320   1.920   6.154   1.011  1.6567  3.3793 -0.0467
 4635TIP3    H235321   1.958   6.119   0.869 -0.5590  0.8152 -0.0873
 4636TIP3   OH235322   5.974   6.683   3.133 -0.1671  0.3042 -0.2727
 4636TIP3    H135323   6.035   6.684   3.207  0.8898  0.8872 -1.1294
 4636TIP3    H235324   5.958   6.590   3.117  0.8647  0.1246 -0.3202
 4637TIP3   OH235325   5.299   4.612  16.647  0.2151  0.1377 -0.4950
 4637TIP3    H135326   5.351   4.542  16.685 -0.1418  0.3122  0.3296
 4637TIP3    H235327   5.329   4.617  16.556 -0.3487 -1.6590 -0.8272
 4638TIP3   OH235328   3.997   1.931   0.784  0.0070  0.2747 -0.0246
 4638TIP3    H135329   4.065   1.963   0.724 -0.1182  0.7595  0.0929
 4638TIP3    H235330   3.997   1.994   0.856 -0.2604  0.0236  0.1961
 4639TIP3   OH235331   1.023   1.547  16.626  0.0708  0.1431 -0.2719
 4639TIP3    H135332   1.115   1.552  16.655 -0.1776  1.0938  0.3897
 4639TIP3    H235333   1.026   1.570  16.534  0.6739 -1.3237 -0.6551
 4640TIP3   OH235334   1.452   4.948   1.272 -0.3751  0.1290  0.8401
 4640TIP3    H135335   1.479   5.037   1.249  0.1394 -0.4305 -0.8339
 4640TIP3    H235336   1.515   4.921   1.340  1.3841  0.0017 -0.7583
 4641TIP3   OH235337   4.059   5.864   6.164  0.0188  0.1872 -0.0278
 4641TIP3    H135338   4.017   5.791   6.211  0.5335 -0.1114 -0.0228
 4641TIP3    H235339   4.088   5.825   6.081 -0.5223  0.6150 -0.4255
 4642TIP3   OH235340   2.257   6.604  13.852 -0.6962 -0.0699 -0.0499
 4642TIP3    H135341   2.287   6.666  13.786  0.0591 -1.0056 -0.6100
 4642TIP3    H235342   2.331   6.543  13.863 -1.6136 -1.1865  0.0886
 4643TIP3   OH235343   4.980   1.324   2.715  0.4026 -0.0549 -0.2395
 4643TIP3    H135344   4.990   1.372   2.797  1.6711 -1.1636  0.2888
 4643TIP3    H235345   5.058   1.269   2.709  0.6507  0.4524 -2.5093
 4644TIP3   OH235346   0.888   1.597   2.548 -0.0643  0.2306  0.0197
 4644TIP3    H135347   0.913   1.684   2.581  1.6829 -0.4946  0.7184
 4644TIP3    H235348   0.816   1.570   2.605 -0.7934  1.3076 -0.3668
 4645TIP3   OH235349   0.412   3.253  13.627 -0.5734 -0.1683  0.4138
 4645TIP3    H135350   0.343   3.203  13.672 -2.1731  1.6433  0.1245
 4645TIP3    H235351   0.372   3.338  13.610  1.4748  0.6575 -0.5975
 4646TIP3   OH235352   4.796   0.692   3.404 -0.5287  0.2624  0.0934
 4646TIP3    H135353   4.746   0.638   3.344  1.6429 -0.9564 -0.7468
 4646TIP3    H235354   4.750   0.685   3.488 -2.3759  0.2069 -0.8994
 4647TIP3   OH235355   6.490   3.314  14.510 -0.3064  0.2489 -1.1105
 4647TIP3    H135356   6.467   3.221  14.504 -1.5896  0.5268 -0.7645
 4647TIP3    H235357   6.570   3.316  14.562 -1.6949 -0.5006  1.1781
 4648TIP3   OH235358   1.349   4.750  12.070 -0.2453  0.0376  0.2199
 4648TIP3    H135359   1.266   4.703  12.060  1.0178 -2.6384  1.3332
 4648TIP3    H235360   1.326   4.842  12.059 -2.4434 -0.7800 -5.2212
 4649TIP3   OH235361   0.679   5.557  13.693  0.4660 -0.3822  0.2333
 4649TIP3    H135362   0.676   5.592  13.782 -0.8295 -0.3314  0.1804
 4649TIP3    H235363   0.679   5.462  13.705  1.0132 -0.3829  0.2897
 4650TIP3   OH235364   6.213   6.039  12.695  0.1778 -0.0954  0.3923
 4650TIP3    H135365   6.210   5.993  12.778  0.8864 -0.2477  0.3392
 4650TIP3    H235366   6.170   5.980  12.633  1.3825 -0.8568  0.2523
 4651TIP3   OH235367   4.865   3.990  13.462  0.3373  0.5920  0.7688
 4651TIP3    H135368   4.782   4.025  13.493  0.6618  0.5475  1.7494
 4651TIP3    H235369   4.899   4.057  13.402 -2.0138 -0.9297 -2.5452
 4652TIP3   OH235370   3.739   4.626   2.207 -0.1807  0.0425  0.0220
 4652TIP3    H135371   3.716   4.686   2.136  2.1332  2.0963  0.8535
 4652TIP3    H235372   3.663   4.627   2.265 -1.0195  0.4774 -1.0534
 4653TIP3   OH235373   5.522   2.042   2.053  0.0370 -0.5734  0.1385
 4653TIP3    H135374   5.542   2.106   1.985 -1.8846  0.6262  0.6201
 4653TIP3    H235375   5.530   1.957   2.010 -0.1280  0.1200 -1.3118
 4654TIP3   OH235376   1.886   3.244   1.639 -0.2085  0.3056 -0.0332
 4654TIP3    H135377   1.810   3.192   1.666 -0.2922  0.0395 -0.7644
 4654TIP3    H235378   1.959   3.208   1.689 -0.2054 -0.7306 -0.7670
 4655TIP3   OH235379   2.593   4.585  17.225  0.2366  0.0888  0.1706
 4655TIP3    H135380   2.577   4.584  17.131  2.5829 -1.4149 -0.2707
 4655TIP3    H235381   2.542   4.512  17.259  0.4909 -0.2358 -0.1420
 4656TIP3   OH235382   1.294   1.014   4.214  0.1618 -0.2407  0.2925
 4656TIP3    H135383   1.387   1.007   4.189  0.5623  1.8470  0.9970
 4656TIP3    H235384   1.247   1.019   4.131  0.7591 -0.5098 -0.0684
 4657TIP3   OH235385   4.617   1.138   2.723  0.1100  0.1365 -0.2606
 4657TIP3    H135386   4.543   1.084   2.695 -0.2268  1.1045 -1.2890
 4657TIP3    H235387   4.601   1.154   2.816 -1.0160  0.3873 -0.4899
 4658TIP3   OH235388   3.938   0.648   0.963 -0.0188 -0.2639  0.6175
 4658TIP3    H135389   4.010   0.585   0.971 -0.2186 -0.5646  0.0776
 4658TIP3    H235390   3.906   0.658   1.053 -0.4154 -1.4455  0.6169
 4659TIP3   OH235391   1.568   2.554   3.983 -0.1166 -0.5151  0.2892
 4659TIP3    H135392   1.510   2.600   3.923  1.4567  1.1049 -0.0503
 4659TIP3    H235393   1.574   2.465   3.948 -0.2914  0.0382 -1.1843
 4660TIP3   OH235394   2.718   1.096  15.083 -0.3339  0.2557 -0.3189
 4660TIP3    H135395   2.715   1.179  15.132 -0.2719  0.7079 -1.0727
 4660TIP3    H235396   2.807   1.094  15.046 -0.1700 -0.3848  0.0994
 4661TIP3   OH235397   6.530   0.249  11.711  0.5064  0.3182 -0.2488
 4661TIP3    H135398   6.595   0.204  11.765  1.4195  0.7720 -0.9425
 4661TIP3    H235399   6.449   0.200  11.725  0.3523  1.1697  2.5721
 4662TIP3   OH235400   0.157   5.007   6.645 -0.1825 -0.0818  0.1552
 4662TIP3    H135401   0.175   5.095   6.677 -0.9219 -0.1004  0.6346
 4662TIP3    H235402   0.111   4.964   6.717 -1.0550 -0.4183 -0.5875
 4663TIP3   OH235403   0.146   2.472  14.624 -0.5125  0.6234 -0.6118
 4663TIP3    H135404   0.166   2.424  14.704  2.0339  0.3885 -1.2848
 4663TIP3    H235405   0.071   2.426  14.587 -1.2718  0.2887  1.2272
 4664TIP3   OH235406   6.376   5.553   0.824 -0.5641  0.8598 -0.3467
 4664TIP3    H135407   6.436   5.616   0.865  0.5400 -0.4891  0.1818
 4664TIP3    H235408   6.429   5.475   0.809 -2.1548 -0.3604  0.0388
 4665TIP3   OH235409   6.368   0.691  15.228 -0.2237 -0.0295 -0.2246
 4665TIP3    H135410   6.305   0.620  15.213 -0.5439 -0.2919  1.9707
 4665TIP3    H235411   6.313   0.769  15.233 -0.0122  0.2013 -1.3459
 4666TIP3   OH235412   2.013   5.223   2.089  0.6469 -0.3462  0.1748
 4666TIP3    H135413   2.093   5.266   2.116  0.3421 -0.4827  1.3301
 4666TIP3    H235414   1.984   5.174   2.166 -1.0022  0.3987  0.0823
 4667TIP3   OH235415   2.152   4.942  17.140  0.3652 -0.2363 -0.1261
 4667TIP3    H135416   2.202   4.864  17.113  0.3937 -0.4667  0.5794
 4667TIP3    H235417   2.113   4.918  17.224  1.1365  0.8272  0.5720
 4668TIP3   OH235418   4.664   2.404  15.491  0.1630  0.5019 -0.0282
 4668TIP3    H135419   4.654   2.332  15.430 -0.7708  0.0984  0.5675
 4668TIP3    H235420   4.593   2.464  15.468  0.3869  0.7993  0.0536
 4669TIP3   OH235421   5.862   4.131   3.321 -0.2563  0.3937 -0.7080
 4669TIP3    H135422   5.862   4.043   3.283  1.9554  1.4967 -3.6681
 4669TIP3    H235423   5.955   4.154   3.329 -0.7353  3.0144 -1.5871
 4670TIP3   OH235424   2.080   5.937   1.649 -0.2768  0.0880 -0.1810
 4670TIP3    H135425   2.096   6.001   1.718  2.0352 -1.8130  1.1965
 4670TIP3    H235426   2.150   5.951   1.586  0.3806 -1.1398  0.2393
 4671TIP3   OH235427   5.181   3.033   3.465 -0.4166  0.4218  0.1059
 4671TIP3    H135428   5.217   3.109   3.417  0.2234  0.1162  0.0944
 4671TIP3    H235429   5.244   2.963   3.449 -2.0321 -0.7437 -1.6379
 4672TIP3   OH235430   4.680   4.103   3.579 -0.5278 -0.1954 -0.3646
 4672TIP3    H135431   4.695   4.195   3.600  0.5183 -0.4183 -0.0653
 4672TIP3    H235432   4.607   4.104   3.517 -0.8097  0.7951 -0.0348
 4673TIP3   OH235433   5.067   0.411   0.194  0.4158  0.7160 -0.0235
 4673TIP3    H135434   5.143   0.447   0.241 -0.5447  1.4572  1.0118
 4673TIP3    H235435   5.072   0.316   0.211  0.7528  0.8345  0.5866
 4674TIP3   OH235436   4.895   1.192   2.035 -0.6912  0.3528 -0.0631
 4674TIP3    H135437   4.859   1.194   2.124  1.0172  1.0529  0.6701
 4674TIP3    H235438   4.866   1.274   1.996  0.0507  0.9166  0.5239
 4675TIP3   OH235439   6.549   6.421  15.190  0.8467 -0.0423  0.1522
 4675TIP3    H135440   6.491   6.493  15.164  1.0808 -0.4965 -1.8004
 4675TIP3    H235441   6.636   6.459  15.192  1.1099 -0.4114 -1.8480
 4676TIP3   OH235442   6.040   1.182  17.075 -0.0558  0.1490 -0.1618
 4676TIP3    H135443   6.030   1.088  17.062  1.5393  0.1284 -1.6000
 4676TIP3    H235444   6.027   1.220  16.988  0.6445  1.1146  0.1440
 4677TIP3   OH235445   4.215   3.193  12.110 -0.0464  0.0922 -0.0775
 4677TIP3    H135446   4.162   3.160  12.037  1.8733  0.4699 -1.7131
 4677TIP3    H235447   4.257   3.272  12.076  0.6205  0.4892  1.5764
 4678TIP3   OH235448   0.752   3.501  16.446 -0.3708  0.4208 -0.1397
 4678TIP3    H135449   0.730   3.461  16.530 -0.7362 -0.7634 -0.7756
 4678TIP3    H235450   0.782   3.428  16.391  0.6262  1.2861 -0.8002
 4679TIP3   OH235451   5.937   5.214  16.043 -0.1647 -0.1908  0.0963
 4679TIP3    H135452   5.880   5.257  15.979 -0.0630  1.0200  0.7815
 4679TIP3    H235453   6.015   5.270  16.048 -1.0133  0.9440  2.7196
 4680TIP3   OH235454   4.232   3.440   2.402  0.3366  0.2853 -0.1672
 4680TIP3    H135455   4.313   3.390   2.410  0.4777  0.3172 -1.2591
 4680TIP3    H235456   4.177   3.387   2.344 -0.8108 -0.1994  1.3205
 4681TIP3   OH235457   6.228   2.810   3.380 -0.4369  0.7658  0.4771
 4681TIP3    H135458   6.292   2.880   3.395  0.3280  0.0586  0.6295
 4681TIP3    H235459   6.184   2.835   3.299 -0.2102  1.4495  0.5572
 4682TIP3   OH235460   5.810   2.105   1.254  0.2928 -0.0950  0.1096
 4682TIP3    H135461   5.776   2.059   1.331  0.5667 -0.4248  0.0353
 4682TIP3    H235462   5.738   2.162   1.227  0.5672  0.8481  1.2577
 4683TIP3   OH235463   0.030   2.444   3.303  0.1905  0.3504 -0.4119
 4683TIP3    H135464   0.098   2.376   3.308 -0.7840 -0.6938 -0.7457
 4683TIP3    H235465   0.023   2.463   3.209  0.8191  1.2997 -0.2700
 4684TIP3   OH235466   2.698   6.115   1.456 -0.0927  0.3169 -0.0656
 4684TIP3    H135467   2.696   6.183   1.389  2.4147  0.9694  0.4265
 4684TIP3    H235468   2.711   6.033   1.408 -1.2160  0.4050 -0.5352
 4685TIP3   OH235469   6.622   5.318   6.417 -0.7141  0.0217 -0.7476
 4685TIP3    H135470   6.690   5.366   6.463 -1.7242  0.9857 -0.2145
 4685TIP3    H235471   6.656   5.308   6.328  0.6469 -0.6202 -0.1880
 4686TIP3   OH235472   3.542   0.966  12.087 -0.1089 -0.6164  0.0320
 4686TIP3    H135473   3.630   0.994  12.108 -0.2023  0.7305 -1.2294
 4686TIP3    H235474   3.497   0.960  12.171  0.2898  1.8278  0.4793
 4687TIP3   OH235475   2.845   0.429   1.623  0.4012 -0.8003  0.2536
 4687TIP3    H135476   2.761   0.387   1.644  0.5613 -0.9858  0.5274
 4687TIP3    H235477   2.842   0.444   1.528 -0.2324 -0.1777  0.3578
 4688TIP3   OH235478   4.003   6.183   3.804  0.5086 -0.6086 -0.4590
 4688TIP3    H135479   4.047   6.119   3.860  1.6169  0.9400  0.5420
 4688TIP3    H235480   4.074   6.242   3.776 -0.5606  0.5696 -0.7812
 4689TIP3   OH235481   3.752   3.268   4.507 -0.7449 -0.1504  0.3055
 4689TIP3    H135482   3.762   3.281   4.602 -1.6669 -3.0379  0.9121
 4689TIP3    H235483   3.764   3.174   4.495 -1.5401  0.0239 -2.3444
 4690TIP3   OH235484   1.106   5.055   1.347 -0.0872  0.0551 -1.0998
 4690TIP3    H135485   1.121   5.114   1.274 -4.5922 -0.5668 -2.8554
 4690TIP3    H235486   1.097   4.968   1.307 -0.5813 -0.6552  0.4716
 4691TIP3   OH235487   5.776   5.863   3.423 -0.4628  0.0368  0.1648
 4691TIP3    H135488   5.773   5.772   3.454  0.3850  0.4443  1.5082
 4691TIP3    H235489   5.868   5.887   3.427 -0.6315  0.8474 -0.5587
 4692TIP3   OH235490   3.871   0.355  15.448 -0.3379 -0.0537 -0.3422
 4692TIP3    H135491   3.782   0.385  15.428 -0.7114 -0.7306  0.2812
 4692TIP3    H235492   3.860   0.266  15.481  0.6557 -0.4619 -1.0575
 4693TIP3   OH235493   4.792   2.986   6.174  0.3672  0.1669  0.2613
 4693TIP3    H135494   4.871   2.950   6.213 -0.4711 -1.5078  0.4862
 4693TIP3    H235495   4.747   3.030   6.246  0.7669  0.5756  0.2674
 4694TIP3   OH235496   1.001   0.171   5.645  0.3003  0.7442  0.4481
 4694TIP3    H135497   0.923   0.168   5.701  1.4155 -0.1992  2.0370
 4694TIP3    H235498   1.061   0.229   5.690  1.4308 -0.4502  0.5552
 4695TIP3   OH235499   2.171   5.791   1.275  0.2295 -0.3207  0.4593
 4695TIP3    H135500   2.244   5.853   1.265  1.3643 -1.6218  0.4320
 4695TIP3    H235501   2.132   5.785   1.188 -1.3453  2.0118  0.9031
 4696TIP3   OH235502   1.815   6.035  13.651 -0.3936  0.5957  0.4273
 4696TIP3    H135503   1.870   6.004  13.724 -0.9015 -0.6787  0.2923
 4696TIP3    H235504   1.730   5.995  13.667 -1.8014  3.7122  1.4577
 4697TIP3   OH235505   0.611   5.824   0.533 -0.0473  0.5752  0.3263
 4697TIP3    H135506   0.525   5.833   0.575 -0.5687  0.7459 -0.7549
 4697TIP3    H235507   0.607   5.739   0.489  0.5725  0.3037  0.7789
 4698TIP3   OH235508   0.507   5.119   1.329 -0.4020  0.4081 -0.1080
 4698TIP3    H135509   0.461   5.137   1.412 -1.5772 -0.8010 -0.4558
 4698TIP3    H235510   0.580   5.180   1.329 -0.8322  0.9921  1.4557
 4699TIP3   OH235511   3.132   2.424   5.454  0.1761  0.8590  0.2082
 4699TIP3    H135512   3.118   2.483   5.527 -1.8485 -1.0438  1.4860
 4699TIP3    H235513   3.053   2.432   5.400  0.8317  0.8701 -0.7895
 4700TIP3   OH235514   1.653   3.142  10.845  0.0001  0.2033  0.1553
 4700TIP3    H135515   1.633   3.230  10.811  0.3865 -0.7715 -2.8145
 4700TIP3    H235516   1.626   3.083  10.775  3.1981 -1.8374  0.4820
 4701TIP3   OH235517   2.710   0.000  14.749  0.0718 -0.1177 -0.3551
 4701TIP3    H135518   2.641   0.034  14.807 -0.7413  0.0875 -1.4179
 4701TIP3    H235519   2.706   0.057  14.672  0.5957 -0.8867 -0.9611
 4702TIP3   OH235520   5.901   0.628  15.862 -0.4775 -0.7423  0.4682
 4702TIP3    H135521   5.829   0.673  15.818 -0.2692 -1.5475 -0.7627
 4702TIP3    H235522   5.952   0.698  15.904 -0.6115  0.0893 -0.7092
 4703TIP3   OH235523   5.491   3.616   3.313 -0.6834  0.0141 -0.2413
 4703TIP3    H135524   5.581   3.636   3.337 -0.2357 -0.5463 -1.3619
 4703TIP3    H235525   5.476   3.666   3.232 -0.6720 -1.4728 -1.1955
 4704TIP3   OH235526   2.756   0.258  11.280 -0.0530  0.4258  0.0863
 4704TIP3    H135527   2.851   0.254  11.283 -0.0943  0.2479  1.8668
 4704TIP3    H235528   2.736   0.351  11.288 -0.0324  0.5620 -1.2224
 4705TIP3   OH235529   3.643   1.391  11.280 -0.1013  0.5117 -0.1085
 4705TIP3    H135530   3.709   1.332  11.316  0.4949  0.4740 -1.2095
 4705TIP3    H235531   3.561   1.343  11.286  0.3753 -0.4522 -0.9901
 4706TIP3   OH235532   0.810   1.437  14.220  0.1316  0.0771 -0.2794
 4706TIP3    H135533   0.849   1.487  14.148  0.8391  1.0499  0.7326
 4706TIP3    H235534   0.746   1.380  14.178  0.7726  0.3640 -1.7085
 4707TIP3   OH235535   5.146   6.024   3.499 -1.0013  0.4420 -0.1263
 4707TIP3    H135536   5.097   5.955   3.545 -0.6970 -0.0235 -0.4878
 4707TIP3    H235537   5.131   6.006   3.406  0.1496  0.0541 -0.2565
 4708TIP3   OH235538   1.104   6.344  13.216  0.1879 -1.2589  0.2646
 4708TIP3    H135539   1.167   6.416  13.228  0.4764 -1.3836 -0.4827
 4708TIP3    H235540   1.151   6.266  13.249 -0.1154 -1.1222  1.0505
 4709TIP3   OH235541   5.927   2.411  10.730  0.2509 -1.1662 -0.2722
 4709TIP3    H135542   5.931   2.316  10.727 -0.8002 -1.2853  1.0553
 4709TIP3    H235543   5.862   2.430  10.798  0.5653  0.4943 -0.3960
 4710TIP3   OH235544   6.571   6.373  11.710 -0.3899  0.4288  0.6097
 4710TIP3    H135545   6.500   6.364  11.774  0.6919 -0.5481  1.7153
 4710TIP3    H235546   6.539   6.326  11.633 -0.5300 -0.9667  1.4852
 4711TIP3   OH235547   5.752   6.274   5.063 -0.5610  0.1126  0.2560
 4711TIP3    H135548   5.676   6.218   5.077  0.6565 -1.6973  0.0159
 4711TIP3    H235549   5.764   6.278   4.968  0.7300 -1.2323  0.3275
 4712TIP3   OH235550   6.327   0.666   4.326 -0.1708 -0.4615  0.2572
 4712TIP3    H135551   6.257   0.613   4.289  1.3346 -1.4679 -1.3060
 4712TIP3    H235552   6.311   0.754   4.293 -1.9056 -0.1694  1.7385
 4713TIP3   OH235553   5.829   4.998   5.599  0.4209  0.1993  0.0648
 4713TIP3    H135554   5.780   4.916   5.590  0.8453 -0.0744  0.2253
 4713TIP3    H235555   5.798   5.035   5.681 -0.7568  0.8761 -0.6515
 4714TIP3   OH235556   2.556   5.463  15.645  0.2462  0.1650 -0.3649
 4714TIP3    H135557   2.577   5.503  15.729 -0.2547 -0.8364  0.2528
 4714TIP3    H235558   2.543   5.370  15.665  0.2896 -0.1211 -1.5773
 4715TIP3   OH235559   2.018   2.286  15.197 -0.4499  0.3926  0.2414
 4715TIP3    H135560   2.003   2.315  15.287 -1.6559 -0.1877  0.2430
 4715TIP3    H235561   2.018   2.191  15.202  1.0887  0.3477 -0.1420
 4716TIP3   OH235562   6.232   2.438  12.338  0.0456 -0.3293 -0.4363
 4716TIP3    H135563   6.219   2.448  12.432 -0.1609 -2.3785 -0.1872
 4716TIP3    H235564   6.151   2.471  12.299 -0.4409 -0.7278  0.2158
 4717TIP3   OH235565   0.963   3.020   2.643 -0.5500 -0.0298  0.5217
 4717TIP3    H135566   1.055   3.039   2.660 -0.2388 -2.3123  1.8780
 4717TIP3    H235567   0.921   3.028   2.729 -1.0988 -1.4875  0.4097
 4718TIP3   OH235568   5.077   4.403   0.394  0.9386  0.3178 -0.2104
 4718TIP3    H135569   5.108   4.494   0.387  0.9515  0.3054 -0.3080
 4718TIP3    H235570   5.125   4.367   0.468 -0.3683  0.9341  1.0079
 4719TIP3   OH235571   4.499   3.273  16.517 -0.6438 -0.5033  0.5825
 4719TIP3    H135572   4.457   3.318  16.443 -1.4644 -0.8241  0.8407
 4719TIP3    H235573   4.576   3.326  16.537  0.1426 -0.9321 -1.1240
 4720TIP3   OH235574   0.583   0.688   2.703  0.1955  0.4727  0.0346
 4720TIP3    H135575   0.571   0.719   2.613  1.7085  1.3947  0.1128
 4720TIP3    H235576   0.496   0.692   2.741  0.1447  4.5847 -0.0417
 4721TIP3   OH235577   2.205   4.840  11.286  0.6152 -0.7930 -0.0742
 4721TIP3    H135578   2.199   4.921  11.337  1.8483 -0.2838 -0.6944
 4721TIP3    H235579   2.145   4.854  11.212  1.6844  0.0682 -0.8137
 4722TIP3   OH235580   3.767   0.458  14.622  0.2473 -0.4052 -0.0848
 4722TIP3    H135581   3.788   0.451  14.715 -1.1325 -0.6999  0.2361
 4722TIP3    H235582   3.839   0.416  14.577  0.9553 -0.2257  0.8534
 4723TIP3   OH235583   2.959   0.646  17.297 -0.3482 -0.0501  0.5359
 4723TIP3    H135584   2.966   0.708  17.224 -0.8039  0.9132  1.2901
 4723TIP3    H235585   2.929   0.699  17.371 -0.6192 -1.1482  1.2385
 4724TIP3   OH235586   0.977   1.987   4.945  0.8644 -0.1727 -0.6418
 4724TIP3    H135587   1.051   1.963   4.889  1.7719 -0.3973  0.6108
 4724TIP3    H235588   0.962   1.910   5.000 -0.6179 -0.3034 -1.1661
 4725TIP3   OH235589   4.185   4.122   0.136  0.4435 -0.4578 -0.1024
 4725TIP3    H135590   4.162   4.183   0.206 -0.1933 -0.9360  0.1026
 4725TIP3    H235591   4.202   4.039   0.181  0.2856 -0.6991 -0.4883
 4726TIP3   OH235592   3.753   1.600  14.967 -0.8551 -0.1426  0.6396
 4726TIP3    H135593   3.762   1.642  14.882 -1.1850 -0.4163  0.4691
 4726TIP3    H235594   3.714   1.667  15.023 -0.3185  0.1531  0.6742
 4727TIP3   OH235595   5.708   3.166  13.696 -0.7064 -0.3996  0.9359
 4727TIP3    H135596   5.735   3.077  13.677  0.5012 -0.1404  1.3377
 4727TIP3    H235597   5.713   3.212  13.612  3.6286  0.4997  1.4226
 4728TIP3   OH235598   6.498   3.327  10.380 -0.0391  0.0032 -0.2146
 4728TIP3    H135599   6.575   3.369  10.342 -0.3478 -0.4375 -1.3786
 4728TIP3    H235600   6.518   3.320  10.473  0.2561  2.1884 -0.0673
 4729TIP3   OH235601   5.767   3.542  12.296 -0.0774 -0.3100  0.1587
 4729TIP3    H135602   5.784   3.449  12.283  2.3254  0.1977 -1.0542
 4729TIP3    H235603   5.848   3.575  12.335 -0.4508  1.4573 -0.4654
 4730TIP3   OH235604   0.797   4.150   0.357  0.0686  0.0947 -0.2850
 4730TIP3    H135605   0.751   4.097   0.423  1.0691  1.7311  1.8614
 4730TIP3    H235606   0.812   4.090   0.284 -0.8070 -1.9245  1.0969
 4731TIP3   OH235607   1.633   3.614  10.604 -0.2496  0.4439  0.2071
 4731TIP3    H135608   1.688   3.642  10.530  0.2824 -0.5066  0.2333
 4731TIP3    H235609   1.583   3.540  10.570 -0.2470  0.2148  0.6971
 4732TIP3   OH235610   6.488   3.379  13.708 -0.5485  0.9056 -0.2008
 4732TIP3    H135611   6.415   3.318  13.699 -2.2724  2.6659  1.1319
 4732TIP3    H235612   6.536   3.348  13.785 -0.9494  0.7893  0.0019
 4733TIP3   OH235613   0.098   6.161   5.418 -0.3046 -0.0357 -0.0204
 4733TIP3    H135614   0.013   6.119   5.410  0.6888 -1.7910 -2.7423
 4733TIP3    H235615   0.111   6.170   5.513 -1.6771 -3.6956  0.6949
 4734TIP3   OH235616   4.281   3.172   5.723 -0.0016 -0.0040 -0.2533
 4734TIP3    H135617   4.197   3.129   5.709  0.0821 -0.0863 -0.4989
 4734TIP3    H235618   4.258   3.257   5.761 -0.1542 -0.3729  0.5107
 4735TIP3   OH235619   5.499   5.431   6.144 -0.1252  0.1726 -0.1605
 4735TIP3    H135620   5.570   5.385   6.187  0.5772  0.0351 -1.4235
 4735TIP3    H235621   5.421   5.408   6.194  0.6517 -0.0055  0.9892
 4736TIP3   OH235622   5.190   6.616  17.432  0.1605  0.3540  1.0022
 4736TIP3    H135623   5.228   6.682  17.375 -0.1717  1.1820  1.7099
 4736TIP3    H235624   5.119   6.577  17.380  2.1933 -1.5901 -0.5371
 4737TIP3   OH235625   5.582   4.859   4.441  0.2286 -0.3215  0.3669
 4737TIP3    H135626   5.563   4.767   4.422 -0.8097  0.2020 -1.3909
 4737TIP3    H235627   5.671   4.873   4.410  0.2102 -0.6040  0.1906
 4738TIP3   OH235628   6.447   2.970   4.221 -0.7368 -0.7136  0.2812
 4738TIP3    H135629   6.509   2.899   4.204 -1.1114 -0.9203 -0.2403
 4738TIP3    H235630   6.464   3.034   4.151  0.6449  0.4377  1.6107
 4739TIP3   OH235631   1.541   6.271  11.643  0.4211  0.2986  0.1328
 4739TIP3    H135632   1.528   6.321  11.562  1.4626  0.7282  0.2174
 4739TIP3    H235633   1.570   6.336  11.707 -0.3012 -0.0541  0.8369
 4740TIP3   OH235634   5.332   4.823  14.572 -0.1185 -0.4787  0.2240
 4740TIP3    H135635   5.325   4.846  14.479 -0.3902  1.1826  0.6260
 4740TIP3    H235636   5.425   4.811  14.587  0.1874  1.7057  0.2652
 4741TIP3   OH235637   2.143   3.708   3.428 -0.4563  0.1920  0.5502
 4741TIP3    H135638   2.212   3.773   3.423 -0.6577  0.4888  1.4398
 4741TIP3    H235639   2.116   3.708   3.520 -2.5653  1.0826  0.0140
 4742TIP3   OH235640   3.221   3.619  15.066  0.0001 -0.1638  0.9832
 4742TIP3    H135641   3.130   3.589  15.068 -0.6014  1.4310  0.1296
 4742TIP3    H235642   3.231   3.657  14.979  1.9195 -1.4854  0.5758
 4743TIP3   OH235643   1.584   4.299  13.715 -0.1789  0.1340 -0.0898
 4743TIP3    H135644   1.675   4.314  13.692 -0.4709  1.3142 -0.5648
 4743TIP3    H235645   1.559   4.222  13.664  0.8296 -0.8912  0.8931
 4744TIP3   OH235646   1.596   3.867  14.212 -0.1438 -0.2134 -0.0203
 4744TIP3    H135647   1.569   3.918  14.136  1.1898 -0.7802 -0.9114
 4744TIP3    H235648   1.574   3.776  14.189  3.2688 -0.8694 -1.2673
 4745TIP3   OH235649   1.125   2.004   4.045  0.1793  0.3287 -0.1531
 4745TIP3    H135650   1.068   2.078   4.027 -0.2114 -0.0619 -0.5437
 4745TIP3    H235651   1.088   1.963   4.124  0.4867  0.6376  0.1540
 4746TIP3   OH235652   3.834   3.832  11.662 -0.1795  0.1511  0.6261
 4746TIP3    H135653   3.747   3.814  11.698  0.4678 -1.4107  1.5254
 4746TIP3    H235654   3.860   3.914  11.704 -1.4743  1.0010 -0.1780
 4747TIP3   OH235655   5.618   1.985   5.952  0.5772 -0.5733  0.2160
 4747TIP3    H135656   5.548   2.045   5.980  0.8750  0.3868 -0.9928
 4747TIP3    H235657   5.642   1.937   6.031 -1.4627 -0.9582  0.6572
 4748TIP3   OH235658   1.177   5.140  13.617 -0.5989  0.3881  0.4386
 4748TIP3    H135659   1.197   5.055  13.657 -0.4421 -0.2488 -0.9341
 4748TIP3    H235660   1.083   5.136  13.599 -0.9357  1.1831  1.8517
 4749TIP3   OH235661   1.908   3.315   3.216 -0.1745 -0.3157  0.0007
 4749TIP3    H135662   1.944   3.354   3.295  1.6870 -1.6734 -0.0920
 4749TIP3    H235663   1.890   3.389   3.158 -1.7705  0.7184  1.7152
 4750TIP3   OH235664   0.317   5.046   6.237  0.0558 -0.3153  0.3662
 4750TIP3    H135665   0.382   5.117   6.236 -1.6365  1.2891 -0.8181
 4750TIP3    H235666   0.356   4.978   6.183  0.6755  0.7410 -0.5725
 4751TIP3   OH235667   6.049   6.042   3.446 -0.2174 -0.1911 -0.0368
 4751TIP3    H135668   6.142   6.020   3.440  0.1382  1.3909 -0.8292
 4751TIP3    H235669   6.044   6.133   3.418 -2.2486 -0.7713 -1.8306
 4752TIP3   OH235670   2.657   5.991   6.046  0.2322  0.3181  1.1130
 4752TIP3    H135671   2.565   5.963   6.050  0.2500 -0.0310 -0.3063
 4752TIP3    H235672   2.692   5.972   6.133 -0.6023 -1.1072  1.1655
 4753TIP3   OH235673   1.558   5.471  16.580 -0.1972 -0.0552 -0.2511
 4753TIP3    H135674   1.633   5.510  16.625 -0.9123 -0.4786  1.4212
 4753TIP3    H235675   1.496   5.544  16.569  0.2661  0.2003 -1.2291
 4754TIP3   OH235676   2.588   0.924   6.113  0.6507  0.1259  0.0992
 4754TIP3    H135677   2.572   0.830   6.099  0.4098  0.0854  0.6160
 4754TIP3    H235678   2.542   0.944   6.194  0.0446  0.8685 -0.4154
 4755TIP3   OH235679   0.587   0.128  11.793  0.0180  0.4094 -0.4796
 4755TIP3    H135680   0.635   0.143  11.712 -0.8099 -0.4035 -1.1447
 4755TIP3    H235681   0.529   0.055  11.773 -0.0425  0.0541  0.9243
 4756TIP3   OH235682   0.271   5.239   4.553  0.3933 -0.1503 -0.1973
 4756TIP3    H135683   0.231   5.153   4.543  0.0450  0.1710 -1.8375
 4756TIP3    H235684   0.365   5.223   4.548  0.5302 -0.7923  2.7393
 4757TIP3   OH235685   1.478   1.589   4.608 -0.4829  0.2227  0.2236
 4757TIP3    H135686   1.464   1.540   4.527 -0.5826  0.2131  0.2464
 4757TIP3    H235687   1.573   1.587   4.622 -0.4084  0.6998 -0.1893
 4758TIP3   OH235688   5.024   5.831   0.579  0.2734  0.1013  0.9067
 4758TIP3    H135689   5.005   5.864   0.666  1.5532  0.5362  1.0406
 4758TIP3    H235690   5.042   5.738   0.592  0.8900  0.2538  1.1815
 4759TIP3   OH235691   1.686   4.114  16.411  0.1222 -0.0664  0.0167
 4759TIP3    H135692   1.643   4.032  16.435 -0.3943 -0.0886 -0.9470
 4759TIP3    H235693   1.666   4.173  16.484 -0.9325 -0.2915 -0.0791
 4760TIP3   OH235694   4.423   4.448   0.415  0.3247 -0.5997  0.1892
 4760TIP3    H135695   4.409   4.445   0.321  1.9874 -2.7638 -0.0803
 4760TIP3    H235696   4.345   4.409   0.453  0.0294 -0.5569 -0.3714
 4761TIP3   OH235697   2.169   0.032  15.219  0.4688  0.2924 -0.3341
 4761TIP3    H135698   2.235   0.100  15.210  2.2550 -1.6342 -3.3814
 4761TIP3    H235699   2.206  -0.030  15.281  0.7925  0.0255 -0.7905
 4762TIP3   OH235700   6.079   5.491  15.501 -0.1047 -0.3443  0.1999
 4762TIP3    H135701   6.074   5.472  15.407  0.1836  1.8220 -0.3090
 4762TIP3    H235702   6.148   5.434  15.534 -0.8769 -1.8598 -0.6733
 4763TIP3   OH235703   6.483   1.864   0.028  0.0741  0.7364  0.2704
 4763TIP3    H135704   6.411   1.904  -0.021  0.3020  0.8248  0.0105
 4763TIP3    H235705   6.473   1.899   0.117  0.4700  1.6300 -0.0299
 4764TIP3   OH235706   6.293   1.727  13.743 -0.0331 -0.0375 -0.1421
 4764TIP3    H135707   6.382   1.694  13.747 -0.0961 -0.1802  0.1318
 4764TIP3    H235708   6.302   1.820  13.725  0.1738 -0.0363 -0.0302
 4765TIP3   OH235709   2.708   5.689  17.118 -0.2015  0.3885 -0.8770
 4765TIP3    H135710   2.630   5.744  17.130 -0.3882 -0.3094  1.6163
 4765TIP3    H235711   2.690   5.611  17.170  0.8866 -1.2149 -2.7687
 4766TIP3   OH235712   5.199   3.083   3.954 -0.3129  0.6049 -0.1359
 4766TIP3    H135713   5.199   3.137   3.875  1.1372  2.5691  1.1404
 4766TIP3    H235714   5.108   3.085   3.983 -1.4360 -2.0541 -2.8726
 4767TIP3   OH235715   6.092   2.208   4.641 -0.2026 -0.0470  0.0597
 4767TIP3    H135716   6.169   2.257   4.613 -0.9957  1.0500 -0.2756
 4767TIP3    H235717   6.126   2.140   4.699  1.1164 -0.2528 -0.9179
 4768TIP3   OH235718   3.088   6.376   3.626 -0.3857 -0.3353  0.1039
 4768TIP3    H135719   3.101   6.286   3.656  2.0612 -0.6992 -1.8085
 4768TIP3    H235720   3.036   6.368   3.546 -1.5391  0.1309  0.7760
 4769TIP3   OH235721   3.885   3.882   4.325  0.6552  0.0249 -0.1219
 4769TIP3    H135722   3.848   3.877   4.237 -2.8713  2.2850  0.9863
 4769TIP3    H235723   3.839   3.956   4.366  2.5056 -0.5659  3.4473
 4770TIP3   OH235724   3.532   1.503  14.358  0.1022 -0.3666 -0.5468
 4770TIP3    H135725   3.566   1.439  14.421 -0.8579 -0.8914 -0.5426
 4770TIP3    H235726   3.528   1.585  14.407  0.9422 -0.3879 -0.4246
 4771TIP3   OH235727   1.581   5.890   6.577  0.0226  0.0231 -0.7671
 4771TIP3    H135728   1.508   5.943   6.612 -2.0305 -2.0822 -1.6170
 4771TIP3    H235729   1.633   5.868   6.655 -0.1489  1.6104 -0.1430
 4772TIP3   OH235730   6.494   2.202  13.011  0.9790 -0.2975  0.0605
 4772TIP3    H135731   6.531   2.116  12.993  1.4860 -0.1810  0.5117
 4772TIP3    H235732   6.502   2.212  13.106 -0.0200 -0.1787  0.1431
 4773TIP3   OH235733   4.211   3.835  15.963 -0.3832  0.3692  0.2253
 4773TIP3    H135734   4.117   3.830  15.977 -0.2915  0.4543  0.8957
 4773TIP3    H235735   4.246   3.758  16.007 -0.3033 -0.7143 -1.6302
 4774TIP3   OH235736   3.156   4.122   4.019 -0.0729  0.1514 -0.1654
 4774TIP3    H135737   3.065   4.148   4.035 -0.1624  1.0612 -1.9109
 4774TIP3    H235738   3.159   4.030   4.045 -1.0939  0.4774  1.2697
 4775TIP3   OH235739   2.715   2.536  15.896 -0.0192 -0.2125  0.0266
 4775TIP3    H135740   2.721   2.441  15.902  1.1693 -0.2688 -1.5505
 4775TIP3    H235741   2.804   2.567  15.915  0.0148  0.4536 -1.1277
 4776TIP3   OH235742   4.880   0.045  13.139  0.3594 -0.0901  1.0039
 4776TIP3    H135743   4.882  -0.050  13.139 -0.3568 -0.2397 -2.3585
 4776TIP3    H235744   4.957   0.071  13.086 -1.1992  0.9446 -0.9047
 4777TIP3   OH235745   4.934   5.986  15.362 -0.1640  0.7157  0.3661
 4777TIP3    H135746   4.882   6.062  15.337 -0.3758  0.3028 -0.5075
 4777TIP3    H235747   4.963   5.949  15.278  1.7708  1.0804  0.8122
 4778TIP3   OH235748   5.568   6.264  16.020  0.3179  0.3961 -0.0365
 4778TIP3    H135749   5.586   6.322  16.094  2.9411  0.6799 -0.7982
 4778TIP3    H235750   5.637   6.284  15.956 -0.9116 -0.9527 -1.9041
 4779TIP3   OH235751   4.479   5.607  15.450  0.3484 -0.8801 -0.1655
 4779TIP3    H135752   4.445   5.597  15.539 -1.7547  0.2499 -0.7552
 4779TIP3    H235753   4.567   5.642  15.462 -0.7277  1.6153  1.5622
 4780TIP3   OH235754   0.240   5.852  14.001  0.3329 -0.4541 -0.6351
 4780TIP3    H135755   0.209   5.762  13.994 -1.3542 -0.0092  0.4177
 4780TIP3    H235756   0.312   5.857  13.939  2.4447 -3.2893  1.3503
 4781TIP3   OH235757   1.915   4.286   5.570  0.2698  0.4529 -0.0239
 4781TIP3    H135758   1.983   4.226   5.601  1.6345  2.2004  0.5145
 4781TIP3    H235759   1.957   4.337   5.501 -0.7690  1.0155 -0.2677
 4782TIP3   OH235760   0.374   3.240   5.630  0.3141 -0.1067  0.2594
 4782TIP3    H135761   0.356   3.301   5.702  2.9015 -0.6699  1.5162
 4782TIP3    H235762   0.335   3.158   5.658 -2.8733  0.7248 -1.2786
 4783TIP3   OH235763   6.287   5.906   0.693 -0.8298  0.2703 -0.1354
 4783TIP3    H135764   6.340   5.985   0.704 -0.1382 -0.0482 -0.9947
 4783TIP3    H235765   6.239   5.921   0.611 -0.8034 -0.1312 -0.2266
 4784TIP3   OH235766   2.387   0.905  15.233 -0.5023  0.1115 -0.4445
 4784TIP3    H135767   2.482   0.913  15.221 -0.5132  1.6426  0.2800
 4784TIP3    H235768   2.377   0.840  15.302 -0.0298 -0.6572 -1.0783
 4785TIP3   OH235769   0.522   2.212  12.518  0.0118 -0.1230 -0.1510
 4785TIP3    H135770   0.461   2.273  12.476 -1.9484 -3.0686 -1.9642
 4785TIP3    H235771   0.558   2.161  12.447  2.0133 -0.7881  1.2495
 4786TIP3   OH235772   2.454   5.420   4.907  0.0382 -0.1784  0.2374
 4786TIP3    H135773   2.471   5.448   4.817 -1.5204  0.4721  0.1193
 4786TIP3    H235774   2.541   5.419   4.948  0.5236  1.9153 -0.5966
 4787TIP3   OH235775   4.462   1.807   6.045  0.0969  0.4238  0.0605
 4787TIP3    H135776   4.431   1.868   6.111 -1.3844 -0.0621 -0.1524
 4787TIP3    H235777   4.557   1.804   6.058 -0.2390 -0.6360  3.0298
 4788TIP3   OH235778   0.261   3.697  15.226 -0.4924  0.2563 -0.2953
 4788TIP3    H135779   0.216   3.668  15.305 -1.1164  2.3612  0.1819
 4788TIP3    H235780   0.207   3.769  15.193  2.1458  2.4769 -0.0923
 4789TIP3   OH235781   6.661   2.474   0.995 -0.8145  0.7747  0.6121
 4789TIP3    H135782   6.679   2.518   0.912  2.7448  0.8354  1.2899
 4789TIP3    H235783   6.704   2.389   0.988 -2.3730 -0.1475  1.6070
 4790TIP3   OH235784   0.802   4.991  16.945  0.0052  0.4786 -0.0726
 4790TIP3    H135785   0.713   5.011  16.976 -0.4547  1.0814 -1.6891
 4790TIP3    H235786   0.801   4.896  16.931 -0.5310  0.5431 -0.5011
 4791TIP3   OH235787   0.258   0.050   6.207  0.0690 -0.7743  0.0319
 4791TIP3    H135788   0.281   0.037   6.115  1.5655 -2.5801  0.6057
 4791TIP3    H235789   0.163   0.040   6.209  0.2072 -3.1001 -1.0402
 4792TIP3   OH235790   4.160   2.406  16.096  0.3939 -0.2547 -0.1913
 4792TIP3    H135791   4.133   2.320  16.061 -0.3126  0.1894 -0.7733
 4792TIP3    H235792   4.122   2.469  16.035 -0.3595  0.5337  1.0563
 4793TIP3   OH235793   3.662   1.595   5.738 -0.2546 -0.1073 -0.2376
 4793TIP3    H135794   3.612   1.548   5.671  0.5677 -0.2523 -0.7666
 4793TIP3    H235795   3.655   1.539   5.816 -1.6716  0.3273 -0.0121
 4794TIP3   OH235796   2.278   4.594  12.014  0.5147 -0.3972 -0.5590
 4794TIP3    H135797   2.244   4.567  12.099 -0.0446 -1.0268 -0.9717
 4794TIP3    H235798   2.205   4.580  11.954  1.2066 -0.8588 -1.3094
 4795TIP3   OH235799   6.047   3.849   2.179 -0.2255 -0.0739 -0.0360
 4795TIP3    H135800   6.049   3.754   2.193  0.4629 -0.2378 -1.1204
 4795TIP3    H235801   6.138   3.876   2.185 -0.4458  0.5691  0.5013
 4796TIP3   OH235802   5.871   4.519   5.991  0.1658 -0.2912 -0.1909
 4796TIP3    H135803   5.854   4.614   5.996 -0.7650 -0.4802  0.8670
 4796TIP3    H235804   5.848   4.495   5.901  0.8265  0.5613 -0.5945
 4797TIP3   OH235805   3.320   2.685   2.622  0.2589  0.0772  0.2983
 4797TIP3    H135806   3.362   2.751   2.676  0.4433  0.7810 -0.6791
 4797TIP3    H235807   3.375   2.607   2.632  1.4382  0.7824 -0.4273
 4798TIP3   OH235808   3.095   4.735  14.104  0.1860 -0.3598 -0.1094
 4798TIP3    H135809   3.082   4.817  14.056 -1.2085 -0.9524 -0.8030
 4798TIP3    H235810   3.062   4.668  14.045 -0.2425 -1.2589  1.1259
 4799TIP3   OH235811   1.838   1.320   2.652  0.4377  0.6786  0.3997
 4799TIP3    H135812   1.811   1.266   2.578  0.0300 -0.0883  1.0908
 4799TIP3    H235813   1.881   1.258   2.712 -2.2193  0.5838  2.3461
 4800TIP3   OH235814   6.688   6.321   2.147  0.2145 -0.3676  0.1558
 4800TIP3    H135815   6.781   6.307   2.169 -0.0071  0.8147  2.0901
 4800TIP3    H235816   6.685   6.408   2.107 -0.3180  0.7284  2.4312
 4801TIP3   OH235817   6.704   0.494   3.359 -0.2283 -0.0344 -0.0192
 4801TIP3    H135818   6.676   0.516   3.270 -0.5579 -0.6045 -0.0590
 4801TIP3    H235819   6.799   0.506   3.358  0.1093 -2.3798 -1.1522
 4802TIP3   OH235820   6.382   0.311   0.403  0.3915 -0.0467  0.1807
 4802TIP3    H135821   6.434   0.295   0.324 -1.7907 -0.7606 -1.2399
 4802TIP3    H235822   6.381   0.226   0.448 -0.6643 -0.4546 -0.5644
 4803TIP3   OH235823   5.831   0.197  15.518 -0.4798 -0.0443  0.4319
 4803TIP3    H135824   5.891   0.271  15.508 -0.0724 -0.5799 -1.4477
 4803TIP3    H235825   5.870   0.127  15.467 -1.9974 -0.8682  0.3333
 4804TIP3   OH235826   1.691   0.120  16.938  0.3577  0.2762 -0.1293
 4804TIP3    H135827   1.731   0.140  17.023  1.2045 -2.7816  0.2994
 4804TIP3    H235828   1.741   0.171  16.875  1.6663  0.3332  0.9271
 4805TIP3   OH235829   4.986   4.107  15.661 -0.5849 -0.4054  0.6324
 4805TIP3    H135830   5.081   4.114  15.645 -0.6425 -0.9301  0.0144
 4805TIP3    H235831   4.947   4.110  15.573 -1.1069 -0.7300  0.8521
 4806TIP3   OH235832   3.264   4.233   1.282 -0.2207  0.0431 -0.3178
 4806TIP3    H135833   3.251   4.300   1.350  0.3808 -0.8796  0.7212
 4806TIP3    H235834   3.219   4.156   1.315  1.4054 -0.8921 -0.2363
 4807TIP3   OH235835   2.732   5.946  16.667  0.6707 -0.2471 -0.8061
 4807TIP3    H135836   2.670   5.948  16.740  3.2483  0.2887  1.5365
 4807TIP3    H235837   2.763   5.855  16.665 -0.8457 -0.8036 -2.6946
 4808TIP3   OH235838   5.907   3.035  14.728  0.3439  0.5375 -0.2442
 4808TIP3    H135839   5.839   3.102  14.718  0.2758  0.3601 -0.9921
 4808TIP3    H235840   5.989   3.084  14.730  0.2846  0.6590 -0.6512
 4809TIP3   OH235841   3.850   4.328   4.147  0.4859 -0.3864 -0.5783
 4809TIP3    H135842   3.834   4.414   4.108  2.7164  1.1151  1.5836
 4809TIP3    H235843   3.851   4.268   4.072  2.0634  1.9533 -2.5716
 4810TIP3   OH235844   2.578   1.895   4.456  0.1898 -0.0429  0.0017
 4810TIP3    H135845   2.542   1.832   4.393  1.8793 -0.3102 -0.7439
 4810TIP3    H235846   2.673   1.892   4.442  0.6803 -0.4019  2.8409
 4811TIP3   OH235847   5.755   1.221  15.977  0.3138 -0.2049  0.1189
 4811TIP3    H135848   5.703   1.286  15.930  1.0853 -0.7534 -1.6054
 4811TIP3    H235849   5.843   1.259  15.981  0.5062 -0.6434  0.1282
 4812TIP3   OH235850   1.037   4.470  16.532 -0.1959 -0.4053 -0.8266
 4812TIP3    H135851   0.989   4.455  16.613  0.9849 -1.5376 -0.3205
 4812TIP3    H235852   0.968   4.493  16.468 -1.1635  0.2091  0.3919
 4813TIP3   OH235853   4.337   0.969  15.933 -0.0609 -0.5969 -0.1876
 4813TIP3    H135854   4.269   0.913  15.894  0.7290 -1.0351 -0.9574
 4813TIP3    H235855   4.344   0.938  16.024  0.1854 -1.5986 -0.5300
 4814TIP3   OH235856   0.506   4.128  11.279  0.3663 -0.3370  0.7507
 4814TIP3    H135857   0.445   4.056  11.298 -2.3899  1.5298 -0.3457
 4814TIP3    H235858   0.551   4.101  11.199 -3.0153  0.3472 -1.5896
 4815TIP3   OH235859   1.726   1.420  12.437 -0.1222 -0.0300  0.3530
 4815TIP3    H135860   1.718   1.326  12.423  0.1217  0.1807 -1.3982
 4815TIP3    H235861   1.703   1.433  12.529  0.0894 -1.8198  0.6844
 4816TIP3   OH235862   3.465   1.455   5.556 -0.2805 -0.0740 -0.0996
 4816TIP3    H135863   3.378   1.437   5.591 -0.8798  0.6359 -1.1639
 4816TIP3    H235864   3.450   1.516   5.483  1.2429  1.3034  0.6587
 4817TIP3   OH235865   6.048   2.855   0.177 -0.4866  0.1658 -0.0129
 4817TIP3    H135866   6.002   2.774   0.198 -1.0656  0.0391 -1.6223
 4817TIP3    H235867   5.981   2.913   0.142  0.6303 -0.5308 -3.8174
 4818TIP3   OH235868   4.244   0.322   1.636  0.0733  0.3208 -0.2636
 4818TIP3    H135869   4.270   0.309   1.544  1.0745 -0.9495  0.1600
 4818TIP3    H235870   4.302   0.392   1.667  0.9062 -0.3913 -0.1676
 4819TIP3   OH235871   2.114   1.105   5.624 -0.6979  0.6739  0.3139
 4819TIP3    H135872   2.157   1.104   5.539 -1.4802 -0.2300 -0.0989
 4819TIP3    H235873   2.027   1.069   5.607 -0.1129 -1.7034  1.8543
 4820TIP3   OH235874   3.453   2.618  12.034 -0.6374  0.1582 -0.3723
 4820TIP3    H135875   3.374   2.581  12.074 -0.6395  2.7874  2.3967
 4820TIP3    H235876   3.525   2.566  12.071 -0.7686  1.4494  1.8850
 4821TIP3   OH235877   4.591   2.910   4.865 -0.2181 -0.2682  0.0682
 4821TIP3    H135878   4.657   2.942   4.803  0.3988 -0.6672  0.5104
 4821TIP3    H235879   4.633   2.915   4.951 -1.9554  2.8938  0.9185
 4822TIP3   OH235880   6.231   2.513   5.238  0.0211 -0.2085 -0.5192
 4822TIP3    H135881   6.190   2.582   5.291  2.3692 -0.3988  1.7257
 4822TIP3    H235882   6.203   2.431   5.279  1.9801 -0.3524  0.6722
 4823TIP3   OH235883   0.898   5.728   2.207  0.3151 -0.2343 -0.6793
 4823TIP3    H135884   0.963   5.659   2.214  0.1695 -0.4415 -1.3077
 4823TIP3    H235885   0.946   5.804   2.174  0.2990 -0.2974 -0.8475
 4824TIP3   OH235886   6.666   3.249   2.377  0.1389 -0.1567  0.2828
 4824TIP3    H135887   6.595   3.203   2.331  0.4621 -0.0330 -0.3501
 4824TIP3    H235888   6.625   3.330   2.408 -0.3852 -0.7677  1.2403
 4825TIP3   OH235889   5.491   0.542  16.422  0.2142 -0.0727 -0.0988
 4825TIP3    H135890   5.484   0.478  16.351 -0.3353 -0.1331  0.0067
 4825TIP3    H235891   5.502   0.626  16.377  1.1138 -0.2470 -0.2351
 4826TIP3   OH235892   4.701   5.658  11.208  0.6687  0.4007 -0.3846
 4826TIP3    H135893   4.748   5.675  11.126  0.4032 -0.2748 -0.6803
 4826TIP3    H235894   4.751   5.706  11.274  0.5262  1.4754 -1.0274
 4827TIP3   OH235895   2.994   6.570  14.338  0.0145 -0.2401 -0.7880
 4827TIP3    H135896   3.034   6.603  14.419  0.6319 -0.3718 -1.0352
 4827TIP3    H235897   3.065   6.571  14.274 -0.7634  1.0276 -1.6795
 4828TIP3   OH235898   0.432   6.368  12.495 -0.8142  0.2167 -0.2076
 4828TIP3    H135899   0.372   6.348  12.566 -1.0510  1.0740 -0.1536
 4828TIP3    H235900   0.443   6.463  12.499  1.5124 -0.0293  0.5612
 4829TIP3   OH235901   4.657   5.531  12.157 -0.1172 -0.3274  0.3595
 4829TIP3    H135902   4.684   5.507  12.246 -1.2163 -1.8013  0.3347
 4829TIP3    H235903   4.587   5.596  12.171 -0.3791 -0.6528  0.5820
 4830TIP3   OH235904   0.361   0.370   4.127  0.1044  0.5743 -0.5191
 4830TIP3    H135905   0.453   0.383   4.106  1.2003 -2.8397  1.4432
 4830TIP3    H235906   0.334   0.295   4.073 -1.1016  0.6174 -0.0194
 4831TIP3   OH235907   0.999   2.426   4.360  0.1562  0.3561 -0.5982
 4831TIP3    H135908   1.026   2.336   4.373  2.5656  1.3692  2.6499
 4831TIP3    H235909   0.905   2.421   4.342  0.2430 -2.7511 -0.5981
 4832TIP3   OH235910   5.519   5.471  14.514 -0.0604  0.2015 -0.4833
 4832TIP3    H135911   5.581   5.536  14.546  0.2303 -0.0105 -0.6130
 4832TIP3    H235912   5.541   5.391  14.562 -0.3888  0.1837 -0.3534
 4833TIP3   OH235913   6.333   4.120  15.554 -0.2922 -0.0037 -0.1708
 4833TIP3    H135914   6.239   4.102  15.558 -0.4611  0.9355  0.8504
 4833TIP3    H235915   6.370   4.065  15.623  0.2378 -2.0063 -1.9776
 4834TIP3   OH235916   3.428   0.656  15.561 -0.1616  0.2663  0.2913
 4834TIP3    H135917   3.394   0.684  15.646 -2.4298  1.0618 -0.8111
 4834TIP3    H235918   3.367   0.692  15.497  1.3025 -0.5768 -1.6914
 4835TIP3   OH235919   3.892   0.960  16.990 -0.2544 -0.2476 -0.7473
 4835TIP3    H135920   3.804   0.939  17.021 -0.2372  0.5173 -0.1573
 4835TIP3    H235921   3.888   1.053  16.968  0.9516  0.3080  1.2335
 4836TIP3   OH235922   2.752   0.989   1.230  0.7013  0.4076 -0.2416
 4836TIP3    H135923   2.843   0.994   1.201  0.7672 -0.8358 -0.3260
 4836TIP3    H235924   2.732   1.076   1.263  1.7209  0.8798 -0.8104
 4837TIP3   OH235925   0.086   0.089   1.261 -0.0036 -0.2735 -0.4793
 4837TIP3    H135926   0.177   0.060   1.252  0.3753 -0.0951  1.9836
 4837TIP3    H235927   0.089   0.183   1.244  0.2061 -0.3282 -0.7530
 4838TIP3   OH235928   4.154   3.877   4.238 -0.1727 -0.2342 -0.0021
 4838TIP3    H135929   4.149   3.795   4.188 -1.4008 -0.6277  0.7325
 4838TIP3    H235930   4.063   3.899   4.258  0.2095  0.6981  0.8038
 4839TIP3   OH235931   6.499   4.723   2.545 -0.5348 -0.1947  0.2461
 4839TIP3    H135932   6.593   4.730   2.532 -0.3176 -0.5970  1.4678
 4839TIP3    H235933   6.488   4.724   2.640 -1.7221 -0.6806  0.1319
 4840TIP3   OH235934   0.381   5.807   5.147  0.1129 -0.0644  0.3087
 4840TIP3    H135935   0.448   5.739   5.157 -1.8457 -1.9610  1.0701
 4840TIP3    H235936   0.352   5.799   5.056 -0.8070 -0.9575  0.6655
 4841TIP3   OH235937   3.796   5.341  12.394  0.2173 -0.7930 -0.6190
 4841TIP3    H135938   3.752   5.309  12.472  0.6394 -0.1377 -0.0987
 4841TIP3    H235939   3.732   5.398  12.351  0.4216 -0.1226 -0.0526
 4842TIP3   OH235940   5.181   6.506  12.805 -0.3351 -0.4091 -0.6226
 4842TIP3    H135941   5.221   6.508  12.892 -0.0584 -0.6334 -0.7434
 4842TIP3    H235942   5.087   6.513  12.821 -0.3265 -1.0472 -0.2711
 4843TIP3   OH235943   3.925   0.853  14.340  0.9161  0.0163 -0.3820
 4843TIP3    H135944   3.968   0.830  14.258  1.8884 -0.2906  0.2061
 4843TIP3    H235945   3.994   0.848  14.406  0.1761  0.3923  0.4379
 4844TIP3   OH235946   5.448   3.141  11.621 -1.0511 -0.5286 -0.1660
 4844TIP3    H135947   5.410   3.123  11.535  0.0596  0.4041 -0.8857
 4844TIP3    H235948   5.542   3.124  11.610 -0.7234  0.6818  0.5177
 4845TIP3   OH235949   3.022   1.778   1.631  0.6604 -0.3266  0.4221
 4845TIP3    H135950   3.039   1.716   1.702  2.1231 -1.0311 -0.4808
 4845TIP3    H235951   2.954   1.737   1.579  0.7071 -0.5619  0.5452
 4846TIP3   OH235952   0.536   1.854  14.169  0.1519 -0.2843  0.0191
 4846TIP3    H135953   0.579   1.770  14.154  0.0783 -0.2307 -0.5133
 4846TIP3    H235954   0.474   1.838  14.240  0.1584 -0.6743 -0.0637
 4847TIP3   OH235955   1.838   4.788  14.727 -0.1099  0.0013  0.4124
 4847TIP3    H135956   1.784   4.793  14.647  0.2838  1.0043  0.1941
 4847TIP3    H235957   1.870   4.698  14.728  1.4534  0.4404 -1.6294
 4848TIP3   OH235958   2.493   5.233   5.811 -0.3600 -0.0738  0.0486
 4848TIP3    H135959   2.433   5.190   5.872 -0.2859  0.2664  0.3644
 4848TIP3    H235960   2.524   5.163   5.754  1.0009 -0.7634  1.5665
 4849TIP3   OH235961   4.961   3.161  15.969 -0.2750  0.2788 -0.5423
 4849TIP3    H135962   4.942   3.243  15.924  0.9265 -0.2678 -2.1367
 4849TIP3    H235963   5.041   3.178  16.019  0.5155 -0.1659 -1.6313
 4850TIP3   OH235964   0.738   4.821   4.646 -0.2277 -0.0035  0.1981
 4850TIP3    H135965   0.795   4.894   4.619 -1.7168  1.7776  1.5829
 4850TIP3    H235966   0.698   4.851   4.728  1.1286 -3.5490  2.3562
 4851TIP3   OH235967   6.563   5.233   5.318 -0.4122  0.0277 -0.4984
 4851TIP3    H135968   6.530   5.257   5.232  0.8190  0.5970 -0.8397
 4851TIP3    H235969   6.517   5.291   5.379 -1.8585 -0.8968 -0.6572
 4852TIP3   OH235970   2.992   3.946  14.646 -0.3037  0.0629 -0.1868
 4852TIP3    H135971   3.055   3.992  14.591 -1.6528  0.0880 -1.8021
 4852TIP3    H235972   3.018   3.854  14.640  0.1723  0.1871 -0.0326
 4853TIP3   OH235973   0.534   5.180  12.656  0.7103 -0.3934  0.2457
 4853TIP3    H135974   0.590   5.173  12.733 -2.4667 -0.9736  2.6887
 4853TIP3    H235975   0.519   5.090  12.629  0.0699 -0.3135  0.3237
 4854TIP3   OH235976   4.555   1.297  14.677  0.0170 -0.0199 -0.1932
 4854TIP3    H135977   4.640   1.330  14.648  0.1937 -0.8346 -0.6365
 4854TIP3    H235978   4.497   1.311  14.602  0.0869 -0.6692 -0.3745
 4855TIP3   OH235979   3.314   3.522  14.042 -0.3986 -0.5332 -0.2686
 4855TIP3    H135980   3.247   3.470  14.087 -0.7253  0.0899 -0.0265
 4855TIP3    H235981   3.314   3.606  14.088  0.6542 -0.5725 -0.1752
 4856TIP3   OH235982   2.866   2.964  10.787  0.1992 -0.1062  0.7225
 4856TIP3    H135983   2.904   2.935  10.704  1.0494 -0.6588  1.2871
 4856TIP3    H235984   2.775   2.985  10.766  0.1641 -1.0812 -0.1632
 4857TIP3   OH235985   2.039   3.569   4.383  0.2755 -0.0732  0.4558
 4857TIP3    H135986   2.068   3.653   4.347  0.0427 -0.5616 -0.9694
 4857TIP3    H235987   1.945   3.581   4.398  0.4100  0.1945  1.1026
 4858TIP3   OH235988   3.227   1.592  14.483  0.0199 -0.3220  0.2663
 4858TIP3    H135989   3.241   1.613  14.391 -2.6206 -0.9166 -0.3474
 4858TIP3    H235990   3.264   1.505  14.494  1.4682  0.2550  0.1151
 4859TIP3   OH235991   2.262   5.334   2.205 -0.6149 -0.4098 -0.5938
 4859TIP3    H135992   2.319   5.342   2.129 -0.1333  0.3004 -0.1759
 4859TIP3    H235993   2.269   5.419   2.249  1.1342 -1.5982  1.6278
 4860TIP3   OH235994   5.496   4.769   2.465  0.2807 -0.5208 -0.4099
 4860TIP3    H135995   5.453   4.800   2.545  0.8329 -2.5859  0.7750
 4860TIP3    H235996   5.425   4.739   2.409 -0.0071 -1.8133  0.5939
 4861TIP3   OH235997   4.780   0.786   1.673  0.3760  0.2214  0.4738
 4861TIP3    H135998   4.701   0.748   1.634 -0.5215 -1.0288  3.2403
 4861TIP3    H235999   4.845   0.716   1.670  0.7299  0.5667  0.0196
 4862TIP3   OH236000   1.508   6.210  13.431  0.2749  0.2619 -0.0822
 4862TIP3    H136001   1.532   6.301  13.415  1.4345  0.8188  3.7896
 4862TIP3    H236002   1.413   6.212  13.441  0.1053  0.6954 -1.5440
 4863TIP3   OH236003   5.668   3.860   1.310 -0.2636  0.5478  0.3185
 4863TIP3    H136004   5.618   3.858   1.229  0.0352  0.7508  0.1269
 4863TIP3    H236005   5.760   3.863   1.282 -0.1075 -0.4657  0.6570
 4864TIP3   OH236006   0.834   0.550  15.120  0.2257 -0.2328  0.3165
 4864TIP3    H136007   0.876   0.523  15.039  1.8907  0.7204  0.8167
 4864TIP3    H236008   0.859   0.642  15.131  0.6911 -0.5505  2.3024
 4865TIP3   OH236009   5.365   4.883  13.912  0.1716 -0.0245 -0.4001
 4865TIP3    H136010   5.439   4.936  13.883  0.2891  0.1450  0.1918
 4865TIP3    H236011   5.292   4.944  13.915  0.3661  0.1734  0.5367
 4866TIP3   OH236012   4.386   1.957  14.824  0.3702  0.8069 -0.1204
 4866TIP3    H136013   4.308   2.003  14.854 -0.3140 -0.5580  0.2980
 4866TIP3    H236014   4.451   1.970  14.893 -0.5342 -0.6202  1.0571
 4867TIP3   OH236015   4.367   4.331  11.039  0.6742 -0.2139 -0.3643
 4867TIP3    H136016   4.361   4.237  11.051 -2.6628 -0.0776 -0.0696
 4867TIP3    H236017   4.319   4.348  10.958  0.2522  1.3025  0.1695
 4868TIP3   OH236018   3.650   2.584   3.322 -0.2503 -0.6602  0.3099
 4868TIP3    H136019   3.634   2.504   3.272  1.5918  1.5026 -4.2601
 4868TIP3    H236020   3.739   2.575   3.355 -0.8102 -1.2885  1.7553
 4869TIP3   OH236021   6.240   0.780  12.112  0.3917  0.3781 -0.3057
 4869TIP3    H136022   6.247   0.804  12.020  1.3778  0.3645 -0.2378
 4869TIP3    H236023   6.329   0.762  12.140 -0.1391 -2.4854 -0.0940
 4870TIP3   OH236024   5.630   6.167  15.000 -0.2691 -0.7492 -0.4518
 4870TIP3    H136025   5.641   6.072  15.001 -2.5383 -1.0681  1.3934
 4870TIP3    H236026   5.565   6.183  14.932 -0.6963 -0.6316 -0.0153
 4871TIP3   OH236027   2.431   0.712  16.642  0.5177 -0.0097 -0.3629
 4871TIP3    H136028   2.526   0.709  16.644  0.4886 -0.9450 -0.0699
 4871TIP3    H236029   2.407   0.675  16.557  0.4030 -0.3518 -0.1847
 4872TIP3   OH236030   5.933   6.037   1.824  0.1983 -1.0802  0.0951
 4872TIP3    H136031   6.008   6.071   1.775  1.0076 -1.5211  0.9995
 4872TIP3    H236032   5.923   6.098   1.898 -1.8698  0.3854 -1.2672
 4873TIP3   OH236033   4.358   5.963  14.594  0.5321  0.0074  0.2478
 4873TIP3    H136034   4.406   6.015  14.529  0.3727 -0.3022 -0.1242
 4873TIP3    H236035   4.399   5.876  14.590 -0.3951 -0.4152 -0.4633
 4874TIP3   OH236036   6.605   4.592  11.827  0.0261 -0.4191  0.4160
 4874TIP3    H136037   6.551   4.513  11.822 -1.7501  0.7401  0.5799
 4874TIP3    H236038   6.583   4.641  11.748  1.3949 -0.2350  0.1273
 4875TIP3   OH236039   2.164   0.859  16.504 -0.1818  0.0611 -0.3818
 4875TIP3    H136040   2.180   0.883  16.595  1.2548  1.1603 -0.8853
 4875TIP3    H236041   2.171   0.941  16.455 -1.2373 -0.4530 -1.4636
 4876TIP3   OH236042   6.116   0.262   4.243  0.1599  0.4032  0.0677
 4876TIP3    H136043   6.070   0.209   4.179  1.0250  0.1934 -0.4040
 4876TIP3    H236044   6.209   0.251   4.221  0.3744  2.4230 -0.3049
 4877TIP3   OH236045   3.771   6.060  14.379  0.0457 -0.0502 -0.1101
 4877TIP3    H136046   3.816   5.986  14.338 -0.6173 -0.6737  0.2534
 4877TIP3    H236047   3.795   6.054  14.472 -1.4913 -0.9640  0.2675
 4878TIP3   OH236048   3.761   3.100  11.450  0.0417  0.0625  0.4899
 4878TIP3    H136049   3.828   3.147  11.401  0.6307 -0.9736  0.2696
 4878TIP3    H236050   3.689   3.089  11.388 -0.4004  1.2903  0.7650
 4879TIP3   OH236051   5.561   1.677  13.564 -0.3108  0.3662 -0.3275
 4879TIP3    H136052   5.488   1.617  13.578 -0.6137  0.9619  0.7312
 4879TIP3    H236053   5.633   1.638  13.615 -0.0519  0.0923 -0.8945
 4880TIP3   OH236054   1.880   1.332  17.027 -0.1069  0.2809 -0.1720
 4880TIP3    H136055   1.896   1.350  16.934 -0.3647 -0.4405 -0.3607
 4880TIP3    H236056   1.797   1.284  17.028 -0.0026  0.1106  0.4131
 4881TIP3   OH236057   3.555   3.904  10.583 -0.6028  0.1725 -0.4179
 4881TIP3    H136058   3.483   3.911  10.646  1.0123 -0.5737  1.6305
 4881TIP3    H236059   3.532   3.830  10.527 -0.3951 -1.5840  1.7130
 4882TIP3   OH236060   5.055   5.987  11.143 -0.1171 -0.2746 -0.0838
 4882TIP3    H136061   5.008   6.030  11.071  0.1489 -0.0726 -0.1407
 4882TIP3    H236062   5.138   6.035  11.148 -0.1223 -0.3110  0.3354
 4883TIP3   OH236063   3.389   0.024  16.582 -0.0206 -0.1817  0.6730
 4883TIP3    H136064   3.347   0.031  16.496 -0.9476  0.5801  1.1797
 4883TIP3    H236065   3.474   0.067  16.570 -0.5671  0.8575  0.3983
 4884TIP3   OH236066   2.043   5.760   6.043 -0.5964  0.0833 -0.5646
 4884TIP3    H136067   2.010   5.850   6.039 -0.3739  0.2914  1.3566
 4884TIP3    H236068   2.108   5.761   6.113 -1.4554 -1.8334  0.3444
 4885TIP3   OH236069   1.738   3.991  12.190  0.1998  0.3470 -0.0020
 4885TIP3    H136070   1.810   3.928  12.195  0.0608  0.1319 -0.6056
 4885TIP3    H236071   1.764   4.051  12.119  0.1836  0.7885  0.3576
 4886TIP3   OH236072   1.080   5.704   5.818  0.2906 -0.1278 -0.0114
 4886TIP3    H136073   1.127   5.666   5.744  0.0423 -0.9191  0.2317
 4886TIP3    H236074   1.136   5.776   5.847  0.2522  0.3738 -1.1426
 4887TIP3   OH236075   2.370   1.654  11.805  0.1635 -0.3153 -0.0884
 4887TIP3    H136076   2.452   1.606  11.805  2.0915  2.6818 -1.7225
 4887TIP3    H236077   2.334   1.640  11.717  0.2659  0.4519 -0.2562
 4888TIP3   OH236078   4.378   4.357   3.572  0.3065  0.2021 -0.0230
 4888TIP3    H136079   4.426   4.323   3.647  1.3642 -1.1955 -1.2838
 4888TIP3    H236080   4.433   4.337   3.497 -0.5844  1.8222 -1.1810
 4889TIP3   OH236081   2.992   4.856  16.989 -0.3142  0.1865 -0.3675
 4889TIP3    H136082   3.073   4.862  16.940 -0.2005  1.1669 -0.0791
 4889TIP3    H236083   2.949   4.941  16.977 -0.3922  0.3777  1.0083
 4890TIP3   OH236084   4.660   2.730   6.488  0.0361 -0.2137  0.5684
 4890TIP3    H136085   4.695   2.690   6.408  0.1505 -0.1424  0.5823
 4890TIP3    H236086   4.729   2.716   6.553  0.6995  1.2227  0.2298
 4891TIP3   OH236087   2.197   1.348   0.327 -1.2856 -0.3442  0.1294
 4891TIP3    H136088   2.154   1.267   0.355  0.2807 -1.5698 -0.9022
 4891TIP3    H236089   2.272   1.357   0.386  0.0263 -1.0758 -1.3537
 4892TIP3   OH236090   5.294   4.659  13.035  0.2629 -0.2088  0.0043
 4892TIP3    H136091   5.320   4.751  13.025  1.9678 -0.7516 -1.1622
 4892TIP3    H236092   5.269   4.632  12.947  0.1652 -0.9744  0.2619
 4893TIP3   OH236093   5.895   3.120  13.983 -0.3194  0.2242 -0.3213
 4893TIP3    H136094   5.967   3.059  14.000  0.3028  0.2948 -2.3997
 4893TIP3    H236095   5.844   3.077  13.914 -2.0743  0.3654  0.8442
 4894TIP3   OH236096   6.730   6.034  13.957  0.3715  0.2335 -0.4068
 4894TIP3    H136097   6.821   6.007  13.940  0.0557 -0.6799 -0.6877
 4894TIP3    H236098   6.738   6.104  14.022  1.1655 -1.3715  1.3187
 4895TIP3   OH236099   4.711   5.921  13.227  0.1541  0.1880  0.3815
 4895TIP3    H136100   4.806   5.932  13.221  0.3640  0.2044  2.9413
 4895TIP3    H236101   4.693   5.840  13.180  1.4958 -0.0613  0.2695
 4896TIP3   OH236102   1.606   6.367   0.151  0.2037 -0.3775  0.1131
 4896TIP3    H136103   1.650   6.336   0.072  0.8711  3.3839 -1.2023
 4896TIP3    H236104   1.677   6.399   0.207 -0.5093  0.9850  0.2752
 4897TIP3   OH236105   0.398   4.895  12.986 -0.0288 -0.4561  0.1448
 4897TIP3    H136106   0.352   4.838  12.925  1.4245 -1.7511  0.2035
 4897TIP3    H236107   0.479   4.848  13.007  1.3786  1.7620 -0.0282
 4898TIP3   OH236108   4.970   6.173  14.407 -0.3777  0.2664 -0.6809
 4898TIP3    H136109   4.899   6.109  14.413  0.8597 -1.1477 -0.5666
 4898TIP3    H236110   5.000   6.183  14.497  1.2558 -1.1573 -1.0285
 4899TIP3   OH236111   2.014   2.959   0.309 -0.0474 -0.3942  0.2609
 4899TIP3    H136112   2.103   2.988   0.327  0.2820 -1.3688  0.2412
 4899TIP3    H236113   1.985   2.920   0.392  0.3337 -2.0229 -0.3291
 4900TIP3   OH236114   0.560   3.890   1.260 -0.0051 -0.2083 -0.0045
 4900TIP3    H136115   0.562   3.796   1.281 -0.1173 -0.8196 -2.3680
 4900TIP3    H236116   0.650   3.910   1.232 -0.3787 -0.1042 -1.2126
 4901TIP3   OH236117   3.204   2.701   5.610 -0.3407 -0.0748 -0.4327
 4901TIP3    H136118   3.205   2.669   5.701  0.8308 -0.7695 -0.6697
 4901TIP3    H236119   3.282   2.755   5.604 -1.0924  1.0102 -0.6915
 4902TIP3   OH236120   4.884   2.418  11.895 -0.0905  0.1939  0.4297
 4902TIP3    H136121   4.813   2.482  11.906 -1.0834 -0.4886 -1.6231
 4902TIP3    H236122   4.962   2.472  11.879 -1.1651  1.0249 -2.7880
 4903TIP3   OH236123   1.286   6.329   2.503 -0.7469 -0.3911 -0.2551
 4903TIP3    H136124   1.215   6.308   2.442 -0.7606 -0.3045 -0.2691
 4903TIP3    H236125   1.365   6.329   2.449 -0.8741  0.6476 -0.4743
 4904TIP3   OH236126   6.039   2.725   1.492  0.3221  0.6283 -0.3093
 4904TIP3    H136127   6.016   2.804   1.541  1.0869  0.9191 -0.4066
 4904TIP3    H236128   6.008   2.742   1.403 -0.5741  0.3261 -0.0622
 4905TIP3   OH236129   5.310   6.479   6.677 -0.1756 -0.2748  0.4849
 4905TIP3    H136130   5.247   6.408   6.665 -1.1635  0.0198  3.2788
 4905TIP3    H236131   5.395   6.439   6.655 -0.7835 -2.1570  1.3755
 4906TIP3   OH236132   0.785   2.719   0.717 -0.5402  0.4580  0.1910
 4906TIP3    H136133   0.838   2.639   0.706 -0.6915  0.6609 -2.5166
 4906TIP3    H236134   0.700   2.687   0.746 -0.9483 -0.5541 -1.9337
 4907TIP3   OH236135   2.130   2.042  16.014  0.2667 -0.6599  0.3206
 4907TIP3    H136136   2.194   2.053  15.944  0.2482 -0.7633  0.2858
 4907TIP3    H236137   2.170   2.083  16.091 -0.9291  2.0581 -0.4255
 4908TIP3   OH236138   6.618   6.290   1.501  0.5965  0.1856  0.3350
 4908TIP3    H136139   6.698   6.289   1.449 -0.7074 -2.5581 -1.8940
 4908TIP3    H236140   6.625   6.214   1.558 -0.1250  0.3194  0.6147
 4909TIP3   OH236141   5.220   3.909  12.538 -0.1397 -0.2376  0.0165
 4909TIP3    H136142   5.216   3.917  12.443  1.2724  0.0926 -0.0316
 4909TIP3    H236143   5.313   3.916  12.559 -0.5050  0.6173  1.5021
 4910TIP3   OH236144   4.405   1.860   1.434  0.1122 -0.4908  0.2325
 4910TIP3    H136145   4.445   1.947   1.435  1.4130 -1.0508  1.4333
 4910TIP3    H236146   4.452   1.813   1.365  0.6225 -0.7480  0.7480
 4911TIP3   OH236147   5.646   1.136   4.439  0.2676  0.2659  0.3671
 4911TIP3    H136148   5.580   1.189   4.483 -1.9504  0.2591 -2.6779
 4911TIP3    H236149   5.721   1.195   4.429 -0.9980  1.8543 -0.1818
 4912TIP3   OH236150   0.813   5.396   3.604 -0.4741 -0.0966 -0.6441
 4912TIP3    H136151   0.804   5.301   3.614 -1.9295 -0.2001 -2.4947
 4912TIP3    H236152   0.908   5.411   3.608 -0.2917 -1.0209  3.8392
 4913TIP3   OH236153   0.614   5.595   0.763 -0.1561  0.0782  0.1816
 4913TIP3    H136154   0.616   5.529   0.831 -0.2448  0.9074  1.0094
 4913TIP3    H236155   0.521   5.605   0.741 -0.0949 -0.4730 -0.3603
 4914TIP3   OH236156   5.770   1.496  15.883 -0.5354 -0.6167 -0.0310
 4914TIP3    H136157   5.757   1.534  15.796  0.1015 -0.1605  0.0646
 4914TIP3    H236158   5.753   1.569  15.943  2.7584  0.2224  0.1018
 4915TIP3   OH236159   6.129   1.763   0.851 -0.3894  0.2188  0.0639
 4915TIP3    H136160   6.059   1.818   0.886 -0.9857 -0.7327  0.4086
 4915TIP3    H236161   6.084   1.696   0.799  0.1844 -0.8684  0.9127
 4916TIP3   OH236162   6.161   3.637   2.684 -0.5774 -0.3056  0.0315
 4916TIP3    H136163   6.087   3.688   2.650 -0.4681 -0.6590 -0.7750
 4916TIP3    H236164   6.222   3.703   2.717 -0.2337  0.1311 -1.4067
 4917TIP3   OH236165   4.905   2.668  15.951 -0.3457 -0.4769 -0.3711
 4917TIP3    H136166   4.914   2.730  16.022 -0.8859  0.4705 -1.1052
 4917TIP3    H236167   4.921   2.719  15.871  0.3971 -1.5396 -0.9314
 4918TIP3   OH236168   5.053   6.357  14.242  0.4661  0.5113  0.3564
 4918TIP3    H136169   5.114   6.289  14.271  1.1509  0.9364 -0.0592
 4918TIP3    H236170   4.969   6.312  14.236  1.1381 -0.6535 -1.1908
 4919TIP3   OH236171   2.536   5.859  15.200  0.4612  0.4152  0.0148
 4919TIP3    H136172   2.443   5.843  15.218  0.8079 -3.5115 -0.8669
 4919TIP3    H236173   2.581   5.826  15.278  1.2030 -0.5364 -0.7927
 4920TIP3   OH236174   1.835   5.981  16.794 -0.2257 -0.4981 -0.2256
 4920TIP3    H136175   1.913   6.035  16.806 -0.5990  0.2506 -1.0008
 4920TIP3    H236176   1.789   5.985  16.878 -0.1793  0.2963 -0.2299
 4921TIP3   OH236177   5.525   0.611  13.131  0.0828  0.2017 -0.2407
 4921TIP3    H136178   5.619   0.632  13.130  0.0674  0.4357 -2.4695
 4921TIP3    H236179   5.492   0.644  13.048 -2.1993  0.8990  0.8555
 4922TIP3   OH236180   4.537   0.307   1.339  0.4357  0.3839 -0.3420
 4922TIP3    H136181   4.577   0.373   1.282  2.8426 -0.1026  0.6778
 4922TIP3    H236182   4.599   0.297   1.411 -0.6306 -1.8809  0.3326
 4923TIP3   OH236183   5.614   2.552   5.759  0.1202 -0.1758 -0.3875
 4923TIP3    H136184   5.613   2.529   5.667 -0.3058  1.1948 -0.7522
 4923TIP3    H236185   5.661   2.635   5.763  0.2591 -0.2891  0.6419
 4924TIP3   OH236186   2.532   3.538   2.455  0.4663  0.4577  0.3085
 4924TIP3    H136187   2.584   3.599   2.507  0.6470  0.0249  0.6415
 4924TIP3    H236188   2.480   3.490   2.520  0.7304 -0.1195  0.1029
 4925TIP3   OH236189   6.316   3.530  13.867  0.0079 -0.4206 -0.2131
 4925TIP3    H136190   6.382   3.497  13.806  0.5589  0.7463 -0.2802
 4925TIP3    H236191   6.342   3.494  13.952  2.1878  1.8642  0.2200
 4926TIP3   OH236192   3.025   6.529  12.797 -0.3506  0.1014  0.0021
 4926TIP3    H136193   3.041   6.434  12.793 -0.6891  0.0040  0.7013
 4926TIP3    H236194   3.023   6.557  12.706  0.0015 -0.5235 -0.2098
 4927TIP3   OH236195   5.978   0.371  12.722 -0.7830 -1.1974 -0.2968
 4927TIP3    H136196   5.980   0.453  12.673  0.3428 -0.0374  1.5363
 4927TIP3    H236197   5.927   0.391  12.801  4.0452 -0.2980  3.0620
 4928TIP3   OH236198   3.305   4.509   4.362  0.1138  0.1463 -0.1752
 4928TIP3    H136199   3.267   4.436   4.411 -1.9604  0.5501 -1.0646
 4928TIP3    H236200   3.367   4.468   4.302  0.6069 -0.6317  0.8396
 4929TIP3   OH236201   1.871   1.047  14.024 -0.8954  0.4957  0.2537
 4929TIP3    H136202   1.923   1.125  14.046 -0.5870 -0.1210  1.8876
 4929TIP3    H236203   1.870   0.995  14.105 -0.9479 -1.2901 -0.8300
 4930TIP3   OH236204   4.474   3.956   5.032 -0.0184  0.2847  0.5045
 4930TIP3    H136205   4.529   4.019   5.079  0.7094  0.6983 -0.8603
 4930TIP3    H236206   4.391   4.002   5.019  0.5313  1.0312 -0.5439
 4931TIP3   OH236207   3.248   3.752  11.763 -0.8773  0.2439 -0.0976
 4931TIP3    H136208   3.221   3.665  11.792 -0.3729  0.0763 -0.1189
 4931TIP3    H236209   3.249   3.805  11.843 -0.4170  0.0255  0.0448
 4932TIP3   OH236210   0.283   4.587   6.613  0.0885  0.3997 -0.2822
 4932TIP3    H136211   0.283   4.680   6.589  1.5668  0.4703 -0.1282
 4932TIP3    H236212   0.371   4.556   6.589  0.7434 -0.1649  2.5064
 4933TIP3   OH236213   6.042   1.205   1.619  0.4294 -0.3529  0.1309
 4933TIP3    H136214   6.043   1.124   1.670 -2.3967 -0.8304 -0.3974
 4933TIP3    H236215   6.063   1.179   1.530  0.5267 -0.3114  0.1406
 4934TIP3   OH236216   5.886   4.859  12.266  0.0396  0.3633 -0.3811
 4934TIP3    H136217   5.909   4.896  12.181  1.3767  0.3164 -0.0629
 4934TIP3    H236218   5.969   4.851  12.312 -0.6145  0.0087  0.7867
 4935TIP3   OH236219   1.316   1.768  16.444  0.4166 -0.0593 -0.1387
 4935TIP3    H136220   1.344   1.703  16.380  3.2163  1.1453 -0.2965
 4935TIP3    H236221   1.344   1.733  16.528  1.3840  0.6002 -0.1635
 4936TIP3   OH236222   1.241   3.072   4.657 -0.0358  0.2870 -0.1098
 4936TIP3    H136223   1.329   3.078   4.693 -0.4745  2.0862  0.7735
 4936TIP3    H236224   1.186   3.123   4.717 -1.9044 -1.7028 -0.0262
 4937TIP3   OH236225   5.743   6.294  12.728 -0.1877 -0.6620  0.1723
 4937TIP3    H136226   5.781   6.208  12.747  0.8555 -0.1331  0.5439
 4937TIP3    H236227   5.741   6.339  12.813 -0.7042 -0.3017 -0.0251
 4938TIP3   OH236228   5.427   5.964  12.756  0.1076  0.5469  0.3601
 4938TIP3    H136229   5.345   5.918  12.738 -0.3143  0.9095  1.3015
 4938TIP3    H236230   5.416   6.050  12.716  0.0648  0.5665  0.4152
 4939TIP3   OH236231   0.245   2.030   1.568  0.4386  0.3728  0.3689
 4939TIP3    H136232   0.168   2.016   1.622  0.6349  2.4496  1.2841
 4939TIP3    H236233   0.240   1.962   1.501 -1.1154 -0.7522  1.5503
 4940TIP3   OH236234   4.417   1.360  14.455 -0.6758  0.7463  0.9507
 4940TIP3    H136235   4.428   1.273  14.418  0.6501  0.8078  1.1530
 4940TIP3    H236236   4.323   1.378  14.448 -1.6664 -2.1299  4.0935
 4941TIP3   OH236237   0.282   1.443  13.721  0.2387  0.6129  0.4213
 4941TIP3    H136238   0.239   1.419  13.639 -0.0103  1.2023  0.3762
 4941TIP3    H236239   0.241   1.387  13.787  0.6027 -0.0275  0.1118
 4942TIP3   OH236240   6.455   1.562   5.839  0.1437  0.6281 -0.6478
 4942TIP3    H136241   6.536   1.576   5.889 -0.4270 -0.0736  0.5195
 4942TIP3    H236242   6.451   1.637   5.780  1.0829  1.2665  0.0494
 4943TIP3   OH236243   2.778   5.471  11.826  0.0122 -0.4805  0.5484
 4943TIP3    H136244   2.855   5.512  11.865 -0.5485  0.3735  0.7801
 4943TIP3    H236245   2.716   5.543  11.813 -1.3632 -1.3765  1.8580
 4944TIP3   OH236246   1.351   2.978  14.115 -0.0505  0.3638  0.0260
 4944TIP3    H136247   1.292   3.002  14.044 -0.9580  0.5288  0.8110
 4944TIP3    H236248   1.296   2.980  14.193  1.2107  1.4537  0.9235
 4945TIP3   OH236249   5.708   5.609  12.907  0.2512  0.2033  0.2707
 4945TIP3    H136250   5.711   5.647  12.994 -0.8548  0.7215  0.0984
 4945TIP3    H236251   5.660   5.528  12.918 -1.1557  0.9639 -0.0797
 4946TIP3   OH236252   5.619   5.018  13.112 -0.7244 -0.1555  0.3206
 4946TIP3    H136253   5.605   4.970  13.031 -1.3693  0.8316 -0.1718
 4946TIP3    H236254   5.565   4.973  13.177 -0.4328 -0.7731  0.1348
 4947TIP3   OH236255   2.819   2.400   1.586 -0.0636 -0.1167 -0.1124
 4947TIP3    H136256   2.741   2.451   1.564  1.5083  1.7655 -1.6340
 4947TIP3    H236257   2.834   2.419   1.679 -1.2412 -0.3050  0.1382
 4948TIP3   OH236258   0.890   4.007   6.414 -0.2903 -0.7821 -0.2975
 4948TIP3    H136259   0.935   3.941   6.361  0.4730 -1.6851  1.4053
 4948TIP3    H236260   0.849   3.957   6.485  0.0684  0.5262  0.8768
 4949TIP3   OH236261   3.612   5.542   0.606  0.7847 -0.0525  0.2943
 4949TIP3    H136262   3.642   5.574   0.691 -0.4290 -0.7229  1.0030
 4949TIP3    H236263   3.524   5.509   0.623  0.5852 -0.3500 -1.1995
 4950TIP3   OH236264   5.308   1.334  12.392  0.3579 -0.0888  0.7239
 4950TIP3    H136265   5.347   1.249  12.371  1.2523  0.1774  1.2436
 4950TIP3    H236266   5.361   1.398  12.344 -0.4608  0.1702  0.1368
 4951TIP3   OH236267   4.789   0.092  16.656 -0.3045  0.2362  0.4442
 4951TIP3    H136268   4.872   0.117  16.695  0.7366 -0.6350 -1.0882
 4951TIP3    H236269   4.766   0.164  16.598  1.2064 -0.9284 -1.7492
 4952TIP3   OH236270   5.003   3.804   5.025  0.1456  0.4095 -0.8092
 4952TIP3    H136271   4.931   3.863   5.048  0.2885 -0.1772  1.4656
 4952TIP3    H236272   4.998   3.794   4.930 -2.9053  0.2259 -0.7135
 4953TIP3   OH236273   6.608   1.244   5.128 -0.2145 -0.4476  0.0776
 4953TIP3    H136274   6.545   1.195   5.074  0.0811 -1.2451  0.4358
 4953TIP3    H236275   6.653   1.301   5.066 -0.7344 -0.4596 -0.3162
 4954TIP3   OH236276   0.620   1.760   0.766 -0.1337  0.6762  0.1397
 4954TIP3    H136277   0.529   1.776   0.741 -0.9513 -0.9889  1.8643
 4954TIP3    H236278   0.630   1.665   0.760  1.5227  0.8386 -0.0626
 4955TIP3   OH236279   1.401   4.533  12.578  0.3908 -0.1572 -0.1492
 4955TIP3    H136280   1.340   4.579  12.635 -0.7608 -0.4734 -1.0873
 4955TIP3    H236281   1.366   4.546  12.489 -0.0013 -2.7735 -0.4621
 4956TIP3   OH236282   4.183   2.740   2.002 -0.1265 -0.0798  0.2946
 4956TIP3    H136283   4.235   2.728   1.922  0.5180 -1.1597  0.8510
 4956TIP3    H236284   4.248   2.737   2.072 -0.8144 -0.2084  0.9277
 4957TIP3   OH236285   1.223   4.777  17.199 -0.6415 -0.2636 -0.3245
 4957TIP3    H136286   1.165   4.794  17.125 -1.0512 -0.2916 -0.0144
 4957TIP3    H236287   1.265   4.861  17.217 -2.9700  0.6079  1.4782
 4958TIP3   OH236288   3.876   2.079  16.303  0.5422 -0.3155  0.0200
 4958TIP3    H136289   3.873   2.036  16.217  1.0452 -0.8953  0.2821
 4958TIP3    H236290   3.794   2.052  16.345  1.2905 -1.9019  0.5676
 4959TIP3   OH236291   5.228   3.960  13.239 -0.0087 -0.1833 -0.2030
 4959TIP3    H136292   5.152   3.902  13.251 -0.3241  0.4934  1.2629
 4959TIP3    H236293   5.273   3.957  13.324  0.1772  1.4231 -0.2310
 4960TIP3   OH236294   0.434   2.912  16.993 -0.0739  0.0783 -0.3888
 4960TIP3    H136295   0.385   2.981  17.037  0.1978  0.1763 -0.2400
 4960TIP3    H236296   0.425   2.836  17.050 -2.5061 -0.7806 -1.7325
 4961TIP3   OH236297   1.384   5.052   5.909 -0.4565  0.0522 -0.4210
 4961TIP3    H136298   1.402   4.967   5.950 -1.6482  0.7214  1.6581
 4961TIP3    H236299   1.400   5.038   5.816  0.6240 -2.0871  0.0267
 4962TIP3   OH236300   0.083   0.842   2.909 -0.1162 -0.0049  0.2439
 4962TIP3    H136301   0.173   0.809   2.907 -0.6423 -1.6725  1.8504
 4962TIP3    H236302   0.088   0.921   2.962  0.0926 -1.3917  2.4347
 4963TIP3   OH236303   1.089   6.096   1.484 -0.2398  0.3619  0.6152
 4963TIP3    H136304   1.125   6.024   1.432 -1.3561  0.1927  0.0238
 4963TIP3    H236305   1.134   6.091   1.568  0.7296 -0.1277  0.0792
 4964TIP3   OH236306   5.761   3.201   4.277 -0.7171 -0.2930 -0.0660
 4964TIP3    H136307   5.693   3.219   4.342  1.5642 -2.6418  3.3330
 4964TIP3    H236308   5.821   3.275   4.284 -0.3385 -0.6613  0.8214
 4965TIP3   OH236309   3.059   6.572   5.955 -0.4515 -0.1002  0.0843
 4965TIP3    H136310   3.026   6.491   5.993 -2.5187 -0.2566 -1.8434
 4965TIP3    H236311   3.002   6.588   5.880  1.4084  1.8742 -1.0125
 4966TIP3   OH236312   0.204   5.480   2.241  0.1472  0.0404 -0.1299
 4966TIP3    H136313   0.123   5.531   2.240 -0.4894 -0.7588 -3.2860
 4966TIP3    H236314   0.198   5.427   2.320 -0.5417  2.6768  1.7054
 4967TIP3   OH236315   1.138   1.765   1.177  0.0671  0.3313  0.1337
 4967TIP3    H136316   1.201   1.796   1.112  0.9760 -0.5713  0.5560
 4967TIP3    H236317   1.192   1.735   1.250 -0.7632 -1.6472 -0.0001
 4968TIP3   OH236318   3.647   3.204  13.883  0.1088 -0.3088 -0.2504
 4968TIP3    H136319   3.615   3.118  13.910  0.9362 -0.1622  1.3274
 4968TIP3    H236320   3.738   3.189  13.857  0.5764  0.1996  0.9735
 4969TIP3   OH236321   6.016   3.298  11.202 -0.2755 -0.2348  0.2852
 4969TIP3    H136322   6.027   3.234  11.131 -1.5015 -0.6065  0.4039
 4969TIP3    H236323   5.952   3.360  11.168  0.7556  0.8280  0.2512
 4970TIP3   OH236324   6.698   1.058   4.043  0.3324 -0.2096  0.2470
 4970TIP3    H136325   6.755   0.997   4.089 -0.4983 -1.2146 -0.0229
 4970TIP3    H236326   6.728   1.055   3.952  0.0915 -0.4652  0.1740
 4971TIP3   OH236327   2.901   1.710  16.173 -0.2361 -0.3376  0.7842
 4971TIP3    H136328   2.921   1.803  16.189 -0.9241 -0.2172  0.9995
 4971TIP3    H236329   2.911   1.700  16.079  3.0611 -0.8563  1.0795
 4972TIP3   OH236330   5.928   3.667  13.743  0.1965  0.1461  0.1670
 4972TIP3    H136331   6.013   3.685  13.702 -0.4406  2.4246 -0.2888
 4972TIP3    H236332   5.945   3.676  13.837  0.9068 -1.6290  0.2377
 4973TIP3   OH236333   5.618   5.854  14.542  0.2079  0.1113 -0.0455
 4973TIP3    H136334   5.612   5.916  14.469 -0.7783 -3.9303 -3.7928
 4973TIP3    H236335   5.528   5.848  14.575  0.6966  2.1240  1.8932
 4974TIP3   OH236336   2.471   6.450  13.852  0.1580 -0.3381  0.0167
 4974TIP3    H136337   2.476   6.403  13.769  2.1638  1.1798 -0.8200
 4974TIP3    H236338   2.548   6.421  13.900 -1.2049 -1.5104  1.5803
 4975TIP3   OH236339   2.377   2.258   3.363  0.3830 -0.3255  0.1657
 4975TIP3    H136340   2.436   2.327   3.334  2.7039 -2.2014  0.1416
 4975TIP3    H236341   2.344   2.219   3.282  0.6854 -0.5563  0.1539
 4976TIP3   OH236342   2.324   2.598  13.174  0.2016 -0.7198 -0.1175
 4976TIP3    H136343   2.336   2.627  13.084  2.0409 -1.0535 -0.0159
 4976TIP3    H236344   2.280   2.672  13.217  0.8805  0.1495 -0.8772
 4977TIP3   OH236345   6.262   4.495  15.573  0.2380 -0.0925  0.0681
 4977TIP3    H136346   6.326   4.561  15.600  0.3597  0.5102 -1.5324
 4977TIP3    H236347   6.314   4.427  15.530 -0.0602 -0.3311  0.0825
 4978TIP3   OH236348   0.862   4.588  16.316  0.2122  0.3671 -0.0936
 4978TIP3    H136349   0.774   4.585  16.355  0.2450 -1.0669 -0.0921
 4978TIP3    H236350   0.889   4.680  16.325 -1.0056  0.6820  0.5276
 4979TIP3   OH236351   1.199   2.302  15.896  0.1094  0.0944 -0.4207
 4979TIP3    H136352   1.266   2.350  15.848 -0.3223  0.5056 -0.6195
 4979TIP3    H236353   1.231   2.212  15.899  0.9935  0.4154  0.0840
 4980TIP3   OH236354   0.336   4.832   6.517 -0.0033 -0.5156  0.2998
 4980TIP3    H136355   0.417   4.882   6.511  0.1932 -0.8689 -0.1143
 4980TIP3    H236356   0.274   4.890   6.561 -0.2213  0.6396 -1.4369
 4981TIP3   OH236357   4.007   3.547  13.543 -0.7532  0.6322  0.4071
 4981TIP3    H136358   4.091   3.586  13.518 -0.0159 -1.0262  0.1695
 4981TIP3    H236359   3.987   3.487  13.471 -0.5719 -1.2894  1.8867
 4982TIP3   OH236360   3.124   6.732   0.785  0.0481  0.0174 -0.2794
 4982TIP3    H136361   3.196   6.691   0.736 -1.9853 -0.9601 -2.6503
 4982TIP3    H236362   3.078   6.659   0.826 -1.8964  0.0749 -2.1542
 4983TIP3   OH236363   5.801   0.881  16.832 -0.2680  0.1424  0.0219
 4983TIP3    H136364   5.778   0.814  16.768  0.0121 -0.5746  0.6516
 4983TIP3    H236365   5.749   0.957  16.807  0.0151 -0.0365 -1.1916
 4984TIP3   OH236366   4.409   3.102   4.012 -0.2119  0.3060 -0.5714
 4984TIP3    H136367   4.377   3.018   4.043  2.6362 -0.9853 -0.7837
 4984TIP3    H236368   4.428   3.088   3.919  1.7668  0.6302 -0.2617
 4985TIP3   OH236369   6.140   4.760  15.098  0.5495 -0.0186  0.2522
 4985TIP3    H136370   6.077   4.811  15.047  1.1905  0.4906 -0.0508
 4985TIP3    H236371   6.184   4.705  15.033 -0.6734 -1.5517  0.6843
 4986TIP3   OH236372   5.453   2.247  12.641 -0.2732 -0.0371 -0.0940
 4986TIP3    H136373   5.392   2.205  12.701  0.6574 -0.2083  0.7550
 4986TIP3    H236374   5.472   2.181  12.575 -1.3108  0.1577 -0.5955
 4987TIP3   OH236375   2.387   2.400   0.213 -0.3330 -0.3942 -0.1059
 4987TIP3    H136376   2.323   2.351   0.162  0.1326  0.3877 -1.5092
 4987TIP3    H236377   2.468   2.349   0.205 -0.3694 -0.5068  0.2394
 4988TIP3   OH236378   6.747   3.186  13.064 -0.4486  0.1274 -0.0880
 4988TIP3    H136379   6.825   3.163  13.115  0.4421 -1.4314 -2.0497
 4988TIP3    H236380   6.681   3.207  13.130  0.6756 -1.6557  1.7089
 4989TIP3   OH236381   5.942   4.790   3.965  0.0827 -0.1584  0.0239
 4989TIP3    H136382   5.993   4.788   3.884 -0.6153  0.1223 -0.4280
 4989TIP3    H236383   5.928   4.698   3.987  0.1532 -0.2379 -0.2550
 4990TIP3   OH236384   5.174   2.990  16.553 -0.4537 -0.2206  0.5873
 4990TIP3    H136385   5.245   3.050  16.578  0.7712 -1.8478  1.1645
 4990TIP3    H236386   5.096   3.027  16.595  0.1217  1.2953  0.4058
 4991TIP3   OH236387   5.700   0.031  17.244  0.0045  0.2361  0.4504
 4991TIP3    H136388   5.722  -0.019  17.165 -2.1210 -0.6419  0.3392
 4991TIP3    H236389   5.784   0.061  17.277  1.0731 -0.5114 -1.4027
 4992TIP3   OH236390   2.501   2.394   2.864 -0.4240 -0.3311 -0.2353
 4992TIP3    H136391   2.542   2.308   2.870 -1.0462 -0.7071 -1.1150
 4992TIP3    H236392   2.409   2.376   2.845 -0.4068  0.5302 -1.2477
 4993TIP3   OH236393   4.340   5.664  11.901  0.1480  0.9116 -0.1340
 4993TIP3    H136394   4.287   5.710  11.836  1.9315  1.1046 -1.5289
 4993TIP3    H236395   4.424   5.710  11.900  0.8749 -0.3303  0.8697
 4994TIP3   OH236396   1.621   4.150  17.307  0.4942  0.3621  0.7643
 4994TIP3    H136397   1.533   4.123  17.332  0.8426 -1.3472  0.2730
 4994TIP3    H236398   1.607   4.216  17.240 -0.4800 -1.4896 -0.9725
 4995TIP3   OH236399   4.458   2.194  13.034 -0.5025 -0.4355 -0.1856
 4995TIP3    H136400   4.434   2.115  12.985 -1.1271 -1.6314  1.9004
 4995TIP3    H236401   4.506   2.248  12.971 -1.5203 -1.7093 -2.1676
 4996TIP3   OH236402   0.051   3.416   1.370 -0.5881 -0.2035  0.2706
 4996TIP3    H136403  -0.037   3.386   1.345 -0.0305 -1.6291 -0.0982
 4996TIP3    H236404   0.090   3.340   1.414  0.7731  0.1010 -0.3613
 4997TIP3   OH236405   5.646   5.709   0.992  0.4839 -0.5089 -0.4495
 4997TIP3    H136406   5.669   5.735   1.081 -1.4586 -1.0095  0.2591
 4997TIP3    H236407   5.581   5.773   0.964  0.1212 -1.1129 -1.0093
 4998TIP3   OH236408   5.970   6.178  11.726  0.1187  0.4636  0.0213
 4998TIP3    H136409   6.004   6.202  11.812  0.5989 -0.2087  0.0293
 4998TIP3    H236410   5.875   6.189  11.734  0.1441  0.2593  0.6902
 4999TIP3   OH236411   1.000   2.192  13.153 -0.3348  0.1070  0.3830
 4999TIP3    H136412   1.008   2.102  13.186  1.4987  0.5169  1.1279
 4999TIP3    H236413   0.906   2.203  13.139 -0.4563 -2.8056 -2.2642
 5000TIP3   OH236414   5.369   5.390   1.697 -0.1622  0.6251 -0.3053
 5000TIP3    H136415   5.458   5.388   1.660 -1.0031  0.2635 -2.4879
 5000TIP3    H236416   5.313   5.363   1.624 -2.1265  1.3918  0.8574
 5001TIP3   OH236417   3.104   0.214   5.877 -1.0457 -0.0312  0.7183
 5001TIP3    H136418   3.015   0.178   5.874 -0.5713 -1.2163  0.6048
 5001TIP3    H236419   3.157   0.145   5.917  0.4308 -0.6578 -2.0737
 5002TIP3   OH236420   1.021   3.629   2.463  0.2734 -0.3786  0.0015
 5002TIP3    H136421   1.051   3.717   2.483  0.1939 -0.7604  1.9991
 5002TIP3    H236422   1.100   3.579   2.447  0.4454 -0.3708  0.7994
 5003TIP3   OH236423   2.909   2.054   4.014 -0.7275 -0.0082 -0.2169
 5003TIP3    H136424   2.894   2.106   4.092 -0.1972  0.3384 -0.3415
 5003TIP3    H236425   2.875   2.107   3.942  0.3055  0.4154 -0.4047
 5004TIP3   OH236426   5.120   5.069   0.354  1.0634 -0.1081 -0.0354
 5004TIP3    H136427   5.054   5.062   0.423  0.5374 -1.0181 -0.6107
 5004TIP3    H236428   5.111   5.159   0.321 -1.1092 -0.6951 -1.2652
 5005TIP3   OH236429   2.481   6.292  16.950  0.0986  0.4801  0.1551
 5005TIP3    H136430   2.442   6.344  17.021 -2.1617  0.3336 -0.9167
 5005TIP3    H236431   2.420   6.301  16.877  1.5375 -0.7180 -1.2578
 5006TIP3   OH236432   1.592   4.557  12.775  0.6421  0.7832  0.0007
 5006TIP3    H136433   1.573   4.463  12.780 -0.6519  1.0284  0.0060
 5006TIP3    H236434   1.561   4.582  12.688 -0.8627  1.5747  0.7274
 5007TIP3   OH236435   5.925   0.381  13.172 -0.1573 -0.3075  0.2690
 5007TIP3    H136436   5.862   0.440  13.131  0.8264  0.3748 -0.3070
 5007TIP3    H236437   5.871   0.314  13.214 -1.2306 -0.6163 -1.5086
 5008TIP3   OH236438   2.114   5.127  17.429 -0.1558  0.6534 -0.1222
 5008TIP3    H136439   2.178   5.155  17.364 -1.8446  1.1436 -1.6656
 5008TIP3    H236440   2.160   5.060  17.481  1.9238  1.7731 -0.4203
 5009TIP3   OH236441   2.268   4.095   1.918  0.1742  0.4440 -0.2565
 5009TIP3    H136442   2.280   4.021   1.858  1.2295  0.6596 -0.3301
 5009TIP3    H236443   2.298   4.171   1.869 -0.9096  0.9406 -0.1778
 5010TIP3   OH236444   5.586   0.335  13.211  0.4169 -0.1786  0.6029
 5010TIP3    H136445   5.523   0.284  13.160 -0.3039  0.2869  1.0242
 5010TIP3    H236446   5.563   0.426  13.193 -0.8350  0.0292  2.9252
 5011TIP3   OH236447   5.855   2.827   2.626  0.3044  0.0881 -0.3850
 5011TIP3    H136448   5.888   2.917   2.628  1.0814 -0.1791 -0.6519
 5011TIP3    H236449   5.925   2.777   2.583 -0.1061 -0.6457 -0.2153
 5012TIP3   OH236450   6.365   3.055  10.387 -0.0334 -0.8388 -0.6548
 5012TIP3    H136451   6.278   3.066  10.425  0.0840 -2.6184  0.2165
 5012TIP3    H236452   6.389   3.142  10.356 -1.4796  0.0066  0.4882
 5013TIP3   OH236453   3.570   3.211   1.160 -0.1782  0.2750 -0.4445
 5013TIP3    H136454   3.576   3.128   1.111 -1.4493  0.8314 -1.6203
 5013TIP3    H236455   3.535   3.186   1.245  0.9046 -0.5720 -0.2215
 5014TIP3   OH236456   3.356   6.185  13.613 -0.0351  0.1322 -0.2536
 5014TIP3    H136457   3.422   6.231  13.664 -0.1579 -1.3275  1.3076
 5014TIP3    H236458   3.405   6.124  13.558  0.0104 -2.8957  2.8171
 5015TIP3   OH236459   5.729   2.003   4.794  0.3135 -0.2097 -0.0240
 5015TIP3    H136460   5.742   1.964   4.881  0.2019 -3.0689 -1.1765
 5015TIP3    H236461   5.798   2.069   4.787  0.5959 -0.2144  2.0620
 5016TIP3   OH236462   0.681   3.642   4.783  0.4261  1.1422  0.1783
 5016TIP3    H136463   0.691   3.644   4.688  4.0689 -0.8168  0.3709
 5016TIP3    H236464   0.729   3.718   4.814  2.6396 -0.3214  0.5284
 5017TIP3   OH236465   1.313   3.660   4.733  0.3952 -0.5501 -0.0009
 5017TIP3    H136466   1.284   3.733   4.679  0.4690 -0.7528 -0.3214
 5017TIP3    H236467   1.371   3.610   4.676  0.9905 -0.4142  0.4758
 5018TIP3   OH236468   3.147   4.985   0.593 -0.4121 -0.1375 -0.1499
 5018TIP3    H136469   3.216   5.052   0.596  0.1435 -0.7288  0.4243
 5018TIP3    H236470   3.158   4.943   0.508  2.0010 -2.3474  1.1198
 5019TIP3   OH236471   1.787   4.426   2.440 -0.1450 -0.0856 -0.3453
 5019TIP3    H136472   1.815   4.377   2.362  1.4572 -0.9695  0.7515
 5019TIP3    H236473   1.867   4.465   2.474 -1.0381  1.3717  0.1680
 5020TIP3   OH236474   6.486   3.745  11.306  0.1101 -0.0362 -0.3476
 5020TIP3    H136475   6.454   3.787  11.227 -1.3323  0.5416  0.5115
 5020TIP3    H236476   6.525   3.663  11.275 -1.5188 -0.4131 -1.5440
 5021TIP3   OH236477   5.006   6.203  14.695  0.7612 -0.3251 -0.1796
 5021TIP3    H136478   4.919   6.242  14.697  0.5530 -0.4767 -2.7784
 5021TIP3    H236479   5.062   6.268  14.737 -0.3762  0.3563  0.3400
 5022TIP3   OH236480   0.294   2.373   3.278 -0.1881  0.3930  0.3242
 5022TIP3    H136481   0.328   2.458   3.308  0.1061  0.0535  0.9729
 5022TIP3    H236482   0.338   2.359   3.194  0.9987  0.1474  0.9607
 5023TIP3   OH236483   2.529   3.777   1.042 -0.5597  0.3986  0.5974
 5023TIP3    H136484   2.586   3.826   0.983 -0.1274  0.3333  0.9521
 5023TIP3    H236485   2.494   3.843   1.102  0.4334  0.2093  1.4029
 5024TIP3   OH236486   5.914   1.347  15.577  0.5728  0.0483  0.5771
 5024TIP3    H136487   5.966   1.328  15.655 -0.7956 -1.3460  1.1923
 5024TIP3    H236488   5.873   1.432  15.595  0.9488  0.1440  0.9881
 5025TIP3   OH236489   6.720   2.396   2.696  0.0057 -0.2147 -0.0312
 5025TIP3    H136490   6.642   2.401   2.641 -2.4833  0.4502  3.2459
 5025TIP3    H236491   6.691   2.351   2.775  3.1033 -0.3359  1.1867
 5026TIP3   OH236492   0.137   0.470  13.848  0.2004  0.0415 -0.5141
 5026TIP3    H136493   0.137   0.528  13.924 -0.4246  0.1300 -0.5793
 5026TIP3    H236494   0.200   0.402  13.870  0.7985  0.6322 -0.3534
 5027TIP3   OH236495   1.756   2.777  15.326  0.4730  0.5937 -0.3266
 5027TIP3    H136496   1.744   2.684  15.348 -1.5592  0.8362 -0.1586
 5027TIP3    H236497   1.836   2.780  15.274  0.7371 -1.2077 -0.0764
 5028TIP3   OH236498   2.821   2.941   6.657  0.9100  0.2936 -0.0510
 5028TIP3    H136499   2.871   3.014   6.692  1.9729 -0.4391  0.0165
 5028TIP3    H236500   2.869   2.913   6.580  0.3045 -0.0941 -0.2992
 5029TIP3   OH236501   6.587   2.242  14.743 -0.0575 -0.4533 -0.3126
 5029TIP3    H136502   6.633   2.267  14.663 -1.0650 -0.5409 -0.9223
 5029TIP3    H236503   6.546   2.158  14.722 -1.9386  0.4423 -0.3580
 5030TIP3   OH236504   6.612   3.443   0.733 -0.2028 -0.1045  0.0394
 5030TIP3    H136505   6.536   3.502   0.733  2.3090  3.4236 -1.1705
 5030TIP3    H236506   6.620   3.415   0.642 -0.2191 -0.7507  0.2327
 5031TIP3   OH236507   2.202   2.300   0.057 -0.2720 -0.2830  0.7035
 5031TIP3    H136508   2.113   2.271   0.076 -0.5255 -0.4543 -0.6431
 5031TIP3    H236509   2.230   2.244  -0.015  0.3698  0.7739  0.1160
 5032TIP3   OH236510   5.011   5.729   5.552 -0.3699  0.2497  0.0121
 5032TIP3    H136511   4.991   5.759   5.640  0.3664 -0.3122  0.3802
 5032TIP3    H236512   5.092   5.678   5.561  0.1805  0.8793 -1.1183
 5033TIP3   OH236513   3.707   0.962   2.024 -0.1826 -0.0996 -0.2234
 5033TIP3    H136514   3.630   0.938   2.076  0.0610 -1.6584 -0.5472
 5033TIP3    H236515   3.752   1.027   2.078 -1.0051 -0.1796  0.5917
 5034TIP3   OH236516   1.710   4.176   3.343  0.0767  0.0372  0.6770
 5034TIP3    H136517   1.750   4.103   3.391  0.4608 -0.4620 -0.3610
 5034TIP3    H236518   1.617   4.154   3.341  0.4933 -2.0633 -2.1801
 5035TIP3   OH236519   0.508   5.028   4.441  0.3732 -0.4589 -0.0401
 5035TIP3    H136520   0.454   4.957   4.406  0.3360 -0.8752  0.8284
 5035TIP3    H236521   0.513   5.010   4.535  0.7629  0.4265  0.1185
 5036TIP3   OH236522   0.822   4.489   1.176 -0.0501  0.0470 -0.3401
 5036TIP3    H136523   0.808   4.479   1.270 -0.5494  1.4593 -0.2322
 5036TIP3    H236524   0.916   4.479   1.164  0.1086  0.5246  0.4246
 5037TIP3   OH236525   0.663   5.439  12.862  0.3708  0.2741  0.1430
 5037TIP3    H136526   0.615   5.378  12.918  0.1593  0.9170  0.6783
 5037TIP3    H236527   0.694   5.385  12.789 -1.8439 -0.0125 -0.6588
 5038TIP3   OH236528   5.050   5.441   4.651  0.3007 -0.0524  0.0987
 5038TIP3    H136529   5.075   5.533   4.664  1.1190 -0.4035  1.0989
 5038TIP3    H236530   4.981   5.425   4.715  0.7930 -0.3804  0.5534
 5039TIP3   OH236531   6.137   0.502   2.334  0.3563 -0.4319 -0.1760
 5039TIP3    H136532   6.074   0.574   2.329  1.0833  0.1870 -0.6789
 5039TIP3    H236533   6.183   0.515   2.417 -0.5586 -1.2157  0.4640
 5040TIP3   OH236534   6.369   3.083   5.253 -0.2509 -0.0288 -0.0606
 5040TIP3    H136535   6.402   3.172   5.244 -0.6747  0.0708 -0.7278
 5040TIP3    H236536   6.427   3.030   5.199  1.1488 -0.4790  1.7867
 5041TIP3   OH236537   0.791   4.531  11.342 -0.8759 -0.1493  0.1552
 5041TIP3    H136538   0.853   4.526  11.269  0.0472 -1.9655  1.0164
 5041TIP3    H236539   0.707   4.549  11.299 -0.2952 -0.8026 -1.3552
 5042TIP3   OH236540   2.334   5.381  15.128 -0.5680  0.3690 -0.0789
 5042TIP3    H136541   2.269   5.422  15.070  0.5874  0.3121 -1.4800
 5042TIP3    H236542   2.282   5.326  15.187 -1.9798  2.3043  0.5626
 5043TIP3   OH236543   3.213   3.460  13.683  0.2497  0.5741 -0.1984
 5043TIP3    H136544   3.200   3.366  13.695  0.8243  0.1298 -2.5457
 5043TIP3    H236545   3.292   3.480  13.735  1.1471 -0.6321 -1.0327
 5044TIP3   OH236546   6.592   2.758  12.953  0.3709  0.2557 -0.2025
 5044TIP3    H136547   6.499   2.753  12.932  0.6654 -0.7447 -1.4145
 5044TIP3    H236548   6.595   2.791  13.043 -1.1346  0.5060 -0.2193
 5045TIP3   OH236549   0.813   4.754  11.499  0.1065  0.0279 -0.3709
 5045TIP3    H136550   0.800   4.674  11.449  2.9091 -1.4389  1.0241
 5045TIP3    H236551   0.892   4.794  11.462 -1.1354  2.1508 -0.9322
 5046TIP3   OH236552   5.953   2.973   4.266 -0.6202 -0.5808 -0.6224
 5046TIP3    H136553   5.983   2.946   4.353  0.0779 -1.0901 -1.0079
 5046TIP3    H236554   5.920   3.062   4.278  0.4172 -0.2634 -0.0290
 5047TIP3   OH236555   2.908   0.617  16.442 -0.1823  0.3792 -0.2107
 5047TIP3    H136556   2.868   0.647  16.360 -1.6183  0.3955  0.4542
 5047TIP3    H236557   2.989   0.667  16.449 -0.2985  0.7615 -1.3572
 5048TIP3   OH236558   4.590   5.473   4.913  0.0870  0.3858 -0.0329
 5048TIP3    H136559   4.599   5.433   4.999  0.5857  0.3780 -0.0893
 5048TIP3    H236560   4.502   5.511   4.914 -1.0856 -2.1351 -0.5819
 5049TIP3   OH236561   3.469   0.462  15.105 -0.1404 -0.6180 -0.4511
 5049TIP3    H136562   3.395   0.466  15.044 -1.4367  0.0720  1.0831
 5049TIP3    H236563   3.502   0.552  15.108  1.1656 -1.0213 -1.5318
 5050TIP3   OH236564   6.462   2.669   3.129  0.2010  0.0580 -0.1425
 5050TIP3    H136565   6.460   2.641   3.220  0.5799 -1.4330 -0.5621
 5050TIP3    H236566   6.415   2.600   3.082  0.1357  0.7331 -1.0883
 5051TIP3   OH236567   4.620   1.359  15.054 -0.1730 -0.6808  0.3074
 5051TIP3    H136568   4.683   1.415  15.098 -1.2114  0.0378  0.9169
 5051TIP3    H236569   4.570   1.418  14.998  0.5399 -1.4445 -1.1887
 5052TIP3   OH236570   5.253   1.898  13.984 -0.0664 -0.5491 -0.0385
 5052TIP3    H136571   5.308   1.920  14.059 -0.6588  1.2151 -0.0852
 5052TIP3    H236572   5.178   1.956  13.992 -1.1154 -1.7408 -0.9127
 5053TIP3   OH236573   3.222   0.494  16.174 -0.0473 -0.1861 -0.3058
 5053TIP3    H136574   3.257   0.452  16.096 -0.8682  0.3525 -0.9841
 5053TIP3    H236575   3.299   0.519  16.226  0.6596  1.6938 -2.1183
 5054TIP3   OH236576   5.748   6.136  13.781  0.5559 -0.3166  0.1501
 5054TIP3    H136577   5.678   6.115  13.719 -1.2017 -0.3132  2.0032
 5054TIP3    H236578   5.729   6.226  13.809  1.1901 -0.3797  0.8221
 5055TIP3   OH236579   4.450   1.367   4.548  0.0111  0.0877  0.3469
 5055TIP3    H136580   4.474   1.366   4.455 -1.1654  3.1697 -0.0887
 5055TIP3    H236581   4.527   1.404   4.592 -0.0267  0.1008  0.4019
 5056TIP3   OH236582   6.033   3.508   2.893 -0.3301 -0.0812  0.4200
 5056TIP3    H136583   6.086   3.553   2.827 -0.3665 -1.6963 -0.7631
 5056TIP3    H236584   6.097   3.473   2.955 -0.1521 -0.2952  0.1165
 5057TIP3   OH236585   4.344   0.771  14.214  0.3146  0.3387  0.4147
 5057TIP3    H136586   4.261   0.804  14.180 -0.5733 -0.1529  1.9681
 5057TIP3    H236587   4.357   0.688  14.170 -0.5868 -0.0862  0.9139
 5058TIP3   OH236588   2.528   4.217   2.275 -0.2639 -0.0542  0.6211
 5058TIP3    H136589   2.538   4.178   2.361  1.1461  0.1481  0.5682
 5058TIP3    H236590   2.586   4.293   2.275  0.9872 -0.9323 -1.0009
 5059TIP3   OH236591   4.482   3.861  13.818  0.4693  0.4628  0.4439
 5059TIP3    H136592   4.473   3.932  13.756  0.7710  1.3469  1.3886
 5059TIP3    H236593   4.575   3.840  13.818  0.3842  0.0793  0.1818
 5060TIP3   OH236594   5.214   2.891   2.927  0.9624  0.3310  0.2601
 5060TIP3    H136595   5.210   2.843   2.844 -0.3694  1.2461 -0.2404
 5060TIP3    H236596   5.258   2.831   2.987 -1.0516 -1.7604 -0.1981
 5061TIP3   OH236597   1.336   5.994  13.221 -0.8409 -0.0033  0.4077
 5061TIP3    H136598   1.404   5.958  13.277 -0.4889 -0.3244 -0.2069
 5061TIP3    H236599   1.376   6.069  13.178 -0.5090 -0.7942 -0.7312
 5062TIP3   OH236600   4.978   1.649  11.146 -0.1407  0.4755 -0.0370
 5062TIP3    H136601   4.893   1.621  11.110 -0.5920  0.2864  1.1167
 5062TIP3    H236602   5.036   1.575  11.130 -0.5975 -0.0118  0.4939
 5063TIP3   OH236603   1.291   4.176   1.465 -0.6195  0.1934  0.6038
 5063TIP3    H136604   1.335   4.209   1.544 -1.9854  1.8995  0.7246
 5063TIP3    H236605   1.249   4.254   1.428 -2.4030 -1.1029 -0.2122
 5064TIP3   OH236606   3.954   4.719   2.872 -0.0506  0.4852  0.2924
 5064TIP3    H136607   4.035   4.685   2.910  0.5752  0.8517 -0.6691
 5064TIP3    H236608   3.886   4.658   2.902  0.9210 -1.2434 -0.7961
 5065TIP3   OH236609   4.689   2.855  15.735 -0.5152  0.0153 -0.1746
 5065TIP3    H136610   4.784   2.845  15.729 -0.7709 -3.6745 -0.8686
 5065TIP3    H236611   4.676   2.925  15.798  2.6380  1.1574 -0.6112
 5066TIP3   OH236612   6.577   2.579   2.883 -0.2838 -0.0648 -0.1842
 5066TIP3    H136613   6.579   2.641   2.956 -0.7503 -0.0099 -0.2131
 5066TIP3    H236614   6.519   2.509   2.914 -1.0393  0.2916 -0.7638
 5067TIP3   OH236615   0.966   2.288  14.717  1.1140  0.6551 -0.4853
 5067TIP3    H136616   0.911   2.233  14.661  0.3387  1.8619 -0.9527
 5067TIP3    H236617   0.915   2.301  14.796  2.2665 -1.1570  0.6296
 5068TIP3   OH236618   0.928   2.112   4.635 -1.0833 -0.3441  0.1539
 5068TIP3    H136619   1.017   2.087   4.657 -1.5080 -0.0484  2.4061
 5068TIP3    H236620   0.898   2.042   4.576  0.7065 -0.2602 -0.9289
 5069TIP3   OH236621   6.081   5.036  11.591 -0.3816  0.2999  0.0516
 5069TIP3    H136622   6.097   5.069  11.680  0.7488 -0.5717  0.1934
 5069TIP3    H236623   6.165   5.046  11.547 -1.1515  1.4997 -1.2025
 5070TIP3   OH236624   0.395   1.614  10.313  0.0581 -0.3672  0.7079
 5070TIP3    H136625   0.364   1.677  10.378 -3.0038 -2.2415  1.2638
 5070TIP3    H236626   0.363   1.529  10.345 -0.2928 -1.5592 -2.4805
 5071TIP3   OH236627   3.794   1.022  12.298  0.4814  0.0374  0.0082
 5071TIP3    H136628   3.847   1.027  12.219 -0.5075 -1.2613 -0.7841
 5071TIP3    H236629   3.773   1.113  12.319  2.6377  0.5696  0.1383
 5072TIP3   OH236630   1.947   6.477  11.914 -0.1786 -0.2253 -0.3588
 5072TIP3    H136631   1.941   6.572  11.902  1.4824  0.0906  0.8494
 5072TIP3    H236632   1.869   6.442  11.872 -1.8278  1.8154  0.7927
 5073TIP3   OH236633   2.977   4.360  14.880  0.3604  0.0469  0.2197
 5073TIP3    H136634   2.906   4.373  14.942  0.0593 -0.5056  0.0015
 5073TIP3    H236635   2.953   4.281  14.832  0.5077  0.5372 -0.7043
 5074TIP3   OH236636   4.143   2.342   0.104 -0.1541 -0.0298  0.2197
 5074TIP3    H136637   4.217   2.400   0.124  0.1647 -0.3707  0.0407
 5074TIP3    H236638   4.144   2.277   0.174  0.3908 -0.6746 -0.3748
 5075TIP3   OH236639   3.692   6.413   2.501 -0.3946  0.0773 -0.9354
 5075TIP3    H136640   3.727   6.427   2.589  0.8593  1.4431 -1.6167
 5075TIP3    H236641   3.710   6.320   2.483  0.3578  0.0673 -0.1834
 5076TIP3   OH236642   1.100   3.992  12.268 -0.4345  0.0115  0.0276
 5076TIP3    H136643   1.046   4.037  12.333 -1.3965 -0.2015 -0.6109
 5076TIP3    H236644   1.066   4.021  12.184  1.1251  0.6712 -0.4158
 5077TIP3   OH236645   1.093   3.632  15.502 -0.2700 -0.4679 -0.5611
 5077TIP3    H136646   1.056   3.550  15.469  1.2842 -0.9241 -1.2752
 5077TIP3    H236647   1.026   3.667  15.561 -0.7676 -2.5198  0.1880
 5078TIP3   OH236648   6.575   2.497  12.863  0.1683 -0.8644 -0.6857
 5078TIP3    H136649   6.587   2.472  12.954  1.0730 -0.2266 -0.6221
 5078TIP3    H236650   6.582   2.593  12.863 -1.7557 -0.6632 -1.1375
 5079TIP3   OH236651   0.646   2.491  11.316  0.0478  0.0721  0.4227
 5079TIP3    H136652   0.654   2.404  11.275 -0.6438  0.1041  0.2013
 5079TIP3    H236653   0.670   2.552  11.246 -1.3448  0.1368 -0.0322
 5080TIP3   OH236654   4.957   0.544   5.150  0.2240  0.3031  0.6343
 5080TIP3    H136655   5.050   0.566   5.154  0.9817 -2.6996  1.9021
 5080TIP3    H236656   4.925   0.557   5.240 -0.9661  2.4775 -0.0268
 5081TIP3   OH236657   3.146   0.433  13.226  0.5172  0.1452 -0.3317
 5081TIP3    H136658   3.076   0.372  13.251  0.8934 -0.0967  0.1391
 5081TIP3    H236659   3.202   0.382  13.167 -0.1322  0.5834 -1.3577
 5082TIP3   OH236660   0.368   0.426  11.943 -0.7690 -0.4000 -0.5578
 5082TIP3    H136661   0.372   0.502  11.884 -0.3389 -0.7903 -1.0506
 5082TIP3    H236662   0.457   0.389  11.939 -0.5330 -0.0201  0.9051
 5083TIP3   OH236663   4.208   1.178   2.659  0.1954 -0.2553  0.3446
 5083TIP3    H136664   4.239   1.123   2.731  0.5887 -1.0213 -0.4028
 5083TIP3    H236665   4.188   1.117   2.588 -2.0973  0.2690  0.4391
 5084TIP3   OH236666   3.694   6.426  16.720  0.0770  0.2684 -0.0035
 5084TIP3    H136667   3.662   6.512  16.750  0.9634  0.3528  0.7473
 5084TIP3    H236668   3.617   6.386  16.679 -0.0852  1.8489 -1.3769
 5085TIP3   OH236669   2.407   2.678   0.183  0.0911 -0.0206 -0.2476
 5085TIP3    H136670   2.368   2.722   0.259  1.2449  0.3949  0.1430
 5085TIP3    H236671   2.380   2.587   0.191  0.5631 -0.0779  0.9476
 5086TIP3   OH236672   0.248   6.596  14.144  0.2403 -0.2316 -0.5490
 5086TIP3    H136673   0.209   6.581  14.230 -0.0908  0.7253 -0.5158
 5086TIP3    H236674   0.262   6.508  14.108 -0.4638 -0.6288  0.1061
 5087TIP3   OH236675   3.218   5.904  13.246  0.2936 -0.8018 -0.0743
 5087TIP3    H136676   3.288   5.862  13.195  0.2541  0.2759 -1.0350
 5087TIP3    H236677   3.140   5.894  13.192  0.0609 -0.4509  0.1985
 5088TIP3   OH236678   1.861   5.361   4.422  0.5233 -0.1866 -0.0008
 5088TIP3    H136679   1.852   5.368   4.517  1.2010 -0.3196  0.0762
 5088TIP3    H236680   1.927   5.426   4.399  1.5286 -1.2551 -0.1824
 5089TIP3   OH236681   3.144   3.416   2.872  0.1397 -0.0580 -0.4229
 5089TIP3    H136682   3.191   3.486   2.918  1.5651 -0.1809 -1.6138
 5089TIP3    H236683   3.150   3.341   2.930  0.1649  0.3167  0.0691
 5090TIP3   OH236684   0.340   6.174   3.002  0.4735 -0.2382 -0.1391
 5090TIP3    H136685   0.338   6.082   2.974  1.9098  0.1388 -1.6459
 5090TIP3    H236686   0.348   6.223   2.920 -0.1373  1.2441  0.6578
 5091TIP3   OH236687   1.924   3.490   0.997 -0.4112  0.8272 -0.3583
 5091TIP3    H136688   1.935   3.563   1.058 -0.3158  0.3220  0.2395
 5091TIP3    H236689   1.911   3.531   0.912 -2.6720  1.6112  0.2963
 5092TIP3   OH236690   1.635   3.195  17.331  0.7168  0.2293 -0.3594
 5092TIP3    H136691   1.704   3.130  17.317 -1.2726 -1.6458 -2.1893
 5092TIP3    H236692   1.622   3.235  17.245 -0.7566  0.2063 -0.1698
 5093TIP3   OH236693   2.915   0.714  12.385 -0.2317  0.1556 -0.1093
 5093TIP3    H136694   2.848   0.776  12.415 -0.0324  0.6278 -0.6462
 5093TIP3    H236695   2.956   0.684  12.466 -0.2163  0.8463  0.1450
 5094TIP3   OH236696   6.086   0.703   5.503 -0.4132 -0.9630 -0.3375
 5094TIP3    H136697   6.104   0.756   5.425  0.5518 -3.5811 -1.9959
 5094TIP3    H236698   6.168   0.705   5.553 -0.6030 -0.3825 -0.0333
 5095TIP3   OH236699   5.924   2.043  12.794  0.1178 -0.2605  0.0939
 5095TIP3    H136700   5.919   2.125  12.746 -2.7707 -0.6253 -0.3955
 5095TIP3    H236701   5.877   2.060  12.876  0.6158 -1.0621  0.5599
 5096TIP3   OH236702   5.685   0.258   5.641 -0.2926  0.3122  0.6044
 5096TIP3    H136703   5.596   0.294   5.630 -1.3702 -2.2924  0.1456
 5096TIP3    H236704   5.702   0.266   5.735 -0.6206  1.5975  0.5835
 5097TIP3   OH236705   5.547   2.009   3.418  0.0666  0.3702  0.4948
 5097TIP3    H136706   5.593   2.080   3.463  0.7057  1.1394 -1.2993
 5097TIP3    H236707   5.484   1.976   3.483  0.8674  1.4984  1.8859
 5098TIP3   OH236708   1.609   6.134   1.755 -0.2367 -0.5210  0.5921
 5098TIP3    H136709   1.664   6.078   1.699  0.1240  0.3941  0.0043
 5098TIP3    H236710   1.666   6.206   1.780 -0.0558 -1.4415  3.0763
 5099TIP3   OH236711   1.236   0.827   4.613 -0.4887 -0.3545  0.4956
 5099TIP3    H136712   1.283   0.779   4.545 -1.3213  0.2587 -0.5383
 5099TIP3    H236713   1.306   0.865   4.667  0.1951 -0.6463 -0.1621
 5100TIP3   OH236714   4.977   5.839   5.074  0.3732 -0.4616 -0.1239
 5100TIP3    H136715   5.064   5.812   5.042  0.1998 -2.2989  0.7887
 5100TIP3    H236716   4.987   5.841   5.169 -1.1840 -3.4524  0.2425
 5101TIP3   OH236717   2.808   2.724  14.702  0.1971 -0.3167  0.5193
 5101TIP3    H136718   2.728   2.735  14.651  1.4484  2.9963 -1.0371
 5101TIP3    H236719   2.877   2.720  14.636  1.5422 -0.1457  1.8632
 5102TIP3   OH236720   0.932   4.466  17.436  0.0428 -0.0064 -0.3032
 5102TIP3    H136721   0.896   4.399  17.378 -0.6793  0.9670 -0.9995
 5102TIP3    H236722   0.926   4.548  17.386  0.4776  0.6611  0.7033
 5103TIP3   OH236723   6.035   5.579  16.537  0.1330 -0.0738  0.2310
 5103TIP3    H136724   6.039   5.660  16.588 -0.2518  0.3743 -0.4334
 5103TIP3    H236725   6.099   5.522  16.578  1.2590  0.9758  0.0136
 5104TIP3   OH236726   1.990   0.113  16.116 -0.1576 -0.5139  0.4689
 5104TIP3    H136727   1.985   0.023  16.085 -0.6976 -0.0023 -1.0254
 5104TIP3    H236728   1.983   0.166  16.036  0.6552  0.8436  1.2615
 5105TIP3   OH236729   3.605   1.246  14.489  0.4304  0.6168  0.4262
 5105TIP3    H136730   3.649   1.161  14.491 -0.2159  0.2671  2.9082
 5105TIP3    H236731   3.541   1.238  14.418  1.2608 -0.5013 -0.2228
 5106TIP3   OH236732   6.327   3.738  12.295 -0.1473  0.3243 -0.5886
 5106TIP3    H136733   6.383   3.672  12.336  2.6844  2.1302 -1.3022
 5106TIP3    H236734   6.273   3.772  12.367  0.3368 -0.8095  0.3360
 5107TIP3   OH236735   6.402   1.087   5.052 -0.1171 -0.0369 -0.0546
 5107TIP3    H136736   6.380   1.101   4.960  1.5092 -0.6454 -0.5708
 5107TIP3    H236737   6.388   0.993   5.067  1.6032 -0.3475 -0.2764
 5108TIP3   OH236738   5.919   2.920   1.650  0.6189 -0.3502  0.0296
 5108TIP3    H136739   5.946   2.952   1.736  0.1386  1.5300 -0.4640
 5108TIP3    H236740   5.836   2.965   1.633 -0.6353 -2.6634 -0.3338
 5109TIP3   OH236741   0.610   2.444   1.582  0.2731 -0.1067 -0.2052
 5109TIP3    H136742   0.684   2.389   1.609  0.0779  0.1858  1.0016
 5109TIP3    H236743   0.536   2.383   1.576  0.1134 -0.0559  0.8846
 5110TIP3   OH236744   5.393   4.575   4.517  0.3394  0.1306 -0.4789
 5110TIP3    H136745   5.382   4.503   4.455  0.1964 -0.8794  0.6780
 5110TIP3    H236746   5.488   4.583   4.528  0.4112  0.9479 -1.5116
 5111TIP3   OH236747   2.695   0.782  13.852 -0.7843  0.4152  0.4528
 5111TIP3    H136748   2.778   0.753  13.816  0.3278  0.6846  2.6644
 5111TIP3    H236749   2.629   0.730  13.806  0.6576 -0.5125 -0.6252
 5112TIP3   OH236750   3.560   3.486   1.927  0.2956 -0.0506 -0.2362
 5112TIP3    H136751   3.518   3.474   2.012  0.6858 -0.1813 -0.0619
 5112TIP3    H236752   3.528   3.572   1.897  1.4863  0.7960  0.8222
 5113TIP3   OH236753   4.989   2.347   0.068 -0.5471 -0.7844  0.3024
 5113TIP3    H136754   5.049   2.289   0.116  1.7897  1.1128 -0.0828
 5113TIP3    H236755   4.998   2.320  -0.023 -0.2371 -0.4858  0.2422
 5114TIP3   OH236756   1.987   4.276  14.956  0.2593 -0.2404  0.0424
 5114TIP3    H136757   2.036   4.348  14.996  0.3200 -0.4474  0.3413
 5114TIP3    H236758   2.006   4.284  14.862  1.2116 -0.5679  0.1925
 5115TIP3   OH236759   2.349   3.206  11.290 -0.2247  0.2307  0.2528
 5115TIP3    H136760   2.381   3.184  11.378  2.0439 -0.1912 -0.6168
 5115TIP3    H236761   2.357   3.124  11.241 -0.0418  0.8320 -0.7375
 5116TIP3   OH236762   4.953   3.895   1.075 -0.2288  0.4954  0.1599
 5116TIP3    H136763   4.990   3.846   1.001  0.1508  0.7592  0.1766
 5116TIP3    H236764   4.878   3.842   1.103 -0.8458  0.7701 -0.8984
 5117TIP3   OH236765   1.524   2.756   3.439 -0.1791 -0.4719 -0.0916
 5117TIP3    H136766   1.565   2.798   3.515  0.5755 -0.9457 -0.2382
 5117TIP3    H236767   1.431   2.752   3.462  0.0249 -0.4977  0.7532
 5118TIP3   OH236768   1.248   2.071  17.428 -0.1510  0.0502  0.4255
 5118TIP3    H136769   1.267   2.082  17.521 -1.1056  1.5242  0.4886
 5118TIP3    H236770   1.170   2.124  17.414  0.2577  0.2369 -1.3119
 5119TIP3   OH236771   2.122   1.130  15.875 -0.2697 -0.5017  0.8011
 5119TIP3    H136772   2.036   1.171  15.865  0.2709  0.4468 -0.2726
 5119TIP3    H236773   2.159   1.170  15.954 -0.2180  0.2474  0.4096
 5120TIP3   OH236774   4.093   4.392   2.046  0.9735 -0.1325 -0.0121
 5120TIP3    H136775   4.072   4.358   2.133 -2.6826  0.4572 -0.4902
 5120TIP3    H236776   4.110   4.314   1.993  1.2185 -0.6302  0.7841
 5121TIP3   OH236777   0.510   0.015   6.441 -0.3511 -0.1547  0.2470
 5121TIP3    H136778   0.520  -0.068   6.488 -1.4216 -0.0286  0.7294
 5121TIP3    H236779   0.428   0.005   6.393 -0.0508  0.3096 -0.3639
 5122TIP3   OH236780   1.001   4.706  15.393 -0.8283  0.7703 -0.1269
 5122TIP3    H136781   0.972   4.679  15.306 -1.5295 -0.8736  0.5724
 5122TIP3    H236782   1.082   4.657  15.407 -2.9028 -2.5068  1.7742
 5123TIP3   OH236783   5.000   0.347   3.623  0.5374  0.5945 -0.1441
 5123TIP3    H136784   5.061   0.303   3.681  0.3662 -1.3200 -1.3353
 5123TIP3    H236785   4.983   0.431   3.665  1.8311  0.0318  1.6003
 5124TIP3   OH236786   4.243   2.668  17.328 -0.3488 -0.0129 -0.4467
 5124TIP3    H136787   4.197   2.701  17.405 -0.9484 -0.2370 -0.7074
 5124TIP3    H236788   4.187   2.599  17.294  0.2897 -0.4475 -0.6400
 5125TIP3   OH236789   5.293   1.575   4.807  0.2577 -0.0702 -0.4587
 5125TIP3    H136790   5.238   1.536   4.875 -0.9776  3.1447  0.5227
 5125TIP3    H236791   5.380   1.580   4.846 -0.1648  0.5770  0.4279
 5126TIP3   OH236792   5.521   2.442   3.820 -0.3851 -0.2915  0.5992
 5126TIP3    H136793   5.568   2.419   3.740  0.5126  0.2060  0.9649
 5126TIP3    H236794   5.548   2.375   3.883 -1.3679 -0.8899  0.3984
 5127TIP3   OH236795   3.654   0.492  13.670 -0.1245 -0.1097 -0.1180
 5127TIP3    H136796   3.662   0.397  13.685  1.1916  0.0164  0.1340
 5127TIP3    H236797   3.745   0.523  13.670 -0.6052  1.5381  2.1708
 5128TIP3   OH236798   0.124   1.310   2.132  0.1200  0.6144  0.9616
 5128TIP3    H136799   0.169   1.388   2.165  1.4056  0.4867 -0.3535
 5128TIP3    H236800   0.116   1.326   2.038 -1.5486  0.0745  0.9792
 5129TIP3   OH236801   2.413   6.011   5.218 -0.0457 -0.2655  0.2129
 5129TIP3    H136802   2.431   6.087   5.273 -1.4511 -0.7505  1.3996
 5129TIP3    H236803   2.322   5.988   5.237 -0.1214 -1.3477 -1.2378
 5130TIP3   OH236804   1.754   0.525  13.135  0.7384 -0.3864  0.4848
 5130TIP3    H136805   1.660   0.516  13.121  1.2334 -1.9948 -2.9072
 5130TIP3    H236806   1.770   0.619  13.132 -0.6542 -0.1389  0.1979
 5131TIP3   OH236807   5.450   5.841   3.353  0.3941 -0.1638  0.3693
 5131TIP3    H136808   5.424   5.885   3.272 -0.1648  1.3567  1.3424
 5131TIP3    H236809   5.367   5.817   3.395  0.6568 -2.8908 -0.4610
 5132TIP3   OH236810   5.844   5.877   5.563 -0.3688 -0.0683  0.1720
 5132TIP3    H136811   5.828   5.971   5.577  2.1324  0.6829 -1.2957
 5132TIP3    H236812   5.830   5.838   5.649 -0.8053  1.7741  0.9981
 5133TIP3   OH236813   5.243   2.913   1.326  0.0684 -0.3840 -0.1431
 5133TIP3    H136814   5.327   2.957   1.310 -0.2356  0.2560 -0.0142
 5133TIP3    H236815   5.246   2.835   1.271  0.0558  0.5079 -1.4521
 5134TIP3   OH236816   5.438   2.741   5.144  0.1344  0.5050 -0.3852
 5134TIP3    H136817   5.400   2.775   5.062 -1.7306  0.7774  0.5380
 5134TIP3    H236818   5.445   2.647   5.130 -1.0749  0.4244 -0.5372
 5135TIP3   OH236819   2.404   2.017   5.004  0.1529  0.1026 -0.2219
 5135TIP3    H136820   2.475   2.080   5.013 -0.0045  0.6563 -2.2156
 5135TIP3    H236821   2.446   1.931   5.008  0.7558  0.3955 -0.1505
 5136TIP3   OH236822   6.092   4.235  12.576  0.3396  0.1105  0.0388
 5136TIP3    H136823   6.005   4.270  12.597  1.5846  2.2028  2.1808
 5136TIP3    H236824   6.104   4.254  12.483 -1.7306 -0.8908 -0.4873
 5137TIP3   OH236825   3.452   5.971  11.844  0.2475  0.4361  1.0529
 5137TIP3    H136826   3.469   5.990  11.752 -0.2032  0.3100  0.9403
 5137TIP3    H236827   3.525   6.010  11.891  0.2571  0.8721  0.6753
 5138TIP3   OH236828   4.755   3.993   0.073 -0.5041  0.7978 -0.2609
 5138TIP3    H136829   4.818   3.921   0.074 -0.5201  0.7399 -1.4060
 5138TIP3    H236830   4.697   3.972  -0.001 -0.6316  1.8716 -0.4757
 5139TIP3   OH236831   5.693   5.513  17.199  0.0731  0.4010 -0.2372
 5139TIP3    H136832   5.622   5.492  17.139  1.9224  0.9406 -2.7779
 5139TIP3    H236833   5.702   5.435  17.254 -0.8511 -0.6584 -1.5255
 5140TIP3   OH236834   4.074   2.601   0.352  0.1175 -0.1924  0.2426
 5140TIP3    H136835   4.020   2.646   0.418 -0.6307 -1.3134  0.4309
 5140TIP3    H236836   4.011   2.567   0.288  0.6091 -1.2123  0.2671
 5141TIP3   OH236837   1.565   4.988  14.883 -0.2201  0.1232  0.0294
 5141TIP3    H136838   1.538   5.073  14.917 -0.3578  0.0398  0.1300
 5141TIP3    H236839   1.620   4.951  14.952 -0.1716  0.1256 -0.0086
 5142TIP3   OH236840   5.478   6.103  13.191  0.3576 -0.0807  0.3280
 5142TIP3    H136841   5.420   6.038  13.151  0.2593 -0.1049  0.5085
 5142TIP3    H236842   5.537   6.129  13.120  0.1215 -0.0504  0.1392
 5143TIP3   OH236843   4.655   2.784  17.395  0.0893  0.5092  0.1929
 5143TIP3    H136844   4.678   2.718  17.330 -0.6954  0.0965  0.3172
 5143TIP3    H236845   4.566   2.812  17.370  0.6597  2.0126 -0.2508
 5144TIP3   OH236846   0.595   3.762   6.445  0.0523 -0.1790  0.2358
 5144TIP3    H136847   0.507   3.747   6.411  0.3014 -1.1816  0.0060
 5144TIP3    H236848   0.607   3.696   6.513  0.3526  0.4405  0.7958
 5145TIP3   OH236849   4.067   1.763  15.121 -0.3079  0.2840  0.9655
 5145TIP3    H136850   4.138   1.705  15.092 -2.1098 -2.2001  1.1510
 5145TIP3    H236851   4.010   1.771  15.044 -1.9097 -1.2467  1.8995
 5146TIP3   OH236852   4.318   3.986   3.750  0.0847  0.8464 -0.1080
 5146TIP3    H136853   4.393   4.000   3.808  0.5725 -0.1391 -0.4791
 5146TIP3    H236854   4.353   3.932   3.679 -0.8908  0.7080 -0.4928
 5147TIP3   OH236855   2.168   5.822   3.284  0.0290  0.6590  0.9023
 5147TIP3    H136856   2.129   5.750   3.236 -0.8160  1.2997  0.6064
 5147TIP3    H236857   2.204   5.880   3.217  0.1853  0.8044  1.1087
 5148TIP3   OH236858   1.601   0.037  15.914  0.6559 -0.1175 -0.0149
 5148TIP3    H136859   1.616  -0.054  15.888 -0.0473  0.3598 -2.3494
 5148TIP3    H236860   1.599   0.086  15.831 -0.5205  1.7942  1.0539
 5149TIP3   OH236861   4.359   4.935   6.366  0.4937 -0.5156 -1.2837
 5149TIP3    H136862   4.329   4.945   6.275  0.8313 -0.6376 -1.4123
 5149TIP3    H236863   4.421   5.007   6.379 -2.2446  1.7607  0.0351
 5150TIP3   OH236864   3.914   1.138   1.898  0.0327  0.1521 -0.1273
 5150TIP3    H136865   4.008   1.120   1.893  0.1676  0.8936 -0.4165
 5150TIP3    H236866   3.897   1.147   1.992  0.1559 -0.4349 -0.0434
 5151TIP3   OH236867   0.962   5.196   4.828 -0.4021 -0.8283 -0.1121
 5151TIP3    H136868   0.934   5.172   4.740  0.2275 -1.1000 -0.2482
 5151TIP3    H236869   0.953   5.291   4.831 -0.5825 -0.8352 -0.4139
 5152TIP3   OH236870   0.448   5.998  12.514 -0.1833  0.2393  0.1182
 5152TIP3    H136871   0.390   5.978  12.440 -1.3530  1.0306  0.7770
 5152TIP3    H236872   0.416   6.082  12.547  0.5977  0.1118  1.2498
 5153TIP3   OH236873   3.406   6.181   4.206 -0.3020 -0.2528 -0.7892
 5153TIP3    H136874   3.487   6.182   4.155  0.3071  0.1907  0.1556
 5153TIP3    H236875   3.371   6.270   4.197 -0.0811 -0.1116 -0.2689
 5154TIP3   OH236876   6.116   2.669  16.877 -0.5045 -0.5391 -0.2876
 5154TIP3    H136877   6.021   2.667  16.887 -0.5179 -0.8280 -0.4483
 5154TIP3    H236878   6.150   2.668  16.967 -0.6405 -1.6131 -0.2325
 5155TIP3   OH236879   1.120   4.585  12.146  0.0835 -0.3513  0.0689
 5155TIP3    H136880   1.076   4.579  12.061  1.6835  0.0165 -0.8085
 5155TIP3    H236881   1.056   4.629  12.203 -0.9393 -0.4563 -0.9662
 5156TIP3   OH236882   6.540   4.324   2.552  0.1537  0.3332 -0.1416
 5156TIP3    H136883   6.615   4.381   2.535  0.6464 -0.7790 -1.9746
 5156TIP3    H236884   6.579   4.239   2.572 -0.6029 -0.1504 -0.6756
 5157TIP3   OH236885   3.915   5.820   5.845  0.1020  0.1268 -0.7524
 5157TIP3    H136886   3.842   5.777   5.889 -0.3290  0.4102 -1.1728
 5157TIP3    H236887   3.993   5.790   5.892 -0.3832  1.0145  0.6969
 5158TIP3   OH236888   5.265   2.011   2.234  0.3904  0.4918 -0.5048
 5158TIP3    H136889   5.292   1.920   2.221 -0.1284  0.3388 -0.5441
 5158TIP3    H236890   5.258   2.046   2.146 -1.8957 -0.1809 -0.6563
 5159TIP3   OH236891   5.845   0.224   0.387  0.1602  0.5831 -0.8041
 5159TIP3    H136892   5.810   0.231   0.476  1.7528 -0.7765 -0.0045
 5159TIP3    H236893   5.846   0.314   0.354 -1.5549  0.9648  0.0877
 5160TIP3   OH236894   6.518   0.817  17.032  0.0878  0.0794 -0.2651
 5160TIP3    H136895   6.433   0.828  17.075  0.4269  0.8158  0.2306
 5160TIP3    H236896   6.567   0.897  17.054  1.3177 -0.8170  0.4051
 5161TIP3   OH236897   6.458   4.761   5.420  0.3863  0.1582  0.3126
 5161TIP3    H136898   6.515   4.829   5.384 -0.9537 -0.0789 -2.5127
 5161TIP3    H236899   6.373   4.778   5.381 -0.4102 -2.1030  0.9219
 5162TIP3   OH236900   4.971   3.693  14.124  0.3526  0.3593 -0.2679
 5162TIP3    H136901   4.989   3.614  14.176 -1.5016  1.4200  2.1413
 5162TIP3    H236902   5.011   3.764  14.174 -2.0851  1.5077  0.1862
 5163TIP3   OH236903   0.507   1.058  14.393  0.1214  0.5423  0.4110
 5163TIP3    H136904   0.477   1.010  14.469  0.2824  0.4607  0.4230
 5163TIP3    H236905   0.457   1.140  14.395  1.1939  1.2087  1.4485
 5164TIP3   OH236906   5.012   1.717   1.043 -0.2813 -0.2232 -0.3419
 5164TIP3    H136907   5.098   1.752   1.067 -0.6704  0.2354  0.4055
 5164TIP3    H236908   4.968   1.789   0.998 -0.8268  0.0601  0.6036
 5165TIP3   OH236909   6.695   3.334  16.653  0.1988 -0.2685 -0.0414
 5165TIP3    H136910   6.704   3.240  16.669  1.0571 -0.2929 -0.5894
 5165TIP3    H236911   6.779   3.360  16.615 -0.5408  0.4455 -1.2541
 5166TIP3   OH236912   5.762   4.535  12.639 -0.4307 -0.2728 -0.3822
 5166TIP3    H136913   5.678   4.515  12.679 -0.0037 -2.0459 -0.2748
 5166TIP3    H236914   5.789   4.453  12.598  1.3181  0.2082 -0.2688
 5167TIP3   OH236915   4.398   5.718   3.053 -0.2479  0.2893 -0.4748
 5167TIP3    H136916   4.413   5.626   3.030  2.1002  0.1289  1.3206
 5167TIP3    H236917   4.337   5.713   3.127  1.9095 -0.1238  1.3985
 5168TIP3   OH236918   1.286   0.216  12.141  0.0307 -0.0331  0.3866
 5168TIP3    H136919   1.365   0.163  12.147  0.4553  0.4624 -0.6308
 5168TIP3    H236920   1.304   0.279  12.071 -1.0878  0.3807  0.4459
 5169TIP3   OH236921   5.081   3.552   0.193  0.3844  0.0589  0.2263
 5169TIP3    H136922   5.101   3.460   0.209  0.7445  0.1887  0.5368
 5169TIP3    H236923   5.025   3.578   0.265  2.0038  0.6408  1.3239
 5170TIP3   OH236924   4.120   1.864  10.850 -0.0924  0.5668  0.2697
 5170TIP3    H136925   4.135   1.777  10.888  0.5488  0.7839  0.5156
 5170TIP3    H236926   4.203   1.909  10.858 -0.7285  1.6190  1.2104
 5171TIP3   OH236927   5.212   2.598   6.208  0.3166 -0.4145 -0.5886
 5171TIP3    H136928   5.140   2.641   6.161 -0.1160  0.8258  1.1108
 5171TIP3    H236929   5.172   2.564   6.287  1.7152  1.2378  0.9246
 5172TIP3   OH236930   6.193   4.462   4.051  0.3899  0.2709 -0.2888
 5172TIP3    H136931   6.167   4.375   4.021 -0.1907 -0.2625  1.6191
 5172TIP3    H236932   6.111   4.508   4.068  0.6813  0.5559  0.4094
 5173TIP3   OH236933   4.182   1.617  14.570 -0.2933 -0.4017  0.3822
 5173TIP3    H136934   4.108   1.588  14.622 -2.0205  0.2294 -1.5813
 5173TIP3    H236935   4.204   1.542  14.515 -0.6383 -0.0487 -0.2545
 5174TIP3   OH236936   0.433   1.478  12.911  0.2284  0.3255 -0.5236
 5174TIP3    H136937   0.430   1.532  12.990  0.5621  0.4075 -0.5631
 5174TIP3    H236938   0.505   1.416  12.926  0.4651  0.5093 -0.8640
 5175TIP3   OH236939   2.875   6.052   1.679  0.3997  0.0036 -0.3581
 5175TIP3    H136940   2.932   5.985   1.642 -2.6187 -2.4135 -1.0078
 5175TIP3    H236941   2.809   6.068   1.612 -0.3546  1.9074  0.7376
 5176TIP3   OH236942   4.193   6.685  11.913 -0.0430  0.0313 -0.2389
 5176TIP3    H136943   4.266   6.638  11.954 -0.5126  0.4965  1.1900
 5176TIP3    H236944   4.225   6.707  11.826  2.7661  2.9275  1.3359
 5177TIP3   OH236945   3.876   5.356   1.665 -0.1885 -0.1532  0.1408
 5177TIP3    H136946   3.847   5.308   1.743  2.2950  1.9292  2.5460
 5177TIP3    H236947   3.911   5.288   1.607 -1.9120 -1.7492  0.8708
 5178TIP3   OH236948   0.595   2.984   5.219  0.0893 -0.3638 -0.0170
 5178TIP3    H136949   0.513   3.021   5.188 -0.6636 -0.9127  1.2478
 5178TIP3    H236950   0.594   2.998   5.314  1.2956 -0.6971  0.0672
 5179TIP3   OH236951   6.527   6.562   1.506  0.5416 -0.0502 -0.4976
 5179TIP3    H136952   6.437   6.534   1.489  0.2585  0.2030  0.5135
 5179TIP3    H236953   6.574   6.481   1.527 -0.1591  0.0863  1.9141
 5180TIP3   OH236954   2.762   5.955  12.334  0.3998  0.6290 -0.0935
 5180TIP3    H136955   2.747   5.994  12.248 -0.6057  0.0198 -0.2137
 5180TIP3    H236956   2.769   6.030  12.394  1.9372  1.0791 -0.8108
 5181TIP3   OH236957   0.518   5.046   1.950  0.2972 -0.2566 -0.2540
 5181TIP3    H136958   0.560   5.060   1.865 -0.2457  0.6318 -0.3876
 5181TIP3    H236959   0.549   5.118   2.005 -0.6300  0.1165 -0.2005
 5182TIP3   OH236960   3.923   6.095  16.903 -0.4299  0.5974 -0.3348
 5182TIP3    H136961   3.936   6.189  16.909 -1.8848  0.8249 -0.2405
 5182TIP3    H236962   3.830   6.083  16.922 -0.4490 -0.7771 -1.1481
 5183TIP3   OH236963   2.834   4.115   1.369  0.0625  0.5319  0.0606
 5183TIP3    H136964   2.806   4.202   1.343  1.5604  0.7660 -0.9152
 5183TIP3    H236965   2.837   4.065   1.288 -0.6041 -0.3918  0.5832
 5184TIP3   OH236966   0.788   2.789  10.576  0.0170  0.3959  0.0776
 5184TIP3    H136967   0.712   2.736  10.599  0.7523 -0.4247  0.7046
 5184TIP3    H236968   0.781   2.867  10.631 -0.1013  0.0769  0.5190
 5185TIP3   OH236969   0.120   3.929  16.326 -0.0146 -0.0890 -0.3167
 5185TIP3    H136970   0.089   4.000  16.381  0.9913 -1.2743  1.9320
 5185TIP3    H236971   0.214   3.923  16.345  0.1004 -1.4258 -1.1302
 5186TIP3   OH236972   1.299   3.617   3.120 -0.0545  0.1808 -0.1938
 5186TIP3    H136973   1.302   3.703   3.162  0.1917 -0.4415  1.1008
 5186TIP3    H236974   1.215   3.616   3.073 -0.6032  0.6837  0.7486
 5187TIP3   OH236975   5.418   5.864   2.881  0.2180 -0.3254  0.3672
 5187TIP3    H136976   5.459   5.845   2.966 -0.7885 -0.1498  0.9133
 5187TIP3    H236977   5.325   5.873   2.902  0.1817  1.6199 -0.4405
 5188TIP3   OH236978   6.231   6.618  11.995 -0.3378 -0.1843  0.6601
 5188TIP3    H136979   6.141   6.615  12.030 -1.2681  0.9298 -1.4333
 5188TIP3    H236980   6.224   6.578  11.908  1.4239 -0.9252  0.8247
 5189TIP3   OH236981   4.270   5.867  10.796  0.0411 -0.3461  0.0846
 5189TIP3    H136982   4.329   5.796  10.822  0.6539  0.8442  2.1197
 5189TIP3    H236983   4.307   5.899  10.713  0.7082 -1.3258 -0.0128
 5190TIP3   OH236984   5.936   2.697   2.297 -0.5242 -0.2364  0.1584
 5190TIP3    H136985   5.853   2.649   2.289 -1.3115  1.1162 -0.0980
 5190TIP3    H236986   5.998   2.632   2.330 -1.9037 -1.0620  1.2458
 5191TIP3   OH236987   4.055   3.803   1.759  0.2898  0.4191 -0.0531
 5191TIP3    H136988   3.975   3.771   1.800 -0.0695  2.2478  0.7594
 5191TIP3    H236989   4.026   3.845   1.678  0.2779  1.8324  0.6514
 5192TIP3   OH236990   0.407   3.997   5.798  0.2699  0.1038  0.4137
 5192TIP3    H136991   0.498   3.996   5.769  0.1442  1.9607 -0.2185
 5192TIP3    H236992   0.377   4.085   5.776 -1.7868 -0.5856  0.2806
 5193TIP3   OH236993   2.150   5.413  17.093 -0.4919 -0.0001 -0.0607
 5193TIP3    H136994   2.144   5.453  17.007  0.0637 -0.6557 -0.4136
 5193TIP3    H236995   2.093   5.466  17.149 -0.8391  0.4363 -0.8239
 5194TIP3   OH236996   6.132   5.088   3.648  0.2511  0.2718  0.0135
 5194TIP3    H136997   6.114   5.102   3.555 -1.6120  0.8821  0.4312
 5194TIP3    H236998   6.193   5.158   3.672 -0.4795  1.0628 -0.4082
 5195TIP3   OH236999   5.806   0.828  12.625 -0.2042 -0.2268  0.0787
 5195TIP3    H137000   5.810   0.756  12.688  0.0868 -0.7894 -0.5617
 5195TIP3    H237001   5.716   0.859  12.629  0.0280  0.3511  1.4123
 5196TIP3   OH237002   1.882   4.783   6.103 -0.0589 -0.2611 -0.0168
 5196TIP3    H137003   1.815   4.852   6.100 -0.9249 -1.0884 -0.1847
 5196TIP3    H237004   1.955   4.823   6.151 -0.3602  0.9182 -0.4955
 5197TIP3   OH237005   2.687   5.402   5.676  0.3626 -0.0993 -0.0859
 5197TIP3    H137006   2.632   5.362   5.744  1.5180 -0.6791  0.5308
 5197TIP3    H237007   2.757   5.338   5.661 -0.1300 -0.2380 -2.2193
 5198TIP3   OH237008   5.373   2.314  14.783  0.4972  0.1413  0.0815
 5198TIP3    H137009   5.439   2.266  14.733 -1.1863 -1.2505 -0.9012
 5198TIP3    H237010   5.295   2.313  14.728 -0.5517  1.1804  1.4690
 5199TIP3   OH237011   4.503   5.980   1.341  0.2834  0.4896  0.5074
 5199TIP3    H137012   4.495   5.905   1.399 -1.2252  1.1645  1.2190
 5199TIP3    H237013   4.472   5.948   1.256  2.4141 -0.4721  0.0334
 5200TIP3   OH237014   5.887   2.241   0.801  0.5659  0.0978  0.3653
 5200TIP3    H137015   5.938   2.240   0.719 -1.4306 -0.9532 -0.9439
 5200TIP3    H237016   5.919   2.166   0.850 -0.4208 -1.2315 -0.9477
 5201TIP3   OH237017   0.613   2.555   1.222  0.6082 -0.2110 -0.2522
 5201TIP3    H137018   0.629   2.601   1.305  0.1577  1.4987 -1.0604
 5201TIP3    H237019   0.538   2.498   1.240  0.5151  0.1418  0.5096
 5202TIP3   OH237020   5.008   5.465   1.634  0.4582  0.1176 -0.4106
 5202TIP3    H137021   5.084   5.523   1.632  0.3345  0.2699 -0.7443
 5202TIP3    H237022   4.935   5.521   1.662  0.5548 -0.1314  0.3492
 5203TIP3   OH237023   3.572   2.435  12.196 -0.2738 -0.3598  0.2764
 5203TIP3    H137024   3.553   2.353  12.150 -0.7091 -0.0579 -0.0897
 5203TIP3    H237025   3.614   2.407  12.277  0.3194 -0.9080 -0.2083
 5204TIP3   OH237026   4.343   5.435   3.081 -0.2943  0.2528  0.2271
 5204TIP3    H137027   4.257   5.405   3.050 -0.4738  0.8346  0.1436
 5204TIP3    H237028   4.401   5.360   3.066 -0.2271  0.6987 -2.1207
 5205TIP3   OH237029   4.270   5.349  12.198  0.2468  0.3723 -0.0950
 5205TIP3    H137030   4.286   5.439  12.226 -0.4114  1.0532 -1.8105
 5205TIP3    H237031   4.305   5.344  12.109 -1.2267 -0.5645 -0.6713
 5206TIP3   OH237032   4.684   6.717   5.775  0.4030  0.1732  0.1122
 5206TIP3    H137033   4.730   6.799   5.795  0.6177 -0.4104  2.2281
 5206TIP3    H237034   4.687   6.668   5.857 -0.8167 -1.4337 -0.7708
 5207TIP3   OH237035   4.265   5.510  14.756 -0.0356 -0.2823  0.0486
 5207TIP3    H137036   4.196   5.445  14.753 -1.3518  1.0683 -0.1307
 5207TIP3    H237037   4.274   5.533  14.849  0.1092 -0.3802  0.0598
 5208TIP3   OH237038   6.308   6.358  12.739 -0.3993  0.1437  0.7718
 5208TIP3    H137039   6.343   6.444  12.715  0.5237 -1.0008 -2.4075
 5208TIP3    H237040   6.375   6.296  12.712 -2.2514 -1.7633  0.2715
 5209TIP3   OH237041   3.444   5.647   2.396  0.0989  0.1962 -0.7172
 5209TIP3    H137042   3.392   5.648   2.476 -0.3879 -1.2546 -0.9927
 5209TIP3    H237043   3.422   5.730   2.352 -1.4076 -0.0350 -0.4611
 5210TIP3   OH237044   2.720   5.091  15.879 -0.4007  0.1690 -0.2582
 5210TIP3    H137045   2.628   5.113  15.895 -0.9181 -1.7128 -0.3075
 5210TIP3    H237046   2.720   5.053  15.791  0.7322  1.6197 -0.9147
 5211TIP3   OH237047   5.109   0.020   2.069  0.4913 -0.2211 -0.2872
 5211TIP3    H137048   5.130  -0.073   2.075  1.1051 -0.0676  0.0861
 5211TIP3    H237049   5.120   0.041   1.976 -1.5683 -0.9362 -0.7447
 5212TIP3   OH237050   5.796   3.173   3.340 -0.2833 -0.2106  0.9480
 5212TIP3    H137051   5.889   3.161   3.358  0.0073 -1.3948 -1.0790
 5212TIP3    H237052   5.780   3.266   3.360  1.8007  0.5256 -0.4253
 5213TIP3   OH237053   6.571   6.519   4.658 -0.1857  0.0711 -0.2977
 5213TIP3    H137054   6.596   6.607   4.631 -0.5384  0.2024 -0.2039
 5213TIP3    H237055   6.625   6.501   4.735 -2.3213  1.4734  1.6705
 5214TIP3   OH237056   6.547   5.335  13.057 -0.3778 -0.2350  0.5942
 5214TIP3    H137057   6.520   5.322  12.966 -0.2658  1.1612  0.3517
 5214TIP3    H237058   6.496   5.270  13.106 -0.5868 -0.8686 -0.4327
 5215TIP3   OH237059   4.043   4.774  14.614  0.1292 -0.2277  0.3930
 5215TIP3    H137060   4.051   4.710  14.685 -0.0400 -1.0191 -0.2722
 5215TIP3    H237061   4.026   4.720  14.536  2.4211  0.4196 -0.6596
 5216TIP3   OH237062   6.606   4.070   2.568 -0.2596 -0.1868  0.4944
 5216TIP3    H137063   6.674   4.007   2.544 -0.8609 -0.7464  0.2243
 5216TIP3    H237064   6.524   4.030   2.536 -0.6973  0.5319  0.6971
 5217TIP3   OH237065   2.711   6.572  14.435  0.3582 -0.0496 -0.3665
 5217TIP3    H137066   2.786   6.526  14.396 -0.4600 -0.3305 -1.7008
 5217TIP3    H237067   2.635   6.535  14.389 -0.6487 -0.1750  1.3387
 5218TIP3   OH237068   0.836   0.368   0.285 -0.2786  0.6727  0.4060
 5218TIP3    H137069   0.884   0.404   0.210 -1.2287  0.0816 -0.5282
 5218TIP3    H237070   0.770   0.310   0.245 -0.7025  0.2142  1.7163
 5219TIP3   OH237071   3.296   5.416  16.029  0.3438 -0.3384 -0.2719
 5219TIP3    H137072   3.303   5.510  16.044  2.4172 -0.0966 -2.1981
 5219TIP3    H237073   3.230   5.407  15.960  0.7627 -0.1830 -0.7030
 5220TIP3   OH237074   1.330   3.957   4.790  0.1736  0.3270 -0.4897
 5220TIP3    H137075   1.297   3.933   4.877 -0.2255  0.3983 -0.6189
 5220TIP3    H237076   1.376   4.039   4.804  1.9999 -0.7197  0.0579
 5221TIP3   OH237077   2.433   1.768   4.660  0.3497  0.3682 -0.0396
 5221TIP3    H137078   2.488   1.834   4.617  0.8431 -0.2511 -0.3851
 5221TIP3    H237079   2.345   1.786   4.628 -0.1447  2.9282  2.3797
 5222TIP3   OH237080   3.461   0.726   1.848  0.5240  0.0235  0.1548
 5222TIP3    H137081   3.467   0.761   1.759  0.4032  2.3140  0.9949
 5222TIP3    H237082   3.501   0.639   1.841  0.3869  0.0641 -2.1501
 5223TIP3   OH237083   3.620   5.509   0.026  0.0237 -0.3117  0.3736
 5223TIP3    H137084   3.633   5.601   0.002 -0.9034  0.1539  1.5114
 5223TIP3    H237085   3.700   5.465  -0.002  0.8227  0.9959  0.5057
 5224TIP3   OH237086   5.401   6.421   2.942 -0.5542 -0.3372  0.3416
 5224TIP3    H137087   5.468   6.410   2.875  0.5104 -0.3082  1.3610
 5224TIP3    H237088   5.347   6.342   2.936 -0.5585 -0.2728 -0.6124
 5225TIP3   OH237089   4.471   0.433  13.609 -0.2590  0.1501 -0.3065
 5225TIP3    H137090   4.537   0.376  13.570  0.8476  0.3486  1.2093
 5225TIP3    H237091   4.521   0.493  13.664 -1.7464 -0.1546  1.4604
 5226TIP3   OH237092   0.871   4.079   3.741  0.2378 -0.7981  0.1141
 5226TIP3    H137093   0.802   4.025   3.779  0.3312 -0.4681  0.7613
 5226TIP3    H237094   0.826   4.154   3.704  0.2815 -0.2954  1.0379
 5227TIP3   OH237095   2.789   3.691   1.532 -0.2365 -0.0393  0.3509
 5227TIP3    H137096   2.770   3.637   1.455 -1.3536  0.6031  0.1496
 5227TIP3    H237097   2.883   3.682   1.545 -0.1738 -0.8694 -0.5563
 5228TIP3   OH237098   2.215   0.673  12.417 -0.1493  0.2509  0.2772
 5228TIP3    H137099   2.255   0.678  12.504  0.6841  0.0049 -0.0744
 5228TIP3    H237100   2.276   0.722  12.361 -2.0493  2.8215  0.2704
 5229TIP3   OH237101   0.702   1.323  15.068  0.3523 -0.6015  0.1527
 5229TIP3    H137102   0.743   1.243  15.034 -1.1783 -0.8256 -1.2922
 5229TIP3    H237103   0.610   1.300  15.081 -0.5957  1.3915 -2.2409
 5230TIP3   OH237104   0.812   3.470   4.966 -0.3447 -0.2854  0.2383
 5230TIP3    H137105   0.778   3.527   4.897  0.0232 -0.4514 -0.0803
 5230TIP3    H237106   0.834   3.388   4.922  3.5984  0.8437 -0.2680
 5231TIP3   OH237107   3.880   2.247   1.299 -0.4806  0.2169 -0.0051
 5231TIP3    H137108   3.801   2.300   1.288  0.5391  1.2848 -3.5429
 5231TIP3    H237109   3.952   2.309   1.288  0.8625 -1.1200  0.8684
 5232TIP3   OH237110   3.233   1.445  12.109 -0.1535 -0.2992 -0.0258
 5232TIP3    H137111   3.280   1.363  12.119 -1.3849 -1.1945 -1.1932
 5232TIP3    H237112   3.140   1.421  12.114 -0.5553  1.3594  1.9371
 5233TIP3   OH237113   3.159   0.881   5.653  0.1265  0.6995  0.8646
 5233TIP3    H137114   3.240   0.834   5.672 -0.2702  0.1014  1.1103
 5233TIP3    H237115   3.169   0.911   5.562 -1.0471 -3.0152 -0.6706
 5234TIP3   OH237116   2.256   0.647   1.691  0.2655  0.2672  0.0563
 5234TIP3    H137117   2.207   0.570   1.721  0.8147 -0.4526 -0.8638
 5234TIP3    H237118   2.258   0.704   1.767 -1.2651 -0.0561  0.3832
 5235TIP3   OH237119   4.823   4.423   3.922  0.0984  0.3229  0.1010
 5235TIP3    H137120   4.748   4.447   3.867 -1.2625 -0.4847  1.5054
 5235TIP3    H237121   4.894   4.478   3.891 -0.9064  0.6918 -1.6958
 5236TIP3   OH237122   2.006   1.525  15.061 -0.4152 -0.0891  0.5555
 5236TIP3    H137123   1.996   1.430  15.063 -0.7581 -0.0497  0.6826
 5236TIP3    H237124   2.057   1.546  15.140  1.6837 -0.4003 -0.6506
 5237TIP3   OH237125   2.918   0.073   4.062  0.8247  0.0279 -0.5557
 5237TIP3    H137126   2.969   0.135   4.010  1.0086 -0.2102 -0.6599
 5237TIP3    H237127   2.837   0.062   4.014  0.8997 -0.0145 -0.6733
 5238TIP3   OH237128   2.994   5.463  16.857  0.1665  0.1193  0.4697
 5238TIP3    H137129   3.060   5.470  16.788  0.6138  1.2525  0.9904
 5238TIP3    H237130   2.962   5.373  16.850  1.1930 -0.2102 -0.3066
 5239TIP3   OH237131   6.581   4.514   0.365  0.4911 -0.2206 -0.2383
 5239TIP3    H137132   6.502   4.521   0.311  0.1751 -0.2524  0.2162
 5239TIP3    H237133   6.648   4.483   0.304  0.0373 -0.6632 -0.5274
 5240TIP3   OH237134   5.767   3.704   1.072 -0.1196  0.2837  0.0320
 5240TIP3    H137135   5.773   3.628   1.013  1.2091  1.1465 -0.9929
 5240TIP3    H237136   5.673   3.713   1.089 -0.4819 -0.3931 -1.4318
 5241TIP3   OH237137   1.984   4.501   4.244 -0.1202  0.0793 -0.2247
 5241TIP3    H137138   1.968   4.427   4.301 -0.9513 -1.0572 -1.8535
 5241TIP3    H237139   1.899   4.545   4.237 -0.5246 -0.8533 -1.9356
 5242TIP3   OH237140   1.420   0.484  11.414 -0.2137  0.0978 -0.4994
 5242TIP3    H137141   1.432   0.479  11.320  0.1468 -1.3073 -0.3895
 5242TIP3    H237142   1.480   0.555  11.441  0.0213  0.1984 -1.2558
 5243TIP3   OH237143   3.672   5.815   6.231  0.0945  0.1253  0.2447
 5243TIP3    H137144   3.718   5.859   6.303 -0.6314  0.4844  0.4987
 5243TIP3    H237145   3.586   5.794   6.267 -0.2656  0.2840 -0.5130
 5244TIP3   OH237146   3.355   6.683  14.005 -0.2518 -0.1443 -0.2959
 5244TIP3    H137147   3.413   6.655  14.076 -0.8631  1.5341  0.9478
 5244TIP3    H237148   3.268   6.651  14.031 -0.2477 -0.8531 -1.0991
 5245TIP3   OH237149   0.157   1.573  14.500 -0.0871 -0.1335 -0.1341
 5245TIP3    H137150   0.082   1.578  14.560  1.0211  1.3113  1.2059
 5245TIP3    H237151   0.234   1.573  14.557  0.9737 -0.9588 -1.5020
 5246TIP3   OH237152   0.505   2.773  11.993 -0.0796 -0.2263 -0.6780
 5246TIP3    H137153   0.586   2.740  12.031 -0.6022 -0.5889  0.1395
 5246TIP3    H237154   0.517   2.868  11.989 -0.2584 -0.1032  1.0230
 5247TIP3   OH237155   0.016   0.537   0.673 -0.0500 -0.1813  0.4591
 5247TIP3    H137156  -0.013   0.615   0.626  0.3564  0.2251  0.8864
 5247TIP3    H237157   0.087   0.502   0.619  2.5293  1.9602  2.2055
 5248TIP3   OH237158   5.286   6.682   4.427 -0.1095  0.1602 -0.3881
 5248TIP3    H137159   5.256   6.745   4.362 -0.0056  1.5554  0.8690
 5248TIP3    H237160   5.238   6.706   4.507 -1.2709 -2.3468 -0.2290
 5249TIP3   OH237161   1.704   3.683   4.710 -0.2116  0.3540  0.0526
 5249TIP3    H137162   1.688   3.725   4.795 -1.2695  0.2408 -0.0736
 5249TIP3    H237163   1.787   3.637   4.720 -0.8547 -0.5548  1.3780
 5250TIP3   OH237164   0.212   3.899  12.323  0.9123  0.2622 -0.5691
 5250TIP3    H137165   0.295   3.856  12.303 -1.0671 -3.8447 -1.1873
 5250TIP3    H237166   0.188   3.866  12.410 -0.9261 -0.4024 -1.2622
 5251TIP3   OH237167   3.984   4.026   0.363 -0.7075  0.3785  0.3954
 5251TIP3    H137168   4.028   3.994   0.285 -0.6393  1.6134 -0.0988
 5251TIP3    H237169   4.000   3.959   0.429  1.2058  0.3772 -0.0059
 5252TIP3   OH237170   3.850   2.040   5.084 -0.0307 -0.2207  0.3225
 5252TIP3    H137171   3.936   2.029   5.043  1.2071 -0.5028  2.7984
 5252TIP3    H237172   3.788   2.024   5.013  1.9339 -1.0388 -1.3343
 5253TIP3   OH237173   5.930   0.585   0.620  0.4515  0.5570 -0.0585
 5253TIP3    H137174   5.948   0.518   0.685 -2.2254 -0.7238 -0.4874
 5253TIP3    H237175   6.015   0.624   0.601  1.5315  0.1213  3.2027
 5254TIP3   OH237176   0.908   0.819   4.975  0.3950 -0.2446 -0.2196
 5254TIP3    H137177   0.863   0.889   4.928 -1.1392 -1.1007 -0.1009
 5254TIP3    H237178   0.916   0.748   4.911 -1.9209 -1.5072  0.7505
 5255TIP3   OH237179   5.959   4.562   6.421 -0.0074 -0.1758 -0.5479
 5255TIP3    H137180   5.911   4.622   6.363 -2.6413 -0.8823  0.7760
 5255TIP3    H237181   5.974   4.613   6.501 -0.8939 -0.7637  0.0089
 5256TIP3   OH237182   3.622   6.517   0.297 -0.3953 -0.1148 -0.0931
 5256TIP3    H137183   3.706   6.486   0.264 -1.0495 -3.1617  0.7692
 5256TIP3    H237184   3.557   6.463   0.251 -1.7322  0.5126  0.9782
 5257TIP3   OH237185   3.961   4.899   0.707  0.4131  0.2791 -0.3937
 5257TIP3    H137186   4.002   4.899   0.620  0.5979  0.3635 -0.3070
 5257TIP3    H237187   3.947   4.806   0.727  1.5223  0.1899  0.0273
 5258TIP3   OH237188   2.680   0.654  12.043  0.5174  0.5364  0.7391
 5258TIP3    H137189   2.611   0.620  12.100 -0.8665 -1.8051 -2.0645
 5258TIP3    H237190   2.752   0.592  12.054 -0.7676 -1.6177 -1.8788
 5259TIP3   OH237191   5.945   0.529  13.484 -0.0855 -0.0149  0.0009
 5259TIP3    H137192   5.989   0.455  13.443 -2.0697 -0.9135 -0.5837
 5259TIP3    H237193   6.014   0.595  13.493  1.8857 -2.0849  1.0618
 5260TIP3   OH237194   1.496   4.509   6.014 -0.3122 -0.2005 -0.1222
 5260TIP3    H137195   1.591   4.501   6.004 -0.3832 -2.2787  0.3967
 5260TIP3    H237196   1.484   4.581   6.075  0.8798  0.6129 -0.8098
 5261TIP3   OH237197   5.691   2.670  17.091  0.1843  0.0049  0.0931
 5261TIP3    H137198   5.750   2.600  17.118  3.1047  2.8563  1.6741
 5261TIP3    H237199   5.662   2.643  17.003  3.1719 -2.0207 -0.4388
 5262TIP3   OH237200   2.347   5.015  16.484 -0.0750  0.6193  0.3597
 5262TIP3    H137201   2.332   5.052  16.571  0.0661 -1.2980  1.2578
 5262TIP3    H237202   2.313   4.926  16.489 -0.1986  0.4989 -1.6130
 5263TIP3   OH237203   6.614   5.801  15.812  0.1144  0.0692  0.0618
 5263TIP3    H137204   6.680   5.838  15.871 -0.8658  1.8118  0.1189
 5263TIP3    H237205   6.642   5.710  15.800  2.0800  0.5303  0.6999
 5264TIP3   OH237206   4.201   3.233  16.585 -0.2687 -0.1379  0.4826
 5264TIP3    H137207   4.252   3.187  16.518 -1.1542 -1.3051  0.5703
 5264TIP3    H237208   4.244   3.211  16.667 -0.2840 -0.2601  0.4597
 5265TIP3   OH237209   6.596   0.258  12.072 -0.3262  0.0692  0.1960
 5265TIP3    H137210   6.521   0.204  12.096  0.6231 -1.6546 -0.4621
 5265TIP3    H237211   6.632   0.214  11.994  1.2449  0.9297  0.3989
 5266TIP3   OH237212   1.961   2.469   4.891  0.0981  0.1744 -0.5383
 5266TIP3    H137213   2.047   2.510   4.898 -0.2065  0.6216  1.3439
 5266TIP3    H237214   1.960   2.404   4.962 -0.4892 -1.0881 -1.6581
 5267TIP3   OH237215   3.700   0.714   2.358 -0.5457 -0.3246 -0.0472
 5267TIP3    H137216   3.678   0.705   2.451 -0.0137  1.0068  0.2358
 5267TIP3    H237217   3.674   0.804   2.336  1.0106  0.0023 -0.6902
 5268TIP3   OH237218   1.585   5.943   0.399 -0.2110  0.2718 -0.6227
 5268TIP3    H137219   1.663   5.918   0.350 -0.5791 -0.0175 -1.0788
 5268TIP3    H237220   1.546   6.014   0.347 -0.0864  0.6313 -0.2315
 5269TIP3   OH237221   5.174   3.160   6.592  0.6898 -0.9923 -0.3352
 5269TIP3    H137222   5.122   3.122   6.521  1.5358 -2.5245 -0.1816
 5269TIP3    H237223   5.259   3.179   6.553  1.5061 -2.7799  0.4227
 5270TIP3   OH237224   1.356   5.281  16.509 -0.9605  0.0045  0.1470
 5270TIP3    H137225   1.333   5.203  16.560  0.0650 -0.1251  0.4511
 5270TIP3    H237226   1.388   5.344  16.574 -2.0600  0.8046 -0.0627
 5271TIP3   OH237227   2.551   0.966   3.156  1.0482  0.0088 -0.1827
 5271TIP3    H137228   2.633   0.994   3.115  1.0753  0.3635  0.1102
 5271TIP3    H237229   2.496   1.044   3.155  1.0562  0.0307  0.4795
 5272TIP3   OH237230   4.821   5.621   2.210  0.1948 -0.1190 -0.0866
 5272TIP3    H137231   4.816   5.526   2.209  1.7757 -0.2649  1.5518
 5272TIP3    H237232   4.759   5.648   2.278 -2.8653  0.3675 -2.7730
 5273TIP3   OH237233   2.931   6.534   0.938 -0.3125  0.0412 -0.0992
 5273TIP3    H137234   2.841   6.568   0.937 -0.2724  0.2195 -2.8424
 5273TIP3    H237235   2.922   6.444   0.907  0.2631 -0.7313  1.7941
 5274TIP3   OH237236   3.420   1.397   2.626  0.2854  0.4153 -0.1559
 5274TIP3    H137237   3.361   1.331   2.661 -0.5788  2.1265  1.8938
 5274TIP3    H237238   3.409   1.393   2.531 -0.9311 -1.2558  0.0313
 5275TIP3   OH237239   2.573   3.645  13.031  0.2482 -0.0460  0.4811
 5275TIP3    H137240   2.523   3.617  12.954  0.2177 -0.3357  0.6050
 5275TIP3    H237241   2.510   3.691  13.086 -0.0748 -1.0869  1.0005
 5276TIP3   OH237242   6.131   5.185  13.005  0.1985 -0.1221  0.2737
 5276TIP3    H137243   6.133   5.098  12.967  1.9071  0.2201 -0.4965
 5276TIP3    H237244   6.045   5.220  12.980 -1.3787 -2.2254  2.2559
 5277TIP3   OH237245   6.111   1.162  15.811  0.3616 -0.1969 -0.1580
 5277TIP3    H137246   6.156   1.110  15.877 -0.0907 -0.8032 -0.3185
 5277TIP3    H237247   6.106   1.105  15.735 -2.0630 -0.7607  0.3479
 5278TIP3   OH237248   1.477   1.349   1.057  0.1213 -0.1539  0.4766
 5278TIP3    H137249   1.399   1.382   1.011 -0.2386 -1.0172  0.4590
 5278TIP3    H237250   1.443   1.307   1.136  0.5542 -0.6696  0.3950
 5279TIP3   OH237251   3.447   4.000  12.782 -0.0700  0.2632  0.0307
 5279TIP3    H137252   3.412   4.077  12.826  1.5916  0.8801  0.3354
 5279TIP3    H237253   3.369   3.951  12.755 -1.2053  2.2993 -0.6740
 5280TIP3   OH237254   3.388   5.091  11.556  0.2721  0.2490  0.1464
 5280TIP3    H137255   3.293   5.094  11.545  0.1656 -1.8990 -0.0626
 5280TIP3    H237256   3.423   5.112  11.469 -0.0705 -0.1050 -0.0849
 5281TIP3   OH237257   5.955   2.569  15.598  0.0840  0.1226  0.1598
 5281TIP3    H137258   5.916   2.586  15.512 -0.2399  1.4742  0.5636
 5281TIP3    H237259   6.027   2.508  15.580 -2.2817 -2.6891 -0.5915
 5282TIP3   OH237260   1.852   1.746  10.676 -0.4178  0.4095  0.2482
 5282TIP3    H137261   1.771   1.727  10.629 -0.5385 -1.0500  0.9729
 5282TIP3    H237262   1.920   1.741  10.609 -0.7439 -0.1927 -0.0474
 5283TIP3   OH237263   5.829   1.817  11.733 -0.0666  0.5997 -0.1670
 5283TIP3    H137264   5.828   1.812  11.637 -1.3058 -1.3121 -0.1078
 5283TIP3    H237265   5.918   1.791  11.757 -0.3000 -0.9160 -0.7799
 5284TIP3   OH237266   4.524   5.362  13.760  0.4299  0.1926 -0.1294
 5284TIP3    H137267   4.474   5.408  13.692  1.3465 -0.4512 -1.2932
 5284TIP3    H237268   4.489   5.272  13.757 -0.5550  0.5064  1.3171
 5285TIP3   OH237269   1.640   3.076   4.049  0.0824  0.0259 -0.4187
 5285TIP3    H137270   1.644   2.982   4.029 -1.4183 -0.5922  1.8062
 5285TIP3    H237271   1.592   3.114   3.975 -0.6987 -1.2500 -0.6071
 5286TIP3   OH237272   2.196   3.730  12.320  0.2500  0.4533  0.0985
 5286TIP3    H137273   2.192   3.824  12.340  0.3849  0.0463  2.1983
 5286TIP3    H237274   2.289   3.708  12.327  0.1694  0.0749 -0.0033
 5287TIP3   OH237275   6.119   4.561   5.029  0.9155  0.2754 -0.0381
 5287TIP3    H137276   6.150   4.471   5.020  0.7173  0.1950  0.0782
 5287TIP3    H237277   6.181   4.601   5.090  0.2885 -0.1271  0.8791
 5288TIP3   OH237278   5.445   1.057  13.554  0.2752 -0.0420  0.0459
 5288TIP3    H137279   5.419   1.137  13.600 -1.2130  0.2869 -1.2828
 5288TIP3    H237280   5.468   1.086  13.466  0.4849 -0.9786 -0.2157
 5289TIP3   OH237281   3.268   3.443   6.465  0.0461  0.1582  0.0547
 5289TIP3    H137282   3.259   3.505   6.392 -0.8249 -0.2182 -0.1691
 5289TIP3    H237283   3.343   3.476   6.514 -1.4082  2.4488  0.9378
 5290TIP3   OH237284   2.850   0.977   6.270 -0.5231  0.3452 -0.2534
 5290TIP3    H137285   2.766   0.968   6.226 -1.5701  1.0960  1.5168
 5290TIP3    H237286   2.829   0.978   6.364  1.1311  3.1631  0.2145
 5291TIP3   OH237287   5.848   3.260  17.272 -0.2752  0.1836  0.3149
 5291TIP3    H137288   5.756   3.284  17.282 -0.4533  0.2579 -1.3691
 5291TIP3    H237289   5.869   3.282  17.182  0.3749 -3.1357 -0.4613
 5292TIP3   OH237290   3.571   4.649   5.069  0.3665  0.1211 -0.2171
 5292TIP3    H137291   3.562   4.650   4.973  1.1114  2.4319 -0.3134
 5292TIP3    H237292   3.503   4.708   5.100 -0.2089 -1.0125  0.7603
 5293TIP3   OH237293   3.074   6.129   3.741  0.6771 -0.2866 -0.3295
 5293TIP3    H137294   3.144   6.086   3.789  1.8300  0.9848 -0.8189
 5293TIP3    H237295   2.998   6.122   3.799  1.8966  0.7863  1.5150
 5294TIP3   OH237296   1.284   0.319  13.350  0.0127 -0.0265  0.1912
 5294TIP3    H137297   1.378   0.337  13.354  0.6868 -3.1233  0.6344
 5294TIP3    H237298   1.275   0.258  13.277 -1.8889  1.1662 -0.6335
 5295TIP3   OH237299   0.822   3.608   2.790  0.2693 -0.2649  0.5254
 5295TIP3    H137300   0.803   3.566   2.706 -0.4775  0.2387  0.4300
 5295TIP3    H237301   0.758   3.570   2.851  0.7793 -0.5943  0.8595
 5296TIP3   OH237302   1.424   1.934  14.351  0.2872  0.1138  0.0126
 5296TIP3    H137303   1.376   1.880  14.289  0.3776  0.2041 -0.1380
 5296TIP3    H237304   1.376   1.925  14.433 -0.0655  0.3175 -0.1704
 5297TIP3   OH237305   4.309   1.775  11.935  0.0893 -0.1055 -0.3606
 5297TIP3    H137306   4.333   1.845  11.874  0.6916 -0.9400 -1.1088
 5297TIP3    H237307   4.300   1.697  11.880 -0.6787 -0.5998  0.4424
 5298TIP3   OH237308   5.600   2.199  16.113  0.1749  0.0106 -0.3031
 5298TIP3    H137309   5.580   2.191  16.206 -0.1568 -4.7737 -0.5651
 5298TIP3    H237310   5.529   2.252  16.077 -0.2328  1.0953  1.9297
 5299TIP3   OH237311   4.558   3.971  14.763  0.2235  0.2985 -0.3349
 5299TIP3    H137312   4.572   3.993  14.671 -0.2817 -0.7205 -0.6743
 5299TIP3    H237313   4.489   3.905  14.761 -0.1763  0.6693  0.8253
 5300TIP3   OH237314   0.471   5.800   4.132 -0.5678  0.4160 -0.1573
 5300TIP3    H137315   0.389   5.754   4.151  0.7207 -2.2406 -0.5428
 5300TIP3    H237316   0.481   5.793   4.037  0.6251 -0.3303  0.0015
 5301TIP3   OH237317   1.781   2.614   3.401  0.2702 -0.1694  0.7297
 5301TIP3    H137318   1.722   2.676   3.357  2.0933  1.6903  0.7788
 5301TIP3    H237319   1.773   2.533   3.349 -3.5532 -0.6603  1.7302
 5302TIP3   OH237320   3.401   1.557  10.633  0.5441 -0.0728 -0.1772
 5302TIP3    H137321   3.400   1.652  10.645  0.8230 -0.3333  2.5490
 5302TIP3    H237322   3.448   1.543  10.551  1.4466  2.1054 -0.0855
 5303TIP3   OH237323   5.387   2.859   3.378 -0.5340  0.0749 -0.9156
 5303TIP3    H137324   5.429   2.841   3.462 -0.6118  1.2669 -0.5990
 5303TIP3    H237325   5.449   2.828   3.312 -1.1512 -2.3726 -0.4526
 5304TIP3   OH237326   2.212   1.345  15.187  0.3181  0.0877  0.6536
 5304TIP3    H137327   2.287   1.287  15.171 -0.2441 -0.5290  0.1781
 5304TIP3    H237328   2.154   1.294  15.244  0.1033  0.4251  0.7372
 5305TIP3   OH237329   3.478   3.688  12.936  0.2154  0.7017 -0.3853
 5305TIP3    H137330   3.423   3.707  12.860  0.7154 -1.1114 -1.2609
 5305TIP3    H237331   3.479   3.592  12.941  0.3011  0.7653  1.8506
 5306TIP3   OH237332   1.310   3.815   6.293 -0.1152 -0.0060  0.6357
 5306TIP3    H137333   1.262   3.739   6.326 -0.2322 -0.3876 -0.3788
 5306TIP3    H237334   1.340   3.860   6.372 -0.6222 -0.7309  1.2618
 5307TIP3   OH237335   4.466   6.241  16.540  0.6837 -0.0122  0.1881
 5307TIP3    H137336   4.529   6.204  16.478  1.9720  1.5709  0.4792
 5307TIP3    H237337   4.413   6.166  16.567  2.6852 -1.5241  0.2003
 5308TIP3   OH237338   4.885   1.623   2.615  0.5719  0.4273 -0.2231
 5308TIP3    H137339   4.890   1.587   2.704  1.2399  1.0990  0.0120
 5308TIP3    H237340   4.794   1.607   2.588  0.1508  0.8958  0.8699
 5309TIP3   OH237341   5.106   0.042  12.958 -0.1995 -0.2027  0.9815
 5309TIP3    H137342   5.147   0.104  12.898  0.3733  0.4788  2.0431
 5309TIP3    H237343   5.179  -0.010  12.992 -0.3561  0.1611  1.9105
 5310TIP3   OH237344   5.944   0.314  13.924  0.1191  0.0547  0.1044
 5310TIP3    H137345   5.856   0.303  13.887 -0.0646  1.1322  0.1841
 5310TIP3    H237346   5.940   0.398  13.970  0.6358 -0.7881  1.7498
 5311TIP3   OH237347   3.109   2.455   0.840 -0.1643 -0.2654  0.2676
 5311TIP3    H137348   3.128   2.548   0.854  0.6486 -0.2380 -0.9523
 5311TIP3    H237349   3.013   2.452   0.831 -0.2761  0.3278  1.1164
 5312TIP3   OH237350   4.451   3.608   6.045  0.1820  0.4158 -0.1755
 5312TIP3    H137351   4.531   3.556   6.041  0.2752  0.4582  1.0107
 5312TIP3    H237352   4.394   3.561   6.106 -0.3970  0.7984 -0.4085
 5313TIP3   OH237353   4.916   2.908   2.072  0.0405 -0.1421 -0.3539
 5313TIP3    H137354   4.904   2.815   2.053 -3.4231  0.1308 -0.0687
 5313TIP3    H237355   4.864   2.924   2.150  1.1004  1.9614  0.0158
 5314TIP3   OH237356   4.609   1.977  14.609 -0.8294  0.4800  0.0625
 5314TIP3    H137357   4.548   1.954  14.679 -0.1226 -0.1715  0.4870
 5314TIP3    H237358   4.641   1.893  14.577  0.7068  0.8067  0.6419
 5315TIP3   OH237359   1.676   3.246   1.332 -0.3834  0.1935  0.2092
 5315TIP3    H137360   1.619   3.317   1.361 -0.9217 -0.4534  0.7625
 5315TIP3    H237361   1.617   3.181   1.296  0.1041 -0.0079 -0.2393
 5316TIP3   OH237362   3.695   0.736   3.965  0.1433 -0.5414  0.8516
 5316TIP3    H137363   3.707   0.645   3.938  1.7608 -0.0334 -0.2742
 5316TIP3    H237364   3.606   0.758   3.935  0.7859 -0.8999 -1.5441
 5317TIP3   OH237365   4.988   6.218   3.312 -0.4438  0.1946 -0.4326
 5317TIP3    H137366   5.007   6.270   3.234  2.1933 -0.1998 -0.1270
 5317TIP3    H237367   5.011   6.275   3.385 -1.7737  0.1268  0.0786
 5318TIP3   OH237368   1.282   1.373  15.009 -0.4537 -0.0144 -0.3907
 5318TIP3    H137369   1.207   1.427  14.983  1.0059  2.3250 -0.0469
 5318TIP3    H237370   1.285   1.381  15.104  1.1008  1.2530 -0.5098
 5319TIP3   OH237371   4.037   2.008  15.420  0.5323 -0.4478  0.1706
 5319TIP3    H137372   4.098   1.962  15.478  0.1886 -2.0920 -0.7213
 5319TIP3    H237373   4.078   2.004  15.334  0.5871  1.1491  0.0806
 5320TIP3   OH237374   3.524   4.279   5.553  0.6033 -0.2580 -0.4688
 5320TIP3    H137375   3.482   4.193   5.551  0.3882 -0.1873  0.4731
 5320TIP3    H237376   3.456   4.338   5.586  0.4777  0.4473 -1.9136
 5321TIP3   OH237377   1.841   6.294  12.898 -0.2306  0.1505  0.4484
 5321TIP3    H137378   1.861   6.203  12.921 -0.5017 -0.0623 -0.1355
 5321TIP3    H237379   1.807   6.332  12.979 -1.5641 -0.6908  0.3184
 5322TIP3   OH237380   0.904   3.934   0.946  0.0662  0.6135 -0.4275
 5322TIP3    H137381   0.859   3.993   0.886  1.7633  0.7737 -1.6147
 5322TIP3    H237382   0.985   3.980   0.968  0.7688 -0.6572 -0.2486
 5323TIP3   OH237383   2.020   0.364  15.992 -0.1885 -0.6709  0.2695
 5323TIP3    H137384   1.977   0.343  15.909  0.0999 -0.9082  0.1805
 5323TIP3    H237385   2.084   0.432  15.970 -1.9316  1.2401  0.7501
 5324TIP3   OH237386   0.014   1.567   5.661  0.0181 -0.0554  0.4484
 5324TIP3    H137387   0.103   1.554   5.628  0.0726  0.8647  0.2145
 5324TIP3    H237388  -0.040   1.574   5.582 -0.3037 -0.8258  0.5887
 5325TIP3   OH237389   6.271   5.052  11.826  0.9927 -0.7464 -0.7404
 5325TIP3    H137390   6.363   5.050  11.854  0.4100 -2.1021  1.3559
 5325TIP3    H237391   6.253   5.145  11.812  2.4026 -0.3482 -0.1602
 5326TIP3   OH237392   0.461   1.618   6.090 -0.2138 -0.0432 -0.3862
 5326TIP3    H137393   0.515   1.653   6.161  0.0359 -1.8407  0.3484
 5326TIP3    H237394   0.508   1.541   6.059 -0.8467  0.1178 -1.8295
 5327TIP3   OH237395   0.210   5.183   2.728  0.3896  0.1605  0.2194
 5327TIP3    H137396   0.286   5.240   2.735  1.4878 -1.0751 -1.1016
 5327TIP3    H237397   0.214   5.147   2.639  0.1966 -2.5655  1.2190
 5328TIP3   OH237398   3.526   6.615   5.388 -0.1156  0.4181  0.0424
 5328TIP3    H137399   3.437   6.584   5.405 -0.5315 -0.2443 -2.7898
 5328TIP3    H237400   3.582   6.554   5.435 -1.1283  0.1278  0.9202
 5329TIP3   OH237401   0.653   5.686   1.729 -0.1272  0.3998 -0.2278
 5329TIP3    H137402   0.576   5.738   1.753  0.3658  0.9033  0.2718
 5329TIP3    H237403   0.726   5.728   1.774  0.2140 -1.0510  0.6363
 5330TIP3   OH237404   3.982   2.993   4.193  0.1032 -0.3606 -0.1332
 5330TIP3    H137405   4.052   3.002   4.258 -2.6883 -0.2558  3.1847
 5330TIP3    H237406   3.931   3.074   4.203 -1.5498 -1.2485 -1.0244
 5331TIP3   OH237407   2.421   4.453   4.779  0.0559  0.3623 -0.2824
 5331TIP3    H137408   2.476   4.376   4.792 -0.7923 -0.2103  0.0291
 5331TIP3    H237409   2.456   4.495   4.701  1.2562  0.3115  0.2012
 5332TIP3   OH237410   0.462   1.111  13.822  0.4173 -0.3227 -0.3984
 5332TIP3    H137411   0.498   1.090  13.908  0.4685  0.8162 -0.1239
 5332TIP3    H237412   0.513   1.187  13.793  0.4417 -0.7292 -1.4660
 5333TIP3   OH237413   5.233   3.930  16.116  0.0934  0.0238  0.1992
 5333TIP3    H137414   5.145   3.956  16.142  0.9427  1.9931  1.2679
 5333TIP3    H237415   5.283   3.924  16.197  1.6677  1.8415 -0.5542
 5334TIP3   OH237416   3.276   3.108  13.397  0.5138 -0.1120 -0.1020
 5334TIP3    H137417   3.350   3.122  13.456  2.2077 -1.3585 -1.7887
 5334TIP3    H237418   3.206   3.075  13.453  1.6105 -0.0056  1.3891
 5335TIP3   OH237419   6.549   1.092  15.426  0.1455  0.2489  0.1971
 5335TIP3    H137420   6.507   1.123  15.346 -0.4603  0.2309  0.5016
 5335TIP3    H237421   6.630   1.141  15.432  0.0309  0.4919 -0.2556
 5336TIP3   OH237422   2.848   5.887  15.553  0.3642  0.1110 -0.2366
 5336TIP3    H137423   2.829   5.813  15.495 -1.0647  1.1273 -1.1331
 5336TIP3    H237424   2.940   5.877  15.575  0.3049 -1.7151 -0.6354
 5337TIP3   OH237425   0.312   3.975  10.923  0.0613 -0.3724 -0.5350
 5337TIP3    H137426   0.285   3.893  10.882 -0.6791 -0.2349 -0.3320
 5337TIP3    H237427   0.245   3.992  10.989  0.8933 -0.2672  0.3082
 5338TIP3   OH237428   4.166   0.353  17.029 -0.5000 -0.1345  0.3714
 5338TIP3    H137429   4.072   0.345  17.013 -0.3461 -0.3995 -0.4732
 5338TIP3    H237430   4.193   0.264  17.054 -0.6294  0.1457  1.5479
 5339TIP3   OH237431   3.519   5.376   1.918  0.2002 -0.0366 -0.2085
 5339TIP3    H137432   3.435   5.332   1.932  1.4864 -2.6025 -0.0420
 5339TIP3    H237433   3.502   5.438   1.847 -1.9832  0.0618  0.3169
 5340TIP3   OH237434   4.855   6.639   4.543 -0.0967  0.3035 -0.4646
 5340TIP3    H137435   4.892   6.581   4.476  0.5783  0.2745 -0.0707
 5340TIP3    H237436   4.760   6.637   4.525 -0.1668 -1.3525 -0.1312
 5341TIP3   OH237437   5.196   3.214   3.710  0.4158 -0.4582 -0.3660
 5341TIP3    H137438   5.239   3.130   3.694 -0.2520 -0.2438 -4.0537
 5341TIP3    H237439   5.268   3.276   3.724  1.1313 -0.9839 -1.5688
 5342TIP3   OH237440   5.976   0.838  11.739 -0.0889 -0.2884  0.3465
 5342TIP3    H137441   5.978   0.801  11.828 -1.5713  0.3807  0.6883
 5342TIP3    H237442   6.006   0.928  11.751 -2.9057  0.6917  0.6954
 5343TIP3   OH237443   3.265   1.808  12.991  0.9011  0.5475  0.4967
 5343TIP3    H137444   3.285   1.845  12.904 -1.5334  1.3846  0.2131
 5343TIP3    H237445   3.284   1.879  13.052 -0.0453  0.9366  0.3485
 5344TIP3   OH237446   3.430   5.134  16.125 -0.1532  0.0612  0.3698
 5344TIP3    H137447   3.398   5.220  16.098  2.1985  0.2222 -2.4314
 5344TIP3    H237448   3.500   5.153  16.187  0.1251  0.1617  0.0274
 5345TIP3   OH237449   2.828   5.455   1.940 -0.3435  0.8822  0.1343
 5345TIP3    H137450   2.797   5.367   1.917  2.8777 -0.5026  0.5058
 5345TIP3    H237451   2.863   5.491   1.859  3.5403 -0.6732  0.8851
 5346TIP3   OH237452   2.497   1.406  13.383  0.7807  0.6465 -0.3089
 5346TIP3    H137453   2.514   1.367  13.469  0.5399  0.0646 -0.5226
 5346TIP3    H237454   2.403   1.426  13.385  1.0660  2.0741  0.1411
 5347TIP3   OH237455   2.253   5.682  17.273  0.6718  0.3504  0.3979
 5347TIP3    H137456   2.298   5.718  17.197 -1.4551 -0.1350 -1.1653
 5347TIP3    H237457   2.259   5.751  17.339  0.7316  1.6516 -0.9215
 5348TIP3   OH237458   3.602   4.305  16.189 -0.1577 -0.8491 -0.0211
 5348TIP3    H137459   3.593   4.224  16.138 -0.2815 -0.2764 -0.9285
 5348TIP3    H237460   3.635   4.369  16.127  1.8176 -0.6530  1.1514
 5349TIP3   OH237461   3.511   2.183   2.584 -0.1247  0.1756  0.0574
 5349TIP3    H137462   3.571   2.139   2.643 -0.9385 -0.0468  0.7492
 5349TIP3    H237463   3.435   2.125   2.579 -0.5500  0.7448 -0.2732
 5350TIP3   OH237464   4.776   3.685   1.107  0.7193  0.5157 -0.4912
 5350TIP3    H137465   4.764   3.618   1.175  1.7532  0.0057 -0.7755
 5350TIP3    H237466   4.786   3.635   1.026  0.6148  1.0655 -0.8477
 5351TIP3   OH237467   4.935   4.050  16.905 -0.0510 -0.2048  0.0900
 5351TIP3    H137468   4.894   4.111  16.844 -0.9834  0.0392  0.9188
 5351TIP3    H237469   4.944   4.100  16.986 -0.3294 -0.9950  0.6265
 5352TIP3   OH237470   6.099   1.614  15.609  0.0257  0.5608  0.0183
 5352TIP3    H137471   6.168   1.578  15.553 -1.3520 -1.7986 -0.3171
 5352TIP3    H237472   6.028   1.634  15.548 -0.6502  0.1144  0.6489
 5353TIP3   OH237473   0.430   2.554  13.798  0.0435  0.0543 -0.0620
 5353TIP3    H137474   0.416   2.536  13.891  0.6184  1.1212  0.2441
 5353TIP3    H237475   0.525   2.554  13.787 -0.0172 -1.7267 -1.0123
 5354TIP3   OH237476   4.477   2.931   2.985  0.3382  0.0085  0.2219
 5354TIP3    H137477   4.399   2.878   2.972  0.5776 -0.6913  1.4415
 5354TIP3    H237478   4.545   2.868   3.009  0.7352  0.8044  1.2897
 5355TIP3   OH237479   4.098   0.036  14.876  0.0081 -1.0726  0.6213
 5355TIP3    H137480   4.129   0.114  14.922  2.1986 -0.5540 -1.5672
 5355TIP3    H237481   4.011   0.019  14.914  0.7955  0.4901  3.4001
 5356TIP3   OH237482   6.146   3.213  14.984 -0.1396  0.1581 -0.1227
 5356TIP3    H137483   6.117   3.217  15.075  0.2638  0.8225 -0.0195
 5356TIP3    H237484   6.099   3.285  14.941 -0.3375 -0.1589 -0.4477
 5357TIP3   OH237485   4.523   0.157  13.200 -0.3215  0.0258 -0.4594
 5357TIP3    H137486   4.433   0.127  13.184  0.3791 -2.0676 -0.8357
 5357TIP3    H237487   4.567   0.144  13.116  0.4126  0.7428 -0.1889
 5358TIP3   OH237488   2.935   5.572  14.234 -0.8249 -0.3589 -0.7407
 5358TIP3    H137489   2.874   5.571  14.160 -0.7766  1.6933 -0.8617
 5358TIP3    H237490   3.008   5.628  14.205 -0.1744 -0.5855  0.3787
 5359TIP3   OH237491   0.412   6.421   4.498  0.1641  0.5449 -0.3873
 5359TIP3    H137492   0.446   6.388   4.581 -1.0570 -0.7268 -0.3451
 5359TIP3    H237493   0.474   6.389   4.432  2.7412  3.9151  0.1601
 5360TIP3   OH237494   3.551   5.934   0.108 -0.1933  0.5059  0.3350
 5360TIP3    H137495   3.643   5.957   0.099 -0.1788  0.3721  0.1335
 5360TIP3    H237496   3.548   5.871   0.180 -0.0230 -0.1132 -0.1938
 5361TIP3   OH237497   1.673   1.875  11.254  0.4083  0.0438  0.3045
 5361TIP3    H137498   1.745   1.922  11.296  0.6912  1.1198 -1.2820
 5361TIP3    H237499   1.713   1.797  11.217  0.2319 -0.7027  1.6179
 5362TIP3   OH237500   4.878   0.170   4.257 -0.1286  0.3765  0.4744
 5362TIP3    H137501   4.888   0.219   4.338  1.6213  0.9524 -0.0450
 5362TIP3    H237502   4.881   0.237   4.188 -0.1597 -0.2444 -0.1407
 5363TIP3   OH237503   3.265   2.700   1.165 -0.2440 -0.2150  0.1207
 5363TIP3    H137504   3.353   2.731   1.188  0.1435 -1.4988  0.4151
 5363TIP3    H237505   3.222   2.686   1.249 -0.8523  0.6749 -0.0232
 5364TIP3   OH237506   2.973   5.811  12.249 -0.3765 -0.4817  0.0371
 5364TIP3    H137507   2.983   5.851  12.163  1.7602 -0.1541  0.3802
 5364TIP3    H237508   2.896   5.853  12.287 -0.1022  0.9116 -0.9016
 5365TIP3   OH237509   0.185   3.293  16.913  0.4066 -0.2047  0.1837
 5365TIP3    H137510   0.250   3.357  16.885 -1.6630  1.7452 -0.5010
 5365TIP3    H237511   0.129   3.281  16.836 -1.3644 -0.0313  1.3847
 5366TIP3   OH237512   2.088   5.303   1.849 -0.3104 -0.3244 -0.3782
 5366TIP3    H137513   2.098   5.383   1.901  0.5356  0.5449 -1.8214
 5366TIP3    H237514   2.043   5.242   1.908 -0.7888  1.1302  0.8284
 5367TIP3   OH237515   6.167   1.404  13.933  0.0493 -0.1043  0.4477
 5367TIP3    H137516   6.125   1.319  13.923  2.7368 -1.5114  0.1938
 5367TIP3    H237517   6.155   1.448  13.849  0.2889 -1.0637 -0.0923
 5368TIP3   OH237518   1.259   3.524   2.386 -0.0259 -0.0034  0.0220
 5368TIP3    H137519   1.288   3.480   2.466 -2.4048  0.5087  1.2578
 5368TIP3    H237520   1.332   3.580   2.362  0.8175 -0.2697  1.7880
 5369TIP3   OH237521   5.960   5.707   6.075  0.1575 -0.7113  0.3057
 5369TIP3    H137522   6.005   5.791   6.085 -0.3911 -0.3282 -0.3872
 5369TIP3    H237523   5.959   5.690   5.981  1.1479 -2.0000  0.4919
 5370TIP3   OH237524   5.905   4.672   0.341  0.0893 -0.1580  0.2676
 5370TIP3    H137525   5.914   4.767   0.342  1.5495 -0.2329 -1.6174
 5370TIP3    H237526   5.823   4.656   0.295  0.1834  0.1765 -0.0179
 5371TIP3   OH237527   2.903   0.082  17.188  0.3466 -0.3032 -0.6492
 5371TIP3    H137528   2.921   0.155  17.129 -0.0970 -0.6718 -1.2461
 5371TIP3    H237529   2.867   0.123  17.267  0.2336  0.1312 -0.9247
 5372TIP3   OH237530   0.609   5.337   0.921 -0.1948  0.0526  1.0906
 5372TIP3    H137531   0.603   5.381   1.006 -0.9247  0.4390  0.8471
 5372TIP3    H237532   0.591   5.245   0.940 -2.5357  0.4454  1.0800
 5373TIP3   OH237533   4.783   6.103  15.055 -0.0393  0.0811  0.1911
 5373TIP3    H137534   4.742   6.151  15.127 -0.1203 -0.6842  0.6707
 5373TIP3    H237535   4.712   6.088  14.993  0.1988  1.4393 -0.4517
 5374TIP3   OH237536   4.930   3.070  12.186 -0.3498 -0.6275 -0.0967
 5374TIP3    H137537   4.854   3.012  12.177 -0.6337 -0.3181  0.3353
 5374TIP3    H237538   4.989   3.022  12.244 -0.5510 -0.5171  0.1976
 5375TIP3   OH237539   3.569   2.301  14.841  0.5201  0.2997 -0.1575
 5375TIP3    H137540   3.656   2.341  14.842  0.6227  0.1819 -1.4884
 5375TIP3    H237541   3.524   2.344  14.768  1.5196 -3.5956 -3.5076
 5376TIP3   OH237542   5.815   1.960   5.089 -0.2863 -0.3665  0.2999
 5376TIP3    H137543   5.907   1.951   5.064 -0.3508  0.3236 -0.1958
 5376TIP3    H237544   5.812   2.038   5.144 -1.0521  1.5339 -2.2695
 5377TIP3   OH237545   1.824   1.884  15.716  0.2878 -0.1709  0.2504
 5377TIP3    H137546   1.841   1.967  15.672 -1.5844 -0.4089 -1.0495
 5377TIP3    H237547   1.792   1.826  15.647 -0.9345 -1.1678  1.5795
 5378TIP3   OH237548   2.610   4.353   5.810 -0.6218  0.3996  0.1899
 5378TIP3    H137549   2.522   4.377   5.837  0.2473  0.7184  3.0424
 5378TIP3    H237550   2.613   4.258   5.818 -0.3868  0.4865  1.3154
 5379TIP3   OH237551   0.446   2.328   3.607 -0.1080  0.0635  0.3904
 5379TIP3    H137552   0.445   2.420   3.634  0.2512  0.6810 -1.4832
 5379TIP3    H237553   0.370   2.320   3.549  1.1646 -0.1349 -1.3433
 5380TIP3   OH237554   3.040   2.197   2.870  0.0976 -0.3642  0.1839
 5380TIP3    H137555   3.091   2.186   2.790 -1.0938  0.8403 -0.7906
 5380TIP3    H237556   3.059   2.287   2.899 -2.3881  0.6601 -0.9827
 5381TIP3   OH237557   4.532   0.498  15.269  0.4953 -0.4528 -0.3461
 5381TIP3    H137558   4.624   0.507  15.243  0.1422  0.1916 -1.4405
 5381TIP3    H237559   4.528   0.535  15.357  1.2038 -0.1293 -0.4441
 5382TIP3   OH237560   5.814   5.253  10.680 -0.1423 -0.7502 -0.3362
 5382TIP3    H137561   5.745   5.284  10.739  0.1351  0.4633 -0.6194
 5382TIP3    H237562   5.873   5.328  10.670  1.6467 -1.9929  0.4712
 5383TIP3   OH237563   4.989   4.049   4.865  0.1514  0.2761 -0.0999
 5383TIP3    H137564   4.908   4.090   4.836  0.0218 -0.1157 -0.3081
 5383TIP3    H237565   5.004   4.083   4.953 -1.7691 -1.7706  1.1339
 5384TIP3   OH237566   4.171   3.291  14.846 -0.5594 -0.1046 -0.0873
 5384TIP3    H137567   4.223   3.371  14.853 -0.3180 -0.1638 -1.0285
 5384TIP3    H237568   4.080   3.320  14.859 -0.3885  0.1488  0.6008
 5385TIP3   OH237569   0.751   2.481  16.588  0.1880  0.0382 -0.3254
 5385TIP3    H137570   0.767   2.510  16.678  0.3938  0.0918 -0.3803
 5385TIP3    H237571   0.658   2.498  16.574  0.1422 -0.0261 -0.1029
 5386TIP3   OH237572   4.138   6.606  16.688  0.2164 -0.2914 -0.7113
 5386TIP3    H137573   4.192   6.684  16.701 -1.0591  0.6628 -0.9845
 5386TIP3    H237574   4.184   6.537  16.736  0.8145  0.8671  0.4405
 5387TIP3   OH237575   1.503   0.002   1.435 -0.5984  0.2188  0.1269
 5387TIP3    H137576   1.596  -0.014   1.453 -0.2943  0.0478 -1.4623
 5387TIP3    H237577   1.486   0.088   1.473  0.6333  0.9627 -0.9055
 5388TIP3   OH237578   0.805   3.517   5.275 -0.3197  0.1234 -0.6283
 5388TIP3    H137579   0.745   3.523   5.201  0.1922  0.4345 -1.0184
 5388TIP3    H237580   0.749   3.487   5.348 -1.3328  2.0470 -0.5420
 5389TIP3   OH237581   1.384   1.636   5.935  0.1631  0.1810 -0.1134
 5389TIP3    H137582   1.359   1.547   5.912  0.5371  0.7300 -3.0728
 5389TIP3    H237583   1.301   1.681   5.950 -0.1529 -0.2063 -0.6637
 5390TIP3   OH237584   0.735   2.894  11.218  0.4325 -0.3841  0.4107
 5390TIP3    H137585   0.743   2.947  11.298  1.4741 -2.7242  1.9651
 5390TIP3    H237586   0.641   2.889  11.203  0.2898  1.7357  0.2810
 5391TIP3   OH237587   4.489   5.891  16.382  0.1999 -0.0148  0.5033
 5391TIP3    H137588   4.574   5.930  16.401  0.0993 -0.2762  1.5658
 5391TIP3    H237589   4.480   5.821  16.447 -0.1127 -1.0607 -0.6305
 5392TIP3   OH237590   0.209   4.720   3.345  0.5566 -0.1433 -0.0914
 5392TIP3    H137591   0.164   4.637   3.360  0.1718 -0.2511 -1.5938
 5392TIP3    H237592   0.145   4.774   3.298  1.6780 -0.0068 -1.5548
 5393TIP3   OH237593   1.556   5.015  13.177 -0.2241  0.4156  0.2951
 5393TIP3    H137594   1.568   5.081  13.245  1.8567  0.5139 -0.0831
 5393TIP3    H237595   1.514   5.062  13.105  1.1412  1.3352  0.0665
 5394TIP3   OH237596   5.876   3.926   2.812 -0.0464  0.0009  0.4348
 5394TIP3    H137597   5.868   4.021   2.823 -0.6491  0.0649 -0.4112
 5394TIP3    H237598   5.805   3.904   2.752  0.5209 -0.8884  0.0784
 5395TIP3   OH237599   5.185   6.251   4.868  0.1565  0.0417 -0.5423
 5395TIP3    H137600   5.168   6.278   4.777 -0.7070 -0.4736 -0.5447
 5395TIP3    H237601   5.189   6.156   4.865 -1.9480 -0.1359  0.2511
 5396TIP3   OH237602   1.779   6.692   6.268  0.5909 -0.3171 -0.2074
 5396TIP3    H137603   1.814   6.744   6.340 -0.4259  0.2668 -0.1170
 5396TIP3    H237604   1.684   6.706   6.272  0.3109 -1.9938 -0.3262
 5397TIP3   OH237605   6.065   2.247   3.676  0.1060  0.0590 -0.0708
 5397TIP3    H137606   5.997   2.235   3.742 -1.2869  0.3977 -1.3832
 5397TIP3    H237607   6.123   2.313   3.712 -0.3453 -0.1317  1.0213
 5398TIP3   OH237608   1.778   5.595   4.678  0.0046 -0.7729 -1.0686
 5398TIP3    H137609   1.869   5.565   4.687  0.9367  1.6022 -1.7878
 5398TIP3    H237610   1.760   5.642   4.759 -0.8593 -1.8080 -0.6407
 5399TIP3   OH237611   3.197   2.900  10.599  0.2864 -0.4463 -0.5912
 5399TIP3    H137612   3.104   2.883  10.583  0.3744 -0.5704 -0.9946
 5399TIP3    H237613   3.240   2.870  10.519  0.7397 -0.9908 -0.1393
 5400TIP3   OH237614   0.605   5.596   0.399 -0.0469 -0.0709 -1.0079
 5400TIP3    H137615   0.682   5.574   0.451  1.0155  1.8571 -1.6533
 5400TIP3    H237616   0.536   5.540   0.433  0.5180  1.1915  2.6947
 5401TIP3   OH237617   1.599   1.642  13.985 -0.2612 -0.0971 -0.0027
 5401TIP3    H137618   1.628   1.552  13.972 -0.4777 -0.0020 -1.2982
 5401TIP3    H237619   1.679   1.694  13.981 -0.2440 -0.1419 -0.2925
 5402TIP3   OH237620   4.419   6.224   1.544 -0.1932 -0.2942 -0.1837
 5402TIP3    H137621   4.364   6.300   1.528 -0.1972 -0.1821  0.3307
 5402TIP3    H237622   4.430   6.222   1.639 -0.6099 -1.2205 -0.1369
 5403TIP3   OH237623   4.239   4.453   3.890  0.1964 -0.7350 -0.0441
 5403TIP3    H137624   4.148   4.461   3.918 -0.1927 -1.3735 -1.0586
 5403TIP3    H237625   4.268   4.543   3.877 -0.1654 -0.5089  0.6583
 5404TIP3   OH237626   4.495   1.945   4.534 -0.6044  0.1932 -0.2533
 5404TIP3    H137627   4.408   1.913   4.511  0.0394 -0.8366 -1.3800
 5404TIP3    H237628   4.545   1.938   4.453  0.5814  0.5999  0.4216
 5405TIP3   OH237629   4.589   5.932   0.699 -0.2889  1.1527  0.2680
 5405TIP3    H137630   4.662   5.881   0.735  0.7281  0.8011 -2.1471
 5405TIP3    H237631   4.526   5.937   0.771  0.4434 -1.7841  1.2493
 5406TIP3   OH237632   2.356   0.552   1.100  0.4650  0.4142 -0.1601
 5406TIP3    H137633   2.329   0.479   1.043  1.0572  0.1949 -0.1697
 5406TIP3    H237634   2.337   0.521   1.189 -0.1294  0.6148 -0.2133
 5407TIP3   OH237635   2.729   3.636   3.635 -0.3945  0.1707  0.3409
 5407TIP3    H137636   2.746   3.668   3.547 -0.4745  0.7064  0.5182
 5407TIP3    H237637   2.816   3.630   3.675 -0.2703 -0.9318 -0.0580
 5408TIP3   OH237638   3.387   1.292   0.960  0.1791 -0.0450  0.1356
 5408TIP3    H137639   3.471   1.339   0.963 -0.2239  0.6569  0.6424
 5408TIP3    H237640   3.335   1.339   0.895  0.9332 -1.8179 -1.8809
 5409TIP3   OH237641   2.584   6.473  11.443 -0.2657 -0.2452  0.4205
 5409TIP3    H137642   2.533   6.500  11.367 -0.0034 -1.5264 -0.2313
 5409TIP3    H237643   2.529   6.496  11.518 -0.5956  0.8831 -0.1513
 5410TIP3   OH237644   1.118   5.613   3.670  0.5917 -0.1982  0.1813
 5410TIP3    H137645   1.095   5.703   3.694 -2.4887 -0.9628  0.5010
 5410TIP3    H237646   1.076   5.599   3.585 -0.2982 -1.7531  0.8276
 5411TIP3   OH237647   3.669   1.299   5.730  0.8764  0.2323  0.6074
 5411TIP3    H137648   3.730   1.244   5.681 -0.0036 -0.7613  0.5785
 5411TIP3    H237649   3.698   1.292   5.821  1.1873  0.2953  0.5156
 5412TIP3   OH237650   1.168   6.137  14.484 -1.2721 -0.2578  0.0042
 5412TIP3    H137651   1.210   6.217  14.452  0.6624 -0.6094  1.4161
 5412TIP3    H237652   1.213   6.118  14.567 -1.6513 -2.8057 -0.2714
 5413TIP3   OH237653   2.774   2.282   2.800 -0.0586  0.5499  0.0636
 5413TIP3    H137654   2.714   2.228   2.852 -1.0263  0.7311 -0.8343
 5413TIP3    H237655   2.861   2.256   2.830 -0.5393 -0.5698  0.5636
 5414TIP3   OH237656   2.846   5.734  13.424 -0.2925  0.0242 -0.5043
 5414TIP3    H137657   2.859   5.802  13.490  0.8479 -2.7384  2.3783
 5414TIP3    H237658   2.755   5.706  13.435 -0.2308 -0.1361 -0.3949
 5415TIP3   OH237659   6.505   0.316  15.706  0.3926 -0.6151 -0.6692
 5415TIP3    H137660   6.524   0.247  15.643 -2.4534 -0.4628 -1.8527
 5415TIP3    H237661   6.477   0.390  15.653  0.7529  0.5427  0.6902
 5416TIP3   OH237662   2.891   2.394   5.961  0.2580  0.2012 -0.1584
 5416TIP3    H137663   2.903   2.345   6.042  1.4476 -0.3755 -0.6534
 5416TIP3    H237664   2.812   2.446   5.976  1.0268  0.9114  1.7625
 5417TIP3   OH237665   0.863   2.702   4.552  0.5745 -0.0033  0.4851
 5417TIP3    H137666   0.878   2.791   4.520  0.9855 -0.3276 -0.2297
 5417TIP3    H237667   0.933   2.688   4.615  3.2734 -1.3610 -2.5416
 5418TIP3   OH237668   0.468   0.615  15.764 -0.4534  0.2564 -0.1607
 5418TIP3    H137669   0.383   0.660  15.767 -0.9074 -0.6221  1.2802
 5418TIP3    H237670   0.460   0.554  15.691 -1.8540 -1.2203  1.1443
 5419TIP3   OH237671   1.461   6.207  13.112  0.9249 -0.1497  0.0468
 5419TIP3    H137672   1.455   6.234  13.020  0.0905 -1.9271 -0.4551
 5419TIP3    H237673   1.415   6.277  13.160  0.7588  0.4452 -0.9450
 5420TIP3   OH237674   6.285   6.670  14.104  0.0562  0.1328  0.2384
 5420TIP3    H137675   6.199   6.692  14.068 -0.1856 -1.6067 -0.3130
 5420TIP3    H237676   6.338   6.649  14.028  0.2323 -1.2351  0.7024
 5421TIP3   OH237677   0.302   4.965   3.694 -1.1140 -0.0959  0.0207
 5421TIP3    H137678   0.312   4.900   3.763 -1.6511 -0.3525 -0.1301
 5421TIP3    H237679   0.211   4.993   3.701 -0.6944  1.1944  0.5512
 5422TIP3   OH237680   5.048   3.251  14.269 -0.4676 -0.4410 -0.2597
 5422TIP3    H137681   5.077   3.341  14.282  1.6173 -1.2246  1.1122
 5422TIP3    H237682   4.954   3.257  14.258 -0.4592  1.8457  0.4807
 5423TIP3   OH237683   3.800   3.411   5.168 -0.0013  0.2383  0.4092
 5423TIP3    H137684   3.870   3.426   5.105 -0.6268  0.6758 -0.2063
 5423TIP3    H237685   3.834   3.445   5.251  0.5433  0.3574  0.1412
 5424TIP3   OH237686   4.853   6.118   1.022 -0.2986  0.0260  0.3091
 5424TIP3    H137687   4.910   6.145   1.095 -0.2377 -2.0944  1.1083
 5424TIP3    H237688   4.795   6.052   1.060 -0.5860 -0.7894 -1.4628
 5425TIP3   OH237689   4.414   5.851   5.060 -0.5281  0.1196 -0.0297
 5425TIP3    H137690   4.325   5.884   5.049 -0.5938 -0.4917 -1.6245
 5425TIP3    H237691   4.470   5.928   5.052 -0.8545  0.3291 -0.2912
 5426TIP3   OH237692   3.846   2.185   0.634 -0.4802 -0.4420  0.6134
 5426TIP3    H137693   3.844   2.244   0.558 -0.9493 -0.5516  0.5404
 5426TIP3    H237694   3.822   2.100   0.599  0.3120 -0.7089  0.7009
 5427TIP3   OH237695   6.616   6.089   6.114  0.4140  0.2556  0.5263
 5427TIP3    H137696   6.567   6.123   6.039 -0.9096  0.5740  1.5005
 5427TIP3    H237697   6.708   6.102   6.090  0.0183  2.9977  0.1215
 5428TIP3   OH237698   3.921   2.469  14.724  0.1093  0.5273 -0.1927
 5428TIP3    H137699   4.006   2.442  14.759  0.3089  0.5481 -0.6539
 5428TIP3    H237700   3.890   2.535  14.786 -0.0055 -0.1510  0.4852
 5429TIP3   OH237701   1.433   0.062  11.672 -0.2328  0.5395 -0.3216
 5429TIP3    H137702   1.518   0.018  11.675  0.0558  1.1324  0.5535
 5429TIP3    H237703   1.412   0.066  11.579  0.8452  0.6526 -0.5791
 5430TIP3   OH237704   1.741   0.831   0.730  0.0753  0.2550 -0.7404
 5430TIP3    H137705   1.820   0.776   0.731 -0.3289 -0.3314  0.6564
 5430TIP3    H237706   1.675   0.776   0.687  0.4824  0.8836 -2.2495
 5431TIP3   OH237707   2.318   1.884   5.340  0.6657  0.2202  0.2710
 5431TIP3    H137708   2.330   1.789   5.339  0.7608  0.2187  0.8293
 5431TIP3    H237709   2.248   1.899   5.404 -0.2854  0.4436 -0.7994
 5432TIP3   OH237710   2.839   0.994  16.789 -0.3042 -0.4705  0.2592
 5432TIP3    H137711   2.832   1.069  16.730  1.2389  1.5298  2.4289
 5432TIP3    H237712   2.909   0.940  16.752 -2.0098 -1.4182 -1.7962
 5433TIP3   OH237713   3.493   6.646  13.759 -0.2577  0.1663 -0.1338
 5433TIP3    H137714   3.467   6.669  13.848 -0.1923  0.0536 -0.0847
 5433TIP3    H237715   3.446   6.564  13.740  1.5284 -1.1003  0.6659
 5434TIP3   OH237716   5.778   2.899  16.820  1.2618 -0.8260  0.4190
 5434TIP3    H137717   5.812   2.968  16.763  0.4630 -0.6552  0.1318
 5434TIP3    H237718   5.762   2.942  16.904 -1.2198 -0.1095 -0.3500
 5435TIP3   OH237719   0.567   6.330   1.843 -0.0860 -0.3410  0.2190
 5435TIP3    H137720   0.549   6.339   1.750  0.8341  0.6697  0.1170
 5435TIP3    H237721   0.588   6.419   1.872  0.1795 -0.7291  1.2713
 5436TIP3   OH237722   5.548   1.832  12.466  0.2862 -0.2086 -0.1827
 5436TIP3    H137723   5.467   1.793  12.500 -0.5187  1.0930 -0.5131
 5436TIP3    H237724   5.573   1.775  12.394 -1.8137  0.7250 -1.7656
 5437TIP3   OH237725   1.103   4.790  13.398  0.5681  0.0656  0.0180
 5437TIP3    H137726   1.150   4.731  13.339  0.5095 -0.5616  0.5854
 5437TIP3    H237727   1.139   4.770  13.484 -0.8573 -0.5695  0.4990
 5438TIP3   OH237728   4.979   2.396  17.189 -0.7449 -0.0189 -0.0742
 5438TIP3    H137729   5.059   2.400  17.136  1.2324  0.0658  2.6932
 5438TIP3    H237730   4.933   2.319  17.158  1.2077 -0.9792 -0.7570
 5439TIP3   OH237731   3.375   0.543   5.370 -0.6184  0.4285  0.1841
 5439TIP3    H137732   3.279   0.537   5.374 -0.6204 -0.7962 -1.0090
 5439TIP3    H237733   3.405   0.452   5.368  0.5354  0.7977 -0.0296
 5440TIP3   OH237734   6.181   4.832  15.549 -0.8404  0.3626 -0.4880
 5440TIP3    H137735   6.268   4.795  15.566 -0.2907  1.6194 -0.4141
 5440TIP3    H237736   6.147   4.782  15.475 -0.5192 -0.8668  0.1646
 5441TIP3   OH237737   3.954   2.612   1.784  0.0744 -0.0194 -0.9323
 5441TIP3    H137738   3.897   2.630   1.858 -0.7646  0.4190 -1.6623
 5441TIP3    H237739   4.026   2.561   1.821 -0.1881  0.4177  0.2226
 5442TIP3   OH237740   4.756   5.351  15.639  0.1715  0.1269  0.3604
 5442TIP3    H137741   4.795   5.359  15.726 -0.5014  0.1072  0.6722
 5442TIP3    H237742   4.808   5.410  15.584  1.9304 -1.3817  0.2848
 5443TIP3   OH237743   2.849   2.393  13.205 -0.2794 -0.1714  0.2792
 5443TIP3    H137744   2.796   2.456  13.155  1.7068  1.2203 -0.1659
 5443TIP3    H237745   2.788   2.357  13.269 -1.8688  1.0405 -0.4733
 5444TIP3   OH237746   0.927   5.710   2.783  0.0993  0.5131 -0.0864
 5444TIP3    H137747   0.854   5.760   2.747  0.6962  1.0320 -0.5933
 5444TIP3    H237748   0.908   5.619   2.760 -1.6412  0.3025  1.9287
 5445TIP3   OH237749   6.016   0.093  16.560  0.1197 -0.3438  0.1834
 5445TIP3    H137750   5.938   0.054  16.601  1.1157 -0.8423  1.6803
 5445TIP3    H237751   6.082   0.024  16.564  0.7211  0.1480 -0.8780
 5446TIP3   OH237752   6.231   2.480   1.348  0.1753 -1.0074 -0.1656
 5446TIP3    H137753   6.300   2.465   1.284  0.8792 -2.0615  0.8051
 5446TIP3    H237754   6.183   2.398   1.351 -1.1997 -0.2764 -0.8642
 5447TIP3   OH237755   6.133   6.418  15.767 -0.0214  0.0425 -0.2404
 5447TIP3    H137756   6.083   6.351  15.722 -0.2091  0.7038 -1.0348
 5447TIP3    H237757   6.068   6.482  15.796  0.2511  0.3956 -0.3925
 5448TIP3   OH237758   2.615   0.238  12.038 -0.5176 -0.0303  0.0352
 5448TIP3    H137759   2.671   0.176  12.085  2.0871  0.2094 -2.4856
 5448TIP3    H237760   2.626   0.321  12.084  0.2539 -0.2593  0.2787
 5449TIP3   OH237761   5.125   3.556  11.772  0.3542 -0.5304  0.0529
 5449TIP3    H137762   5.161   3.644  11.786 -0.9224 -0.0854  0.6806
 5449TIP3    H237763   5.030   3.569  11.770  0.1648 -1.8436 -0.3008
 5450TIP3   OH237764   4.999   1.980   5.655 -0.6243 -0.5212  0.5930
 5450TIP3    H137765   5.080   1.987   5.604 -0.2053  1.2802  1.4014
 5450TIP3    H237766   4.959   1.899   5.626  0.8294 -0.8000 -0.7827
 5451TIP3   OH237767   0.702   6.171  15.711  0.4484  0.4378 -0.4289
 5451TIP3    H137768   0.647   6.204  15.782  0.4755  1.0957 -0.7003
 5451TIP3    H237769   0.643   6.164  15.636  0.5864  0.5150 -0.5469
 5452TIP3   OH237770   1.116   3.495  11.793 -0.6629 -0.1819 -0.5019
 5452TIP3    H137771   1.182   3.543  11.743 -1.4935  0.2246 -1.2352
 5452TIP3    H237772   1.034   3.515  11.749 -1.2789 -0.6759  0.4049
 5453TIP3   OH237773   5.878   5.326   1.872 -0.4090  0.4038 -0.2871
 5453TIP3    H137774   5.947   5.380   1.908 -0.1470  0.1380 -0.3846
 5453TIP3    H237775   5.919   5.281   1.798 -1.0890  1.3718 -1.2863
 5454TIP3   OH237776   3.996   1.053   4.255 -0.4334  0.2908  0.8843
 5454TIP3    H137777   3.937   1.021   4.187  0.4973 -0.2989  0.3398
 5454TIP3    H237778   3.992   0.986   4.324  2.0475 -1.4894 -0.5513
 5455TIP3   OH237779   1.829   5.181  14.311  0.3292  0.3341  0.0936
 5455TIP3    H137780   1.773   5.105  14.291 -0.3447  0.3440  1.7740
 5455TIP3    H237781   1.768   5.251  14.331  0.9027  1.8792 -2.9716
 5456TIP3   OH237782   1.134   2.370  13.726 -0.2090  0.2299  0.1653
 5456TIP3    H137783   1.123   2.278  13.749  0.4014 -0.1560 -0.9803
 5456TIP3    H237784   1.216   2.396  13.768  1.3986 -0.7356 -2.1414
 5457TIP3   OH237785   3.402   4.824  12.414  0.1578 -0.4723 -0.0029
 5457TIP3    H137786   3.354   4.881  12.353  0.4347  1.2629  1.3326
 5457TIP3    H237787   3.411   4.741  12.366 -0.5494  0.4682 -1.8918
 5458TIP3   OH237788   2.751   5.902  17.405 -0.0404 -0.4631 -0.0529
 5458TIP3    H137789   2.773   5.994  17.391  0.1038 -0.3270  0.9731
 5458TIP3    H237790   2.761   5.861  17.319 -0.1852  0.4912 -0.5378
 5459TIP3   OH237791   0.423   1.961  12.780  0.0803 -0.5220  0.8675
 5459TIP3    H137792   0.470   2.037  12.815 -2.4070  1.6799 -0.2567
 5459TIP3    H237793   0.358   1.940  12.846 -0.3212 -0.5885  0.4564
 5460TIP3   OH237794   0.772   4.335  16.922 -0.0078  0.3831 -0.3052
 5460TIP3    H137795   0.684   4.325  16.961  0.5672  0.5854  1.1269
 5460TIP3    H237796   0.823   4.378  16.991  1.1783  0.4146 -1.1826
 5461TIP3   OH237797   0.803   3.818  11.893 -0.7357 -0.2216  0.0924
 5461TIP3    H137798   0.804   3.912  11.875  2.1823 -0.0581  0.6014
 5461TIP3    H237799   0.799   3.777  11.807 -1.8945  0.3344 -0.1408
 5462TIP3   OH237800   1.319   1.849  13.950  0.1739 -0.4129 -0.0185
 5462TIP3    H137801   1.358   1.777  13.900  3.6191  0.9126  0.4720
 5462TIP3    H237802   1.353   1.838  14.039 -0.2860  1.0749  0.3673
 5463TIP3   OH237803   3.153   1.645  13.695 -0.5543 -0.3866  0.4111
 5463TIP3    H137804   3.073   1.617  13.740 -0.0348 -0.9753  0.9801
 5463TIP3    H237805   3.191   1.565  13.660 -0.6376 -0.0070 -0.5977
 5464TIP3   OH237806   6.339   5.048  10.381  0.1200 -0.0031 -0.1465
 5464TIP3    H137807   6.252   5.083  10.397 -0.5729 -0.6736 -2.1521
 5464TIP3    H237808   6.344   4.970  10.436 -1.3683 -1.1224 -1.5348
 5465TIP3   OH237809   3.131   3.774  12.317 -0.5288  0.1499  0.0843
 5465TIP3    H137810   3.210   3.762  12.369  0.1896 -0.6775 -1.1544
 5465TIP3    H237811   3.127   3.868  12.300  0.7140  0.0861 -0.6387
 5466TIP3   OH237812   1.279   3.128   1.867  0.2680  0.2683  0.7420
 5466TIP3    H137813   1.211   3.087   1.814  1.0052  2.2838 -2.0339
 5466TIP3    H237814   1.332   3.056   1.901 -0.4166 -1.1673 -1.1109
 5467TIP3   OH237815   6.236   3.429   5.982 -0.0927  0.6610  0.1311
 5467TIP3    H137816   6.191   3.351   6.013 -0.3745  0.2881 -1.1718
 5467TIP3    H237817   6.223   3.493   6.052 -0.0381 -0.3813  1.1206
 5468TIP3   OH237818   3.215   3.087  14.100  0.2976  0.0579  0.9861
 5468TIP3    H137819   3.187   3.179  14.102 -0.3790 -0.1467  1.3692
 5468TIP3    H237820   3.297   3.085  14.149 -0.9361  0.0644  3.1739
 5469TIP3   OH237821   4.767   0.138   0.622  0.0343  0.3609 -0.3463
 5469TIP3    H137822   4.835   0.110   0.684  0.0366 -0.7172 -0.7992
 5469TIP3    H237823   4.812   0.139   0.537 -0.1751  0.9980 -0.4490
 5470TIP3   OH237824   1.318   6.658  12.280 -0.2077  0.2377 -0.1644
 5470TIP3    H137825   1.248   6.698  12.332  0.2346  0.2350  0.4442
 5470TIP3    H237826   1.396   6.709  12.302  0.1103 -0.1572 -0.3659
 5471TIP3   OH237827   2.448   3.673  12.664  0.2518 -0.4182 -0.4333
 5471TIP3    H137828   2.489   3.749  12.706 -1.1792  0.0159  0.2619
 5471TIP3    H237829   2.449   3.605  12.731 -0.4814 -0.2786 -0.2708
 5472TIP3   OH237830   0.223   1.282   3.105  0.3857 -0.4594  0.5333
 5472TIP3    H137831   0.191   1.252   3.019  0.0375  0.3180  0.3846
 5472TIP3    H237832   0.189   1.217   3.166  0.4934 -0.9301  0.1018
 5473TIP3   OH237833   5.493   6.729  11.999  0.2722  0.3784 -0.0197
 5473TIP3    H137834   5.557   6.665  12.032  0.5277  0.7093  0.1347
 5473TIP3    H237835   5.480   6.706  11.907 -1.7129 -1.6266  0.6568
 5474TIP3   OH237836   3.249   3.387  12.914  0.5222  0.0597 -0.1952
 5474TIP3    H137837   3.256   3.344  12.999  1.0518  1.7524  0.6650
 5474TIP3    H237838   3.184   3.457  12.927  0.7634  0.4784 -1.1234
 5475TIP3   OH237839   6.005   1.579   0.659  0.0879  0.5168  0.2951
 5475TIP3    H137840   6.088   1.571   0.612 -0.0964 -0.4962  0.1223
 5475TIP3    H237841   6.010   1.511   0.727 -0.4850  0.6278  0.4490
 5476TIP3   OH237842   2.045   6.082  12.267  0.3439  0.5200  0.0182
 5476TIP3    H137843   1.950   6.070  12.264  0.2307  1.3246 -3.1550
 5476TIP3    H237844   2.058   6.162  12.318 -0.6375  0.2163  0.7690
 5477TIP3   OH237845   3.985   6.016  12.614 -0.1521 -0.3382 -0.5685
 5477TIP3    H137846   4.028   6.092  12.654 -0.4603 -0.3113 -0.2813
 5477TIP3    H237847   4.054   5.950  12.610  0.1690  0.0160 -0.9942
 5478TIP3   OH237848   2.975   1.460  16.234 -0.6146  0.0117 -0.2759
 5478TIP3    H137849   2.949   1.551  16.223 -0.7074 -0.1604 -1.6815
 5478TIP3    H237850   3.046   1.447  16.171  0.1760 -0.6084  0.6862
 5479TIP3   OH237851   4.881   0.608  12.157  0.4576 -0.3583  0.2312
 5479TIP3    H137852   4.902   0.701  12.155 -2.4353  0.3948 -0.3416
 5479TIP3    H237853   4.879   0.581  12.065 -0.4521 -0.5076  0.2857
 5480TIP3   OH237854   5.074   1.738   5.492 -0.2069 -0.2578  0.3362
 5480TIP3    H137855   5.168   1.740   5.471 -0.0503  0.8170  1.0804
 5480TIP3    H237856   5.032   1.710   5.411  0.7442 -0.6578 -0.0376
 5481TIP3   OH237857   3.898   2.549   3.416 -0.1289  0.1004  0.4841
 5481TIP3    H137858   3.984   2.527   3.453  0.4779  0.5719 -0.6114
 5481TIP3    H237859   3.852   2.465   3.412  1.5742 -0.8438 -2.1879
 5482TIP3   OH237860   1.255   2.815   2.403 -0.0918  0.7292 -0.0483
 5482TIP3    H137861   1.190   2.844   2.467 -1.6748 -2.4090 -0.0091
 5482TIP3    H237862   1.329   2.785   2.456 -0.1608  0.8945  0.1446
 5483TIP3   OH237863   1.560   4.795  15.917 -0.0891  0.3938 -0.3965
 5483TIP3    H137864   1.487   4.817  15.975  0.8313  0.4364  0.8073
 5483TIP3    H237865   1.573   4.701  15.930  0.5326  0.5229 -0.0043
 5484TIP3   OH237866   1.779   2.855   5.043 -0.3346  0.4950  0.4864
 5484TIP3    H137867   1.699   2.907   5.034 -1.4014 -1.0425  0.4791
 5484TIP3    H237868   1.847   2.907   5.000 -0.6851  3.0946  2.8270
 5485TIP3   OH237869   2.997   1.492  14.849  0.3071  0.3852  0.3255
 5485TIP3    H137870   3.022   1.466  14.761  0.9993 -0.5897  0.8026
 5485TIP3    H237871   2.955   1.415  14.887 -3.2558  1.7751 -0.2945
 5486TIP3   OH237872   6.525   0.914  16.359 -0.0423  0.3998 -0.0044
 5486TIP3    H137873   6.591   0.983  16.356 -0.5313  0.8406 -0.9797
 5486TIP3    H237874   6.570   0.839  16.398  0.4495  1.3063  1.2334
 5487TIP3   OH237875   3.844   5.536  11.828 -0.7237  0.1589  0.4719
 5487TIP3    H137876   3.855   5.567  11.918 -0.5440 -0.6247  0.7287
 5487TIP3    H237877   3.882   5.605  11.774 -0.3242  0.3797  1.0279
 5488TIP3   OH237878   3.438   3.380   5.414 -0.5530 -0.5549 -0.0207
 5488TIP3    H137879   3.482   3.344   5.337  1.9074  0.0286  1.0330
 5488TIP3    H237880   3.346   3.356   5.402 -0.1230 -1.1989 -2.7020
 5489TIP3   OH237881   4.887   2.733  14.075 -0.3119 -0.2676  0.1162
 5489TIP3    H137882   4.908   2.644  14.046  1.0860  0.2771 -0.6819
 5489TIP3    H237883   4.973   2.771  14.096 -0.9285  0.7594  0.8237
 5490TIP3   OH237884   6.500   2.422  17.241 -0.1025 -0.0343  0.3146
 5490TIP3    H137885   6.587   2.453  17.268  0.2034  0.4795 -1.1221
 5490TIP3    H237886   6.480   2.350  17.300  1.2396 -0.0492  0.7799
 5491TIP3   OH237887   6.360   3.705  12.895 -0.0168  0.2691 -0.1311
 5491TIP3    H137888   6.440   3.721  12.945  0.9436  4.1676 -2.4521
 5491TIP3    H237889   6.296   3.764  12.934 -0.1690  1.0063 -1.4493
 5492TIP3   OH237890   3.441   6.220   5.379 -0.3682  0.2009  0.6055
 5492TIP3    H137891   3.430   6.126   5.367  0.4758  0.0184  1.1295
 5492TIP3    H237892   3.529   6.238   5.346 -0.5764  0.8292  0.3831
 5493TIP3   OH237893   3.009   4.897  16.001 -0.1240 -0.2164 -0.4406
 5493TIP3    H137894   3.060   4.828  16.043  1.2647  2.1878  2.2446
 5493TIP3    H237895   3.058   4.920  15.923 -0.0329 -1.5013 -0.7781
 5494TIP3   OH237896   5.436   0.491   2.536  0.4912 -0.0970 -0.1762
 5494TIP3    H137897   5.472   0.578   2.517  1.2317 -0.2342  0.5175
 5494TIP3    H237898   5.393   0.500   2.621 -0.2087 -0.1932 -0.5183
 5495TIP3   OH237899   1.862   1.024  16.976  0.0801 -0.0136 -0.2183
 5495TIP3    H137900   1.920   1.000  17.049  0.2041  0.7428 -0.0600
 5495TIP3    H237901   1.912   1.001  16.898  1.5095  2.4981 -0.1395
 5496TIP3   OH237902   3.998   0.912   0.260 -0.0904 -0.4040 -0.7361
 5496TIP3    H137903   3.986   1.002   0.293 -1.8519 -0.5403 -0.8799
 5496TIP3    H237904   4.067   0.875   0.315 -1.1918  0.1957  1.1443
 5497TIP3   OH237905   1.306   3.935  16.951 -0.0701  0.4702 -0.7116
 5497TIP3    H137906   1.273   3.879  17.021  0.1726  1.3424  0.1117
 5497TIP3    H237907   1.273   4.022  16.972 -0.1805  0.7106 -1.8130
 5498TIP3   OH237908   4.807   3.214   0.651 -0.5171  0.2966 -0.1137
 5498TIP3    H137909   4.897   3.237   0.672 -0.6058  0.2603  0.3198
 5498TIP3    H237910   4.809   3.119   0.637 -0.3835  0.3774 -0.6758
 5499TIP3   OH237911   6.659   5.444   0.561 -0.3789 -0.0606 -0.4036
 5499TIP3    H137912   6.705   5.461   0.479 -0.1744  0.1532 -0.2466
 5499TIP3    H237913   6.566   5.452   0.540 -0.2942  1.2998 -0.3257
 5500TIP3   OH237914   2.060   3.607   3.663  0.0871  0.3802 -0.3575
 5500TIP3    H137915   1.993   3.541   3.647  0.7455  0.0269 -1.7805
 5500TIP3    H237916   2.039   3.641   3.751 -0.9218 -0.9061 -0.0649
 5501TIP3   OH237917   1.078   3.814   3.884  0.4660 -0.1786  0.0393
 5501TIP3    H137918   1.145   3.866   3.840  0.5882 -1.8442 -1.8535
 5501TIP3    H237919   1.004   3.813   3.822  0.3012 -1.8402  0.2225
 5502TIP3   OH237920   0.929   4.848   1.123 -0.2994  0.3124 -0.3795
 5502TIP3    H137921   1.018   4.827   1.095 -0.7515 -1.6162 -0.5487
 5502TIP3    H237922   0.873   4.806   1.057 -1.3416  1.4581 -0.2516
 5503TIP3   OH237923   3.750   2.743  13.718  0.5155  0.0186 -0.4576
 5503TIP3    H137924   3.771   2.802  13.645 -0.6688  0.1366 -0.7104
 5503TIP3    H237925   3.756   2.655  13.679  0.2594  0.0635 -0.5975
 5504TIP3   OH237926   5.228   5.682  17.209 -0.1447  0.2073  0.0714
 5504TIP3    H137927   5.136   5.667  17.229 -0.2749  0.8912  0.0101
 5504TIP3    H237928   5.275   5.622  17.267 -0.5619  1.0833  1.3667
 5505TIP3   OH237929   0.606   3.204  11.022 -0.0219  0.1506  0.3314
 5505TIP3    H137930   0.570   3.252  10.948 -0.0790  0.0714  0.3078
 5505TIP3    H237931   0.700   3.220  11.018 -0.2679  2.7731  2.0812
 5506TIP3   OH237932   5.224   3.095   5.012 -0.3316 -0.2102  0.1217
 5506TIP3    H137933   5.258   3.111   5.100 -0.8574  0.7132  0.1691
 5506TIP3    H237934   5.269   3.159   4.957  0.0411 -0.8227 -0.3108
 5507TIP3   OH237935   0.463   4.404   2.483  0.3593  0.2117 -0.5399
 5507TIP3    H137936   0.524   4.345   2.439 -0.9186 -0.2470 -1.7778
 5507TIP3    H237937   0.463   4.483   2.428  2.1148  1.4671  1.1393
 5508TIP3   OH237938   1.765   4.063  14.675 -0.1909  0.2247 -0.6781
 5508TIP3    H137939   1.774   3.970  14.697  1.0665  0.3369 -0.6426
 5508TIP3    H237940   1.720   4.064  14.591  0.9666 -0.4927 -1.3297
 5509TIP3   OH237941   5.579   6.617   3.030 -0.0763  0.3532  0.4026
 5509TIP3    H137942   5.549   6.707   3.018 -0.3873  0.1083 -0.7848
 5509TIP3    H237943   5.515   6.563   2.984  0.6202 -0.4017  0.2819
 5510TIP3   OH237944   2.478   6.137  13.967 -0.1274 -0.1645  0.1823
 5510TIP3    H137945   2.499   6.088  14.046 -0.2471 -1.1918 -0.4121
 5510TIP3    H237946   2.457   6.225  13.998  1.0657 -0.2110  1.1692
 5511TIP3   OH237947   2.919   6.157  12.935 -0.4474  0.9057 -0.1656
 5511TIP3    H137948   2.985   6.190  12.874 -0.4584  0.3470 -0.4885
 5511TIP3    H237949   2.836   6.170  12.890 -0.4354  0.2513 -0.3906
 5512TIP3   OH237950   4.484   5.408  14.318  0.1159 -0.0257 -0.5425
 5512TIP3    H137951   4.414   5.447  14.369 -1.1344 -0.4853 -1.8450
 5512TIP3    H237952   4.512   5.331  14.369  1.1593  1.3005  0.9963
 5513TIP3   OH237953   0.991   1.845   2.305 -0.0646 -0.2319  0.1608
 5513TIP3    H137954   0.990   1.885   2.392  0.2674 -0.7662  0.4169
 5513TIP3    H237955   1.079   1.809   2.297  0.0723  0.2677 -0.6112
 5514TIP3   OH237956   6.386   3.889  14.283  0.4383 -0.0210 -0.5226
 5514TIP3    H137957   6.469   3.856  14.248  0.6692 -0.5062  0.4375
 5514TIP3    H237958   6.389   3.983  14.268  1.2228 -0.0197 -0.4118
 5515TIP3   OH237959   3.816   4.449   1.858  0.4555 -0.1958 -0.2630
 5515TIP3    H137960   3.861   4.491   1.932 -0.1573 -0.3731  0.2168
 5515TIP3    H237961   3.883   4.444   1.790 -0.0753  4.0842 -1.3997
 5516TIP3   OH237962   0.987   2.522   5.668  0.0497  0.8775  0.0307
 5516TIP3    H137963   1.048   2.512   5.741 -1.4475 -0.2333  1.1863
 5516TIP3    H237964   0.902   2.539   5.709 -0.3762  2.9706 -1.5544
 5517TIP3   OH237965   4.725   2.947   1.104 -0.9791 -0.0285  0.2021
 5517TIP3    H137966   4.768   2.993   1.032  2.8070 -1.2942  1.4301
 5517TIP3    H237967   4.770   2.977   1.183 -2.3618 -1.5278  1.6414
 5518TIP3   OH237968   6.592   4.552   5.166  0.0325  0.1127 -0.1144
 5518TIP3    H137969   6.558   4.466   5.190  1.1032 -0.1160  0.6229
 5518TIP3    H237970   6.606   4.547   5.071 -0.4274 -0.3353 -0.1634
 5519TIP3   OH237971   5.489   3.454   5.323  0.1670  0.0603  0.0418
 5519TIP3    H137972   5.512   3.527   5.380 -2.0967 -0.1440  1.3565
 5519TIP3    H237973   5.490   3.378   5.381 -1.9506 -0.1884 -0.1595
 5520TIP3   OH237974   0.976   5.002   5.591  0.2685 -0.0965  0.2040
 5520TIP3    H137975   0.941   5.063   5.656  0.1025  0.4436 -0.3777
 5520TIP3    H237976   1.021   4.936   5.642  1.6885  1.2761  0.8123
 5521TIP3   OH237977   4.990   5.269  15.448 -0.0567  0.1891 -0.1503
 5521TIP3    H137978   4.997   5.266  15.353 -3.2695 -1.1328 -0.4605
 5521TIP3    H237979   4.965   5.359  15.468  2.0532  0.8754 -0.3268
 5522TIP3   OH237980   5.984   4.380  13.337  0.0116  0.0980  0.2217
 5522TIP3    H137981   5.960   4.301  13.289 -0.0063 -0.5202  1.2194
 5522TIP3    H237982   6.029   4.434  13.273 -0.4015 -0.5119 -0.6011
 5523TIP3   OH237983   2.291   3.612  11.704 -0.2202 -0.1187 -0.1584
 5523TIP3    H137984   2.275   3.525  11.667  2.1604 -0.9832  0.6610
 5523TIP3    H237985   2.205   3.654  11.705 -0.9538 -1.2390 -3.5395
 5524TIP3   OH237986   3.023   0.614   1.109 -0.0386 -0.6296  0.1870
 5524TIP3    H137987   3.052   0.705   1.113  0.7538 -0.8714  0.0961
 5524TIP3    H237988   3.058   0.581   1.027  2.2021 -1.8315  1.5048
 5525TIP3   OH237989   0.795   0.263  15.422 -0.2423 -0.1931  0.2516
 5525TIP3    H137990   0.799   0.183  15.475  0.9540 -0.3369 -0.0414
 5525TIP3    H237991   0.847   0.243  15.344 -2.3902 -0.1725 -1.2673
 5526TIP3   OH237992   4.014   3.629  11.670 -0.4160  0.4391 -0.7426
 5526TIP3    H137993   3.995   3.548  11.719  0.6175  0.9212  0.5369
 5526TIP3    H237994   3.941   3.687  11.690  0.5599  1.0609  1.3044
 5527TIP3   OH237995   3.903   5.638  15.722 -0.0008 -0.0802  0.0785
 5527TIP3    H137996   3.961   5.614  15.650 -0.4039  1.8790 -0.9784
 5527TIP3    H237997   3.832   5.688  15.680 -0.5034  0.6961  1.7709
 5528TIP3   OH237998   6.078   0.328   6.206  0.3367 -0.0350 -0.0682
 5528TIP3    H137999   6.154   0.366   6.251  0.4061  0.6997 -0.7822
 5528TIP3    H238000   6.106   0.240   6.180 -0.0127 -0.8492  2.1103
 5529TIP3   OH238001   2.991   4.614  14.787  0.1657 -0.3143  0.4528
 5529TIP3    H138002   2.998   4.520  14.803  2.1528 -0.0301  1.5062
 5529TIP3    H238003   3.022   4.655  14.867  1.0897  1.2199 -0.6285
 5530TIP3   OH238004   0.342   5.960  13.195 -0.4848 -0.0123  0.1725
 5530TIP3    H138005   0.333   5.953  13.290  0.6004  2.9786  0.5997
 5530TIP3    H238006   0.384   5.878  13.169 -2.5524 -1.7528  1.9224
 5531TIP3   OH238007   3.869   2.655   5.986  0.4567 -0.2805  0.1382
 5531TIP3    H138008   3.827   2.665   6.072  0.2833  0.4909 -0.0309
 5531TIP3    H238009   3.940   2.719   5.986 -1.1458  1.6080 -1.2646
 5532TIP3   OH238010   1.465   2.096   2.719 -0.0059 -0.0119 -0.1438
 5532TIP3    H138011   1.456   2.051   2.635  0.0280 -1.0677  0.3985
 5532TIP3    H238012   1.542   2.056   2.759  0.4555  1.0400  0.0621
 5533TIP3   OH238013   5.662   3.738  10.046  0.2416 -0.4336  0.2416
 5533TIP3    H138014   5.668   3.790  10.126 -0.1129 -1.7501  1.1553
 5533TIP3    H238015   5.571   3.708  10.044  0.7609 -2.1323  0.4926
 5534TIP3   OH238016   6.426   6.540  13.894 -0.4501  0.0368  0.1100
 5534TIP3    H138017   6.395   6.453  13.870 -2.4522  0.3638  1.2283
 5534TIP3    H238018   6.518   6.528  13.916 -0.9111 -2.0063  1.1726
 5535TIP3   OH238019   2.768   1.441   4.447 -0.0350 -0.0637 -0.8170
 5535TIP3    H138020   2.696   1.408   4.393 -1.5868  0.5274  0.7936
 5535TIP3    H238021   2.776   1.533   4.423  0.8497 -0.3444 -1.6596
 5536TIP3   OH238022   3.304   3.782  11.295 -0.0999 -0.3760  0.6623
 5536TIP3    H138023   3.392   3.774  11.333  0.1786  1.3165  0.4598
 5536TIP3    H238024   3.318   3.769  11.201 -0.1772 -0.7560  0.7015
 5537TIP3   OH238025   2.560   0.044   2.864 -0.1462  0.4587 -0.3173
 5537TIP3    H138026   2.609   0.126   2.856 -0.6570  0.7790 -0.2107
 5537TIP3    H238027   2.502   0.044   2.788  0.6575 -0.3637 -0.9595
 5538TIP3   OH238028   2.005   2.863   5.286 -0.0387  0.2183 -0.2421
 5538TIP3    H138029   1.968   2.781   5.251 -1.7909  0.6762  0.4263
 5538TIP3    H238030   2.025   2.843   5.378 -1.2122  0.7293  0.1443
 5539TIP3   OH238031   3.101   2.169  16.743 -0.4647  0.4476  0.2227
 5539TIP3    H138032   3.161   2.176  16.668 -1.1037  1.1059 -0.2397
 5539TIP3    H238033   3.123   2.244  16.798  0.2743 -0.2546  0.9189
 5540TIP3   OH238034   1.387   4.913  11.467  0.0827 -0.3715 -0.1049
 5540TIP3    H138035   1.391   4.976  11.395  1.2913 -0.9201 -0.5479
 5540TIP3    H238036   1.409   4.964  11.545 -1.9659  0.3910  0.0360
 5541TIP3   OH238037   5.250   0.678  11.129  0.1044  0.0165  0.1247
 5541TIP3    H138038   5.207   0.761  11.111  0.7793  0.2428 -0.4953
 5541TIP3    H238039   5.339   0.689  11.095  1.1727  0.1071  2.7414
 5542TIP3   OH238040   5.664   4.783   5.636  0.2991 -0.5722 -0.5876
 5542TIP3    H138041   5.686   4.706   5.689  1.4529  0.0095 -0.1919
 5542TIP3    H238042   5.580   4.813   5.671  0.1448 -1.2839 -0.3352
 5543TIP3   OH238043   6.374   6.048   3.679 -0.2013 -0.0211 -0.4398
 5543TIP3    H138044   6.361   6.136   3.714 -2.9254 -0.9887  1.2599
 5543TIP3    H238045   6.320   6.045   3.600 -0.5679 -0.3467 -0.1772
 5544TIP3   OH238046   2.629   3.941   5.097 -0.8676 -0.3072  0.1054
 5544TIP3    H138047   2.538   3.956   5.122 -0.4646  2.3678  0.2325
 5544TIP3    H238048   2.630   3.851   5.064 -2.7651 -1.7542  3.4853
 5545TIP3   OH238049   1.392   2.994   2.250 -0.5288  0.1115  0.6933
 5545TIP3    H138050   1.402   2.975   2.157  1.2180  0.6633  0.7287
 5545TIP3    H238051   1.340   2.922   2.284 -0.7902 -0.3505 -0.6218
 5546TIP3   OH238052   3.843   3.975   4.660 -0.2006  0.4115  0.4597
 5546TIP3    H138053   3.877   3.907   4.602 -0.9635  2.1405 -2.2030
 5546TIP3    H238054   3.915   4.038   4.668  0.4487 -0.4971  2.7792
 5547TIP3   OH238055   5.296   0.482   1.360 -0.5856  0.2615 -0.0758
 5547TIP3    H138056   5.283   0.463   1.453 -0.5987  0.3799 -0.0535
 5547TIP3    H238057   5.218   0.533   1.335 -0.3162  0.7106 -0.0160
 5548TIP3   OH238058   6.569   0.053  14.094 -0.3324 -0.1257  0.4255
 5548TIP3    H138059   6.539   0.106  14.019 -0.9142  1.7807  1.9077
 5548TIP3    H238060   6.662   0.039  14.078 -0.3822  0.5004 -0.5164
 5549TIP3   OH238061   4.790   2.855  16.933 -0.4204  0.0120 -0.5585
 5549TIP3    H138062   4.704   2.831  16.967  0.0101 -0.2833  0.3609
 5549TIP3    H238063   4.779   2.858  16.838 -1.5796  0.5113 -0.4255
 5550TIP3   OH238064   6.654   5.075  15.005  0.2931  0.4635 -0.1577
 5550TIP3    H138065   6.644   5.169  15.017  0.2454  0.3862  0.4520
 5550TIP3    H238066   6.654   5.062  14.910 -0.7001  0.9661 -0.2350
 5551TIP3   OH238067   1.857   1.024   5.606 -0.5927 -0.2800 -0.2526
 5551TIP3    H138068   1.809   0.984   5.533 -0.2276 -0.6179 -0.3071
 5551TIP3    H238069   1.794   1.086   5.644 -0.2578  1.1767 -1.9101
 5552TIP3   OH238070   2.865   1.578   4.773 -0.3798 -0.7243 -0.2010
 5552TIP3    H138071   2.832   1.491   4.792 -0.8013 -0.6095 -0.4071
 5552TIP3    H238072   2.791   1.625   4.735 -0.3369 -0.0841  0.4682
 5553TIP3   OH238073   1.588   4.219  16.995  0.4680 -0.6292 -0.0790
 5553TIP3    H138074   1.525   4.167  16.946 -1.2305 -0.2400  1.5847
 5553TIP3    H238075   1.538   4.293  17.028  1.8222 -0.2163  1.1726
 5554TIP3   OH238076   4.018   2.228   3.138 -0.0943 -0.3195 -0.0745
 5554TIP3    H138077   4.097   2.282   3.136  0.1309 -0.6605 -1.6345
 5554TIP3    H238078   4.048   2.143   3.170 -0.1457  0.0130  0.8680
 5555TIP3   OH238079   0.562   3.434  12.288  0.2489 -0.1617  0.1397
 5555TIP3    H138080   0.537   3.431  12.380  1.4400 -2.6748  0.4763
 5555TIP3    H238081   0.654   3.464  12.289  0.3423 -0.4256 -0.2142
 5556TIP3   OH238082   1.831   2.941  15.525 -0.2187  0.5792  0.2097
 5556TIP3    H138083   1.838   3.025  15.480 -0.4893  0.9441  0.8312
 5556TIP3    H238084   1.781   2.885  15.466 -1.9177  1.5236  0.7112
 5557TIP3   OH238085   0.742   0.417  16.675 -0.8113 -0.7183 -0.4960
 5557TIP3    H138086   0.680   0.488  16.690 -0.1770 -0.2693  0.0247
 5557TIP3    H238087   0.753   0.415  16.580 -0.0106  0.6028 -0.4540
 5558TIP3   OH238088   1.508   2.896   5.616 -0.2027 -0.2932 -0.1497
 5558TIP3    H138089   1.568   2.968   5.595  0.1829 -0.2318  1.1043
 5558TIP3    H238090   1.445   2.895   5.543  0.7299  0.2711 -0.9922
 5559TIP3   OH238091   2.827   1.465   0.045  0.0388  0.1935  0.1183
 5559TIP3    H138092   2.808   1.558   0.034  0.2237  0.1700 -0.4259
 5559TIP3    H238093   2.891   1.463   0.117 -2.1002  0.2471  2.1769
 5560TIP3   OH238094   5.229   2.416  12.923  0.4528 -0.4061  0.1790
 5560TIP3    H138095   5.289   2.450  12.990  0.6398  0.0943 -0.2383
 5560TIP3    H238096   5.158   2.480  12.919 -0.0668 -0.9364  0.5890
 5561TIP3   OH238097   2.145   5.602   4.068 -0.1411  0.4384  1.1248
 5561TIP3    H138098   2.141   5.537   4.138 -0.3904 -0.9420 -0.1380
 5561TIP3    H238099   2.065   5.587   4.017  1.7429 -1.1464 -1.6258
 5562TIP3   OH238100   1.876   6.067  15.297 -0.3051  0.0522  0.6091
 5562TIP3    H138101   1.822   6.094  15.371 -0.6443 -0.2352  0.4716
 5562TIP3    H238102   1.961   6.108  15.313 -0.2081 -0.4590  1.4396
 5563TIP3   OH238103   5.753   2.563   0.836 -0.5457  0.0964 -0.5851
 5563TIP3    H138104   5.694   2.557   0.912 -0.1688  0.0967 -0.2854
 5563TIP3    H238105   5.839   2.537   0.871  0.0022  1.7682 -0.5894
 5564TIP3   OH238106   4.588   6.331   2.128 -0.1107 -0.6990 -0.0390
 5564TIP3    H138107   4.679   6.359   2.141  0.2884 -1.6429 -0.6587
 5564TIP3    H238108   4.548   6.401   2.076  0.5349 -0.7311 -0.5865
 5565TIP3   OH238109   0.364   0.758   1.842  0.1644 -0.0264 -0.4495
 5565TIP3    H138110   0.301   0.788   1.777 -0.3955 -0.8595 -0.3174
 5565TIP3    H238111   0.448   0.756   1.796 -0.1660 -0.2846 -1.0563
 5566TIP3   OH238112   3.094   3.617   0.841 -0.4293 -0.2024 -0.1922
 5566TIP3    H138113   3.132   3.543   0.888  2.3268  0.5632 -1.0786
 5566TIP3    H238114   3.041   3.576   0.772  1.6602 -1.4423 -1.1725
 5567TIP3   OH238115   0.342   4.358  14.424  0.2608  0.1943 -0.3617
 5567TIP3    H138116   0.435   4.340  14.437  0.2167 -0.1873 -0.5729
 5567TIP3    H238117   0.340   4.425  14.356  0.4108  0.8119  0.2261
 5568TIP3   OH238118   6.299   2.581   5.711 -0.2101 -0.3532 -0.0760
 5568TIP3    H138119   6.386   2.553   5.742  0.3407  0.5118 -0.7861
 5568TIP3    H238120   6.316   2.662   5.664 -1.5145  0.1971  0.3692
 5569TIP3   OH238121   2.227   1.088  14.234 -0.2252  0.4059 -0.5948
 5569TIP3    H138122   2.161   1.098  14.303  0.1444  1.4098 -0.3635
 5569TIP3    H238123   2.310   1.096  14.280  0.1328 -2.1608 -0.6822
 5570TIP3   OH238124   1.264   0.443   3.284  0.3891 -0.4680 -0.0152
 5570TIP3    H138125   1.354   0.464   3.258  0.6108 -1.0368  0.2534
 5570TIP3    H238126   1.265   0.447   3.380  0.7162 -2.6003  0.1255
 5571TIP3   OH238127   5.928   6.642  14.235  0.0338  0.5570  0.0137
 5571TIP3    H138128   5.867   6.579  14.197  0.7988 -0.1815  0.0004
 5571TIP3    H238129   5.971   6.595  14.306 -0.1182  1.3869  0.6772
 5572TIP3   OH238130   6.248   4.609   2.865  0.5787 -0.5677 -0.1321
 5572TIP3    H138131   6.191   4.665   2.918  1.4184  0.4417 -0.2551
 5572TIP3    H238132   6.289   4.550   2.929 -0.9940 -1.6755 -0.1135
 5573TIP3   OH238133   1.241   3.264  17.104 -0.0744 -0.1247  0.0252
 5573TIP3    H138134   1.263   3.171  17.116  0.5030 -0.1290 -0.9580
 5573TIP3    H238135   1.185   3.285  17.179 -0.3959 -1.3243  0.1500
 5574TIP3   OH238136   2.248   6.640   4.662 -0.4761 -0.0816 -0.9447
 5574TIP3    H138137   2.171   6.604   4.707  0.5462 -0.9592  0.1787
 5574TIP3    H238138   2.305   6.564   4.649  1.1195  0.8757  0.1977
 5575TIP3   OH238139   5.391   2.864  15.225  0.2872 -0.4548 -0.6617
 5575TIP3    H138140   5.305   2.884  15.187  0.5791 -2.4386 -2.5665
 5575TIP3    H238141   5.451   2.868  15.151  1.6428 -0.3874  0.4022
 5576TIP3   OH238142   5.107   4.197   2.884 -0.0931 -0.5313  0.1790
 5576TIP3    H138143   5.116   4.273   2.826 -0.8845 -0.4142  0.1947
 5576TIP3    H238144   5.176   4.208   2.949 -0.8753  0.7689  0.8294
 5577TIP3   OH238145   3.571   1.013   3.572  0.8147  0.2251 -0.8549
 5577TIP3    H138146   3.505   1.013   3.503 -0.9564 -1.0015  0.7246
 5577TIP3    H238147   3.534   1.070   3.640  1.9952  0.5304 -0.4450
 5578TIP3   OH238148   3.520   4.548  17.328  0.2995  0.3004  0.2022
 5578TIP3    H138149   3.428   4.567  17.342  0.3388 -0.5577  1.8612
 5578TIP3    H238150   3.551   4.512  17.411  1.5293 -1.6829 -0.9975
 5579TIP3   OH238151   3.252   3.474  16.718  0.4812 -0.2688  0.1791
 5579TIP3    H138152   3.246   3.388  16.675 -0.1088 -0.6564  0.9989
 5579TIP3    H238153   3.341   3.477  16.752  0.4484 -0.6419  0.3082
 5580TIP3   OH238154   4.602   3.740  13.504  0.3045 -0.1164 -0.1862
 5580TIP3    H138155   4.614   3.652  13.468 -1.2312 -1.5095  2.4648
 5580TIP3    H238156   4.688   3.765  13.536  0.4926 -1.2197  0.1942
 5581TIP3   OH238157   3.415   6.454   6.704 -0.0934  0.2586 -0.5705
 5581TIP3    H138158   3.505   6.485   6.696 -0.6766  2.4931  0.6915
 5581TIP3    H238159   3.421   6.359   6.690  2.4955  0.2798 -0.0936
 5582TIP3   OH238160   0.051   0.975  15.623  0.6288  0.1528 -0.0086
 5582TIP3    H138161   0.119   0.957  15.688  2.6994 -2.1171 -2.5832
 5582TIP3    H238162   0.008   0.891  15.609 -0.6838  0.8980 -0.6515
 5583TIP3   OH238163   2.347   5.759  11.642  0.3991  0.5928 -0.5839
 5583TIP3    H138164   2.375   5.713  11.564  1.5411 -0.1684  0.2528
 5583TIP3    H238165   2.254   5.738  11.650  0.2758  0.6487 -1.6889
 5584TIP3   OH238166   0.440   4.913  16.476 -0.2364  0.0970  0.3142
 5584TIP3    H138167   0.397   4.870  16.402  0.7230 -2.2707  1.0281
 5584TIP3    H238168   0.394   4.878  16.553  0.0511  1.0051  0.9100
 5585TIP3   OH238169   6.145   5.259  14.096 -0.1244 -0.0807  0.5278
 5585TIP3    H138170   6.109   5.315  14.026  0.3847  1.0317  1.1269
 5585TIP3    H238171   6.081   5.264  14.166 -0.0306 -0.1815  0.6207
 5586TIP3   OH238172   1.571   0.760   2.002 -0.6463 -0.0855 -0.2375
 5586TIP3    H138173   1.541   0.841   2.042 -1.4725 -1.5501  2.3332
 5586TIP3    H238174   1.660   0.747   2.036 -1.7027 -1.8302  2.1525
 5587TIP3   OH238175   1.313   2.187  10.569  0.0130 -0.0553  0.2434
 5587TIP3    H138176   1.395   2.198  10.616 -0.6390 -0.0368  1.4196
 5587TIP3    H238177   1.324   2.237  10.488  0.4902  1.5074  1.2406
 5588TIP3   OH238178   2.269   4.269   2.274  0.8436  0.1065 -0.2230
 5588TIP3    H138179   2.353   4.258   2.229  0.1170  3.4393 -2.8367
 5588TIP3    H238180   2.277   4.353   2.319 -0.6768 -0.1404  0.5685
 5589TIP3   OH238181   4.812   1.424   0.720 -0.2122  0.2967 -0.2340
 5589TIP3    H138182   4.813   1.412   0.626 -1.0014 -0.3452 -0.1711
 5589TIP3    H238183   4.822   1.519   0.733  2.8566  0.1254 -0.8455
 5590TIP3   OH238184   3.716   2.541  14.550  0.1828 -0.0716  0.1270
 5590TIP3    H138185   3.743   2.567  14.462  0.2319 -1.6931 -0.3777
 5590TIP3    H238186   3.797   2.518  14.594  0.0363 -0.8757  0.0090
 5591TIP3   OH238187   4.086   5.693  14.056  0.7042 -0.9432  0.0945
 5591TIP3    H138188   4.053   5.781  14.040 -0.0707 -1.2722 -0.1635
 5591TIP3    H238189   4.122   5.696  14.144  1.1046 -0.2469 -0.0887
 5592TIP3   OH238190   6.513   2.740   4.980  0.2154  0.2163 -0.2851
 5592TIP3    H138191   6.483   2.674   5.042 -1.0020 -0.4660 -1.5462
 5592TIP3    H238192   6.489   2.823   5.021 -0.6538 -0.2248  0.1365
 5593TIP3   OH238193   4.063   0.872  15.967  0.5816  0.1776 -0.4465
 5593TIP3    H138194   4.074   0.807  15.898  2.8361  0.5128 -0.4639
 5593TIP3    H238195   4.085   0.826  16.048  0.5617  0.4757 -0.2689
 5594TIP3   OH238196   0.881   5.865   3.329 -0.1181  0.4743 -0.0508
 5594TIP3    H138197   0.814   5.903   3.273  1.4130  0.9049 -1.6656
 5594TIP3    H238198   0.846   5.872   3.418 -2.1497  0.7389 -0.8414
 5595TIP3   OH238199   0.523   4.279   3.388  0.4600 -0.2572  0.0090
 5595TIP3    H138200   0.552   4.240   3.471 -0.0613 -0.8649 -0.0887
 5595TIP3    H238201   0.428   4.281   3.395  0.4237 -0.1195 -0.4942
 5596TIP3   OH238202   5.623   1.161   5.448  0.5702 -0.3363  0.3587
 5596TIP3    H138203   5.708   1.173   5.405 -0.3265 -0.4862 -1.5380
 5596TIP3    H238204   5.604   1.247   5.486  1.6192 -0.3407  0.9343
 5597TIP3   OH238205   3.122   5.961   2.281  0.3603 -0.3713  0.0631
 5597TIP3    H138206   3.111   6.034   2.220 -0.5377  0.3810  1.0756
 5597TIP3    H238207   3.132   5.884   2.225 -0.0171  0.3467 -1.0238
 5598TIP3   OH238208   4.175   1.667   6.349  0.3258 -0.2245 -0.0261
 5598TIP3    H138209   4.129   1.747   6.372  1.4628  0.4589 -0.0754
 5598TIP3    H238210   4.145   1.647   6.260 -1.3183 -0.8733  0.6273
 5599TIP3   OH238211   6.408   6.515  13.461  0.4946 -0.1446  0.3297
 5599TIP3    H138212   6.503   6.506  13.453  0.8686  1.8298  1.7008
 5599TIP3    H238213   6.395   6.551  13.549 -1.5771 -0.8717  0.3674
 5600TIP3   OH238214   5.854   4.201  13.136  0.3878 -0.0150  0.0076
 5600TIP3    H138215   5.904   4.206  13.054 -1.3606  2.8922 -1.0345
 5600TIP3    H238216   5.803   4.120  13.129  1.8483 -0.9110 -0.7374
 5601TIP3   OH238217   0.252   0.394  10.835 -0.0218  0.2400  0.0138
 5601TIP3    H138218   0.315   0.413  10.765 -0.5038  0.6852 -0.3057
 5601TIP3    H238219   0.172   0.370  10.789 -0.4681  0.9500  0.4060
 5602TIP3   OH238220   4.973   0.217   0.459 -0.5130  0.2633 -0.5842
 5602TIP3    H138221   5.051   0.254   0.500  0.0685 -1.1321 -0.4055
 5602TIP3    H238222   5.004   0.177   0.379 -1.0618 -0.2243 -0.5572
 5603TIP3   OH238223   6.098   6.454  11.334  0.0804 -0.3488 -0.0597
 5603TIP3    H138224   6.132   6.405  11.409  0.0925  0.5312  0.5214
 5603TIP3    H238225   6.006   6.430  11.329  0.1145 -0.5259  0.1442
 5604TIP3   OH238226   1.755   4.839   0.467 -0.4979  0.0261  0.0699
 5604TIP3    H138227   1.668   4.824   0.505 -0.8466  0.2481 -0.6109
 5604TIP3    H238228   1.814   4.784   0.519 -0.9510  0.3204  0.9208
 5605TIP3   OH238229   0.024   1.097  12.176  0.2168 -0.5727 -0.3545
 5605TIP3    H138230  -0.068   1.084  12.196  0.3056 -2.1643 -0.8663
 5605TIP3    H238231   0.055   1.012  12.145  1.4971  0.2979 -1.6042
 5606TIP3   OH238232   0.465   2.744  14.050  0.3324 -0.3405  0.3198
 5606TIP3    H138233   0.473   2.756  13.955 -0.6211  0.1514  0.2864
 5606TIP3    H238234   0.430   2.828  14.082  0.0035 -0.7315  1.0070
 5607TIP3   OH238235   2.724   5.853   1.328 -0.1970  0.0345  0.4652
 5607TIP3    H138236   2.728   5.779   1.389  0.2325 -0.2358  0.1157
 5607TIP3    H238237   2.765   5.820   1.248  1.1363  1.0418  0.6976
 5608TIP3   OH238238   1.664   3.423   5.361  0.7595  0.3376  0.8028
 5608TIP3    H138239   1.590   3.470   5.321  1.7239  0.2236 -1.2383
 5608TIP3    H238240   1.678   3.347   5.304  3.7260  1.4335 -0.0947
 5609TIP3   OH238241   5.954   5.077   2.981  0.2661  0.1596 -0.0514
 5609TIP3    H138242   6.001   5.135   2.921  1.3530 -0.3286  0.3050
 5609TIP3    H238243   5.886   5.132   3.019 -1.4559  0.1424 -2.8006
 5610TIP3   OH238244   0.876   2.816  15.094  0.1576 -0.4055  0.6958
 5610TIP3    H138245   0.815   2.791  15.024 -0.8765 -0.3303  1.5502
 5610TIP3    H238246   0.958   2.774  15.069 -0.7744 -2.2893  0.5944
 5611TIP3   OH238247   6.319   1.469   2.120 -0.0183  0.5325 -0.5392
 5611TIP3    H138248   6.250   1.439   2.061  0.3667  0.6988 -1.0805
 5611TIP3    H238249   6.305   1.563   2.128 -2.5451  0.0601  2.8486
 5612TIP3   OH238250   1.156   6.225  11.534 -0.2162 -0.2275 -0.6297
 5612TIP3    H138251   1.109   6.173  11.468 -1.1627 -0.4859  0.2183
 5612TIP3    H238252   1.231   6.261  11.487 -0.3523 -1.1607 -1.6151
 5613TIP3   OH238253   4.099   6.450   4.915 -0.2896  0.7632 -0.2573
 5613TIP3    H138254   4.067   6.396   4.988 -0.2280 -0.1495 -0.8842
 5613TIP3    H238255   4.154   6.516   4.957  0.6522 -0.4197  0.4524
 5614TIP3   OH238256   6.085   6.416   3.043 -0.0549 -0.5460  0.1344
 5614TIP3    H138257   6.161   6.450   3.089  0.2670 -0.4183 -0.4909
 5614TIP3    H238258   6.112   6.330   3.010 -0.8721 -1.4713  1.7381
 5615TIP3   OH238259   4.162   6.503   0.767  0.1693 -0.0918  0.2969
 5615TIP3    H138260   4.106   6.576   0.793  2.2260  1.7366 -0.1572
 5615TIP3    H238261   4.128   6.475   0.682  0.4053  1.5501 -0.3716
 5616TIP3   OH238262   6.349   2.946  15.553 -0.1723 -0.2896 -0.2451
 5616TIP3    H138263   6.313   2.871  15.601 -1.0625 -0.0354 -0.4962
 5616TIP3    H238264   6.275   2.979  15.503 -0.1611  1.5898  0.8849
 5617TIP3   OH238265   3.788   0.522  14.107 -0.3202 -0.5149 -0.1731
 5617TIP3    H138266   3.723   0.495  14.171 -0.4402  1.0568  0.4075
 5617TIP3    H238267   3.753   0.603  14.069  1.4510  0.6429  0.4839
 5618TIP3   OH238268   3.901   1.363   3.210 -0.5137 -0.3476 -0.1266
 5618TIP3    H138269   3.844   1.430   3.247  1.3972 -0.1148  2.7584
 5618TIP3    H238270   3.915   1.391   3.119 -1.3683  2.0394  0.3911
 5619TIP3   OH238271   4.905   4.422  15.379  0.7258 -0.1629 -0.4422
 5619TIP3    H138272   4.973   4.475  15.339 -1.6660  2.1519 -1.7133
 5619TIP3    H238273   4.888   4.464  15.463 -0.8264  0.8750 -1.2318
 5620TIP3   OH238274   6.507   4.734  14.602 -0.4502  0.2508 -0.1336
 5620TIP3    H138275   6.509   4.802  14.669  0.7060  1.3034 -1.1945
 5620TIP3    H238276   6.494   4.780  14.520  0.3045 -0.7965 -0.8745
 5621TIP3   OH238277   0.176   5.860  16.336 -0.7756 -0.0530 -0.6499
 5621TIP3    H138278   0.112   5.795  16.365  1.1941 -1.9666 -0.3212
 5621TIP3    H238279   0.247   5.854  16.400 -0.2750  2.0919 -0.9211
 5622TIP3   OH238280   5.615   3.428  17.336  0.1020 -0.3853 -0.2575
 5622TIP3    H138281   5.521   3.436  17.351  0.2878 -0.0915  0.8596
 5622TIP3    H238282   5.655   3.449  17.421  1.2437  0.9499 -1.0653
 5623TIP3   OH238283   4.090   1.686   5.806  0.3500  0.8232  0.0753
 5623TIP3    H138284   4.096   1.641   5.890 -1.1814  0.0575 -0.1729
 5623TIP3    H238285   4.180   1.695   5.776  0.7468 -2.0855  0.1637
 5624TIP3   OH238286   6.329   1.818  17.052 -0.0574 -0.2705  0.0810
 5624TIP3    H138287   6.253   1.810  16.994  1.0763 -0.6560 -1.4161
 5624TIP3    H238288   6.334   1.733  17.096 -0.4162 -0.2889  0.0924
 5625TIP3   OH238289   5.847   2.747   3.249  0.4103 -0.2103  0.2039
 5625TIP3    H138290   5.929   2.767   3.205  0.4264 -1.0447 -0.1755
 5625TIP3    H238291   5.868   2.749   3.342  1.1480 -1.4729  0.0946
 5626TIP3   OH238292   4.396   0.523   1.725 -0.0648  0.5449  0.2061
 5626TIP3    H138293   4.466   0.560   1.672  0.3591 -0.9583 -0.3219
 5626TIP3    H238294   4.390   0.582   1.801 -2.1482  4.0648 -2.3855
 5627TIP3   OH238295   4.354   0.856   0.687 -0.3663  0.1146  0.1061
 5627TIP3    H138296   4.390   0.807   0.761  0.9691  0.2824 -0.4073
 5627TIP3    H238297   4.429   0.902   0.649 -1.2790  1.1940 -0.4769
 5628TIP3   OH238298   3.614   4.529   6.629  0.0908  0.2191 -0.6626
 5628TIP3    H138299   3.535   4.583   6.640  0.7096  0.6876  2.0973
 5628TIP3    H238300   3.583   4.451   6.583 -1.1783  2.0284 -3.2019
 5629TIP3   OH238301   4.956   5.344   0.940  0.0674 -0.0257  0.0130
 5629TIP3    H138302   4.894   5.273   0.927 -1.4564  1.2462  0.0647
 5629TIP3    H238303   5.020   5.309   1.002 -1.0470 -1.1065  0.5966
 5630TIP3   OH238304   6.350   0.105  12.093 -0.7252  0.5544  0.0204
 5630TIP3    H138305   6.329   0.015  12.068 -1.2649  0.6764  0.0227
 5630TIP3    H238306   6.304   0.118  12.176  1.6820 -0.1074  1.5595
 5631TIP3   OH238307   0.835   5.033  11.092 -0.1084  0.5777 -0.0016
 5631TIP3    H138308   0.895   5.067  11.025  0.1856  0.1498  0.0373
 5631TIP3    H238309   0.770   4.982  11.043 -0.4854  1.1020 -0.0503
 5632TIP3   OH238310   0.342   2.019  10.308  0.4943  0.5152 -0.0552
 5632TIP3    H138311   0.436   2.028  10.323  0.7727 -1.2113 -0.5637
 5632TIP3    H238312   0.306   1.998  10.394  0.3336  2.5694  0.4237
 5633TIP3   OH238313   5.948   6.347  14.730  0.0523  0.4458  0.0015
 5633TIP3    H138314   6.023   6.309  14.777  2.3821  2.5014 -1.7715
 5633TIP3    H238315   5.948   6.439  14.756 -1.0476  0.7644 -1.0576
 5634TIP3   OH238316   6.252   5.698   5.668  0.1003 -0.1071  0.4914
 5634TIP3    H138317   6.303   5.639   5.613 -1.0598 -1.4124  0.7698
 5634TIP3    H238318   6.281   5.786   5.642  0.2786 -0.7104 -1.4978
 5635TIP3   OH238319   2.043   5.296   5.258 -0.1660 -0.5484  0.0381
 5635TIP3    H138320   1.995   5.327   5.181 -0.2521  0.2148  0.3885
 5635TIP3    H238321   2.135   5.314   5.239 -0.2352  0.1234  0.3282
 5636TIP3   OH238322   6.370   0.101  15.235 -0.6095  0.7991 -0.1176
 5636TIP3    H138323   6.400   0.190  15.218 -1.0094  0.7895 -0.9783
 5636TIP3    H238324   6.311   0.108  15.309 -0.7283  1.2765 -0.2570
 5637TIP3   OH238325   1.877   2.441   5.729  0.8852 -0.2249  0.3201
 5637TIP3    H138326   1.939   2.480   5.791 -1.0085  2.4388  0.7055
 5637TIP3    H238327   1.918   2.452   5.643  2.6794 -2.2165  0.8415
 5638TIP3   OH238328   2.481   0.745   4.655  0.3895 -0.4754 -0.0541
 5638TIP3    H138329   2.440   0.701   4.580 -0.2909 -0.4438  0.2857
 5638TIP3    H238330   2.543   0.806   4.616  1.2831 -1.6602 -0.5344
 5639TIP3   OH238331   3.701   4.663  16.612  0.0642 -0.2438  0.0532
 5639TIP3    H138332   3.726   4.575  16.586  0.4741 -0.4925  1.2451
 5639TIP3    H238333   3.627   4.685  16.555 -0.8955 -1.8668  0.6228
 5640TIP3   OH238334   5.357   5.591  10.653  0.0727  0.5759  0.1756
 5640TIP3    H138335   5.356   5.687  10.660 -0.0109  0.5354  0.8002
 5640TIP3    H238336   5.446   5.569  10.628  0.2473  0.7817  0.6152
 5641TIP3   OH238337   5.704   6.242  12.204  0.9629 -0.2207 -0.0986
 5641TIP3    H138338   5.635   6.306  12.224  0.1095 -1.1929  0.1053
 5641TIP3    H238339   5.681   6.209  12.118  1.6137  0.0011 -0.3619
 5642TIP3   OH238340   1.570   3.845   1.133 -0.1474  0.3249  0.4295
 5642TIP3    H138341   1.620   3.873   1.056  1.8881 -0.7885  1.2561
 5642TIP3    H238342   1.534   3.760   1.108  0.9877 -0.3016  0.8602
 5643TIP3   OH238343   1.456   2.371   0.978 -0.5012  0.1340 -0.1737
 5643TIP3    H138344   1.456   2.290   1.029 -1.8457 -0.4523 -1.0410
 5643TIP3    H238345   1.392   2.427   1.022  0.0886  0.5596  0.1555
 5644TIP3   OH238346   5.205   2.862   5.929  0.1203  0.1173 -0.4399
 5644TIP3    H138347   5.112   2.862   5.951  0.4894 -0.5008  1.2772
 5644TIP3    H238348   5.244   2.929   5.985  0.8737 -0.4325 -0.2773
 5645TIP3   OH238349   2.424   6.083  12.264  0.4055 -0.1520  0.1008
 5645TIP3    H138350   2.354   6.091  12.199 -0.8326 -0.9489  1.2889
 5645TIP3    H238351   2.504   6.102  12.215 -0.6548  1.2741 -1.1889
 5646TIP3   OH238352   5.974   1.817  13.879  0.1158  0.3783  0.0864
 5646TIP3    H138353   6.011   1.767  13.952 -0.0790  1.0663  0.6666
 5646TIP3    H238354   6.028   1.895  13.873  1.2576 -0.4962 -1.6910
 5647TIP3   OH238355   5.966   4.412   2.772 -0.1982  0.4543  0.0959
 5647TIP3    H138356   6.006   4.478   2.715  0.1815  0.8319  0.7729
 5647TIP3    H238357   5.936   4.343   2.713  0.2180  0.8150 -0.5496
 5648TIP3   OH238358   3.324   2.096   0.225  0.4927 -0.4031  0.1217
 5648TIP3    H138359   3.301   2.183   0.193  0.2913 -0.4103  0.2509
 5648TIP3    H238360   3.329   2.106   0.320 -0.8285 -0.8426  0.2458
 5649TIP3   OH238361   5.061   2.378   3.105  0.3656  0.0169  0.8513
 5649TIP3    H138362   4.978   2.392   3.059  0.2780 -0.6678  0.8019
 5649TIP3    H238363   5.051   2.428   3.186  0.1519  0.4524  0.5636
 5650TIP3   OH238364   4.474   3.907   2.244 -0.4066 -0.1606  0.1367
 5650TIP3    H138365   4.472   3.822   2.288 -1.3657 -0.7100 -0.9387
 5650TIP3    H238366   4.494   3.887   2.153 -1.3544  0.6968 -0.2776
 5651TIP3   OH238367   4.666   4.893   6.551  0.6094 -0.0405  1.0724
 5651TIP3    H138368   4.655   4.902   6.457 -1.6935 -1.3448  1.1687
 5651TIP3    H238369   4.648   4.981   6.586  0.9215  0.3129  0.3658
 5652TIP3   OH238370   4.561   2.603  14.538 -0.5901  0.3677  0.0746
 5652TIP3    H138371   4.531   2.585  14.627  0.4197 -0.8690  0.2062
 5652TIP3    H238372   4.573   2.698  14.535  0.3510  0.3331  1.6131
 5653TIP3   OH238373   2.024   2.773  15.997 -0.3025 -0.4959  0.0404
 5653TIP3    H138374   1.985   2.789  16.082 -0.7083  0.0588 -0.2447
 5653TIP3    H238375   2.079   2.695  16.009 -2.9242 -2.4618  0.0246
 5654TIP3   OH238376   3.099   4.979   3.099  1.1443  0.1004  0.3239
 5654TIP3    H138377   3.051   4.967   3.017  2.3059  0.1790 -0.3914
 5654TIP3    H238378   3.101   4.892   3.138 -0.3160  0.2586  0.8024
 5655TIP3   OH238379   2.321   6.666  13.582 -0.1851 -0.3396 -0.0569
 5655TIP3    H138380   2.326   6.625  13.496  0.0558 -1.2483  0.3882
 5655TIP3    H238381   2.411   6.691  13.602 -0.2480 -0.0876 -0.0803
 5656TIP3   OH238382   0.393   5.958   1.409  0.6446  0.0990  0.4682
 5656TIP3    H138383   0.463   5.992   1.353  0.7652  0.2304  0.6989
 5656TIP3    H238384   0.426   5.966   1.498  1.0279 -1.4589  0.4917
 5657TIP3   OH238385   4.577   3.016   2.260 -0.0350  0.3507  0.0096
 5657TIP3    H138386   4.651   3.074   2.241  0.6138 -0.5132 -0.1953
 5657TIP3    H238387   4.604   2.931   2.225 -2.3212  0.6334 -2.7928
 5658TIP3   OH238388   6.539   4.505  16.215 -0.3339  0.1819 -0.4014
 5658TIP3    H138389   6.608   4.495  16.281 -1.6923 -0.6334  0.9760
 5658TIP3    H238390   6.468   4.550  16.262 -0.6585  1.2779 -1.8634
 5659TIP3   OH238391   2.031   1.607   3.516 -0.0133  0.3659 -0.3475
 5659TIP3    H138392   2.121   1.638   3.527 -0.6110  1.6059  1.4503
 5659TIP3    H238393   2.033   1.517   3.547  0.6705  0.2507 -0.6922
 5660TIP3   OH238394   4.984   6.354  13.212 -0.0966 -0.1387 -0.1190
 5660TIP3    H138395   4.949   6.275  13.254  1.0345 -0.2666  0.6505
 5660TIP3    H238396   4.958   6.426  13.270  2.1927 -0.4060  1.3638
 5661TIP3   OH238397   2.490   2.456   2.263  0.1205  0.3790  0.5018
 5661TIP3    H138398   2.396   2.438   2.266  0.1105  0.3732  0.1493
 5661TIP3    H238399   2.522   2.431   2.350 -0.2597  0.6983  0.7356
 5662TIP3   OH238400   5.080   5.480   2.767 -0.3797  0.3491 -0.9406
 5662TIP3    H138401   5.123   5.464   2.683 -0.5740 -0.5945 -0.8702
 5662TIP3    H238402   5.150   5.510   2.825 -0.2496  1.0487 -1.4404
 5663TIP3   OH238403   2.949   6.585   4.661 -0.2778 -0.1098  0.1202
 5663TIP3    H138404   3.020   6.645   4.684  0.2976 -0.7295 -0.0282
 5663TIP3    H238405   2.912   6.558   4.745 -0.5073  0.4025  0.1902
 5664TIP3   OH238406   0.320   4.661  11.633 -0.0458 -0.2606 -0.6909
 5664TIP3    H138407   0.240   4.619  11.664  0.1114 -0.5661 -0.7036
 5664TIP3    H238408   0.383   4.590  11.623  0.2744 -0.0012 -0.5360
 5665TIP3   OH238409   3.129   6.400  17.109  0.2507  0.2516  0.0279
 5665TIP3    H138410   3.161   6.391  17.199 -1.1830 -1.5424  0.4104
 5665TIP3    H238411   3.053   6.342  17.104 -1.7450  2.7675 -1.4160
 5666TIP3   OH238412   3.988   1.462   3.752 -0.4419 -0.3321  0.7501
 5666TIP3    H138413   3.914   1.500   3.704  0.1614 -0.1644 -0.0704
 5666TIP3    H238414   4.001   1.376   3.712 -0.1462 -0.3319  0.8426
 5667TIP3   OH238415   5.654   5.248   2.691  0.3185 -0.1226  0.0574
 5667TIP3    H138416   5.712   5.174   2.672 -0.3726 -0.4586 -0.7840
 5667TIP3    H238417   5.692   5.321   2.643  0.8647  0.0250  0.6935
 5668TIP3   OH238418   2.106   4.029   4.800 -0.2016  0.8099 -0.0116
 5668TIP3    H138419   2.111   3.936   4.775 -0.5975 -0.0600  2.7982
 5668TIP3    H238420   2.016   4.054   4.778 -0.4190  0.2021  0.1486
 5669TIP3   OH238421   2.211   2.653   3.081 -0.5773  0.1030 -0.1174
 5669TIP3    H138422   2.278   2.678   3.144  0.3086 -0.1572 -0.9383
 5669TIP3    H238423   2.252   2.665   2.996 -1.2676 -0.9020 -0.6100
 5670TIP3   OH238424   4.456   4.140  13.162 -0.2576  0.4113  0.1082
 5670TIP3    H138425   4.460   4.130  13.067 -3.3646  0.9546 -0.2001
 5670TIP3    H238426   4.474   4.052  13.196  1.6445  0.3797 -0.8949
 5671TIP3   OH238427   3.048   6.014  12.084  0.1698  0.6260  0.4885
 5671TIP3    H138428   2.970   6.044  12.038  1.1057  1.7919 -0.4063
 5671TIP3    H238429   3.090   5.952  12.024  0.1299  0.2775  0.8128
 5672TIP3   OH238430   0.343   6.299   1.160  0.5006  0.6028  0.6574
 5672TIP3    H138431   0.248   6.306   1.170  0.3452  1.1080 -0.9551
 5672TIP3    H238432   0.378   6.366   1.218 -0.0041 -0.9067  2.8260
 5673TIP3   OH238433   0.044   5.055  16.047 -0.0942  0.3700  0.3418
 5673TIP3    H138434  -0.028   5.072  15.987  0.6830  0.1155 -0.6770
 5673TIP3    H238435   0.037   5.125  16.112 -2.9112 -1.1761  1.8982
 5674TIP3   OH238436   0.852   3.296   4.718 -0.0297 -0.3971  0.2084
 5674TIP3    H138437   0.856   3.365   4.651 -0.9583  0.8146  1.3369
 5674TIP3    H238438   0.938   3.299   4.760 -0.1682  0.3078  0.4538
 5675TIP3   OH238439   5.336   2.448   4.855 -0.0418 -0.2977  0.2992
 5675TIP3    H138440   5.367   2.472   4.942  1.0257  0.0305 -0.1682
 5675TIP3    H238441   5.405   2.475   4.795 -0.6721 -0.7007 -0.6447
 5676TIP3   OH238442   4.536   5.866  17.223 -0.0040 -0.0203  0.1027
 5676TIP3    H138443   4.557   5.784  17.177 -1.3876  0.3258 -1.2225
 5676TIP3    H238444   4.601   5.929  17.191 -1.3499  0.4009 -2.0338
 5677TIP3   OH238445   5.127   5.206  14.539  0.7331 -0.0600 -0.2084
 5677TIP3    H138446   5.095   5.127  14.495  0.6863 -0.5386  0.6689
 5677TIP3    H238447   5.188   5.245  14.476 -1.5621  0.9338 -2.0048
 5678TIP3   OH238448   0.844   2.865   3.979  0.7580 -0.1072  0.7016
 5678TIP3    H138449   0.800   2.786   4.010  1.3912 -0.5441  0.5017
 5678TIP3    H238450   0.848   2.922   4.056 -0.8342  0.2723  0.5464
 5679TIP3   OH238451   0.298   2.224   0.086 -0.3758  0.1785  0.0204
 5679TIP3    H138452   0.391   2.229   0.067 -0.1682  0.0790  0.9694
 5679TIP3    H238453   0.257   2.286   0.026  0.2050 -0.3873 -0.9834
 5680TIP3   OH238454   4.303   0.556   2.148  0.3473 -0.3865 -0.7333
 5680TIP3    H138455   4.253   0.567   2.229  1.7464 -1.6937  0.3520
 5680TIP3    H238456   4.240   0.518   2.087  0.0568 -2.4425  0.7495
 5681TIP3   OH238457   1.478   0.323   5.327 -0.1385  0.1131 -0.4139
 5681TIP3    H138458   1.466   0.348   5.419  1.4594 -0.8711  0.0964
 5681TIP3    H238459   1.437   0.394   5.277 -0.4001  1.0221  1.0461
 5682TIP3   OH238460   6.747   4.172  13.754  0.1903  0.1918 -0.8561
 5682TIP3    H138461   6.766   4.198  13.844 -0.4612  0.2228 -0.7223
 5682TIP3    H238462   6.816   4.109  13.732 -1.4035 -2.3107  0.7999
 5683TIP3   OH238463   0.369   4.146  14.215 -0.5409  0.1462  0.1671
 5683TIP3    H138464   0.364   4.225  14.269  0.8406  0.5136 -0.1915
 5683TIP3    H238465   0.287   4.144  14.167  0.0222  2.2481 -0.9767
 5684TIP3   OH238466   5.946   0.454  11.161 -0.1460 -0.0100 -0.2847
 5684TIP3    H138467   5.860   0.443  11.200 -0.0738 -1.0625 -0.3834
 5684TIP3    H238468   5.943   0.539  11.117 -0.3992  0.9625  1.5545
 5685TIP3   OH238469   4.525   0.819   3.966 -0.1818 -0.5016  0.5119
 5685TIP3    H138470   4.582   0.809   4.043 -0.8371 -0.2356  1.0376
 5685TIP3    H238471   4.534   0.911   3.942 -0.9664 -0.2626  1.0708
 5686TIP3   OH238472   4.024   3.496  13.938 -0.8148  0.2492  0.1295
 5686TIP3    H138473   4.066   3.425  13.889 -2.3285  0.1506 -1.0905
 5686TIP3    H238474   4.088   3.567  13.936  0.6407 -0.9671  1.1910
 5687TIP3   OH238475   2.822   6.017  14.419 -0.0069  0.1811 -0.3979
 5687TIP3    H138476   2.776   5.934  14.429 -0.5685  0.5569  0.2640
 5687TIP3    H238477   2.914   5.993  14.418 -0.1822 -0.5017 -0.7908
 5688TIP3   OH238478   4.595   1.810   2.801 -0.3379 -0.1428 -0.1624
 5688TIP3    H138479   4.586   1.906   2.800 -1.7765 -0.1835  2.1038
 5688TIP3    H238480   4.631   1.789   2.715  1.2308  2.5282 -0.2797
 5689TIP3   OH238481   1.600   3.838  16.195 -0.1532  0.3598 -0.1733
 5689TIP3    H138482   1.553   3.756  16.206 -0.3058  0.4524 -0.1321
 5689TIP3    H238483   1.676   3.830  16.254 -0.5915  0.5675  0.4284
 5690TIP3   OH238484   1.605   4.264   5.714  0.4320  0.3580 -0.2932
 5690TIP3    H138485   1.700   4.280   5.716  0.4029  0.8218 -1.5773
 5690TIP3    H238486   1.572   4.310   5.791  1.3691 -0.7873  0.8324
 5691TIP3   OH238487   5.767   3.209  12.950  0.0736 -0.5670 -0.1510
 5691TIP3    H138488   5.761   3.197  13.045  0.8943 -2.8509 -0.3351
 5691TIP3    H238489   5.796   3.124  12.916  0.4938  0.3925 -2.3943
 5692TIP3   OH238490   1.315   0.386   4.602  0.3585 -0.1192 -0.5312
 5692TIP3    H138491   1.277   0.298   4.606 -0.0708  0.0623 -0.5350
 5692TIP3    H238492   1.286   0.428   4.683  2.6502 -0.7946  0.7385
 5693TIP3   OH238493   3.349   2.206   1.175 -0.2517 -1.0633  0.6065
 5693TIP3    H138494   3.274   2.147   1.175  0.3335 -1.8956 -1.5738
 5693TIP3    H238495   3.320   2.280   1.121  0.6485 -1.6569 -0.7281
 5694TIP3   OH238496   6.556   3.579  13.506 -0.0333 -0.4328  0.2690
 5694TIP3    H138497   6.550   3.516  13.578  2.9264 -1.0272  0.0939
 5694TIP3    H238498   6.642   3.563  13.467  0.0572  2.5068 -0.9422
 5695TIP3   OH238499   2.326   2.472  13.683  0.3154  0.4141  0.1726
 5695TIP3    H138500   2.346   2.409  13.752  0.0401 -1.4937 -1.4275
 5695TIP3    H238501   2.260   2.530  13.722 -1.2730 -1.7845  0.9131
 5696TIP3   OH238502   6.193   2.572  16.224  0.0601 -1.0404 -0.2453
 5696TIP3    H138503   6.242   2.490  16.229  0.9634 -0.5531 -0.6269
 5696TIP3    H238504   6.150   2.580  16.309 -0.1459 -1.9691 -0.2557
 5697TIP3   OH238505   5.836   3.960   0.547 -0.4128  0.1008  0.1805
 5697TIP3    H138506   5.853   3.995   0.634 -0.0780  0.4894 -0.0329
 5697TIP3    H238507   5.826   4.038   0.492  0.9923 -0.1193 -0.4298
 5698TIP3   OH238508   4.287   5.269   0.474  0.4131  0.5707  0.6544
 5698TIP3    H138509   4.234   5.194   0.498  0.9083 -0.9335 -2.3534
 5698TIP3    H238510   4.376   5.247   0.504  0.2245  0.8737  1.4577
 5699TIP3   OH238511   0.527   2.108  13.918 -0.2558 -0.0428  0.6890
 5699TIP3    H138512   0.587   2.097  13.992  1.5836  2.3037 -0.3381
 5699TIP3    H238513   0.579   2.152  13.851 -2.5459  0.1162 -1.1155
 5700TIP3   OH238514   0.800   0.499   5.836 -0.4043  0.1363 -0.0712
 5700TIP3    H138515   0.713   0.476   5.805  0.6235 -2.8131 -1.1520
 5700TIP3    H238516   0.851   0.513   5.757  0.1912  1.5372  0.5380
 5701TIP3   OH238517   3.535   5.805   1.056 -0.1697  0.5401 -0.3296
 5701TIP3    H138518   3.458   5.761   1.090 -0.3959  0.9034 -0.3668
 5701TIP3    H238519   3.553   5.875   1.119  1.5773 -1.0138  1.0086
 5702TIP3   OH238520   0.716   0.323   6.156  0.2461  0.1941  0.0656
 5702TIP3    H138521   0.755   0.244   6.118 -2.3818 -0.6502 -1.1635
 5702TIP3    H238522   0.689   0.297   6.244 -2.3744 -1.0465 -0.9912
 5703TIP3   OH238523   4.370   4.802   3.282  0.2758 -0.2762 -0.4180
 5703TIP3    H138524   4.430   4.876   3.286 -0.7620  0.6026 -0.5755
 5703TIP3    H238525   4.311   4.815   3.356 -1.0991  0.1297 -1.5429
 5704TIP3   OH238526   4.773   3.740   5.326 -0.6463  0.4318  0.1769
 5704TIP3    H138527   4.722   3.794   5.386 -0.4339  2.9410 -1.7361
 5704TIP3    H238528   4.710   3.712   5.259  0.2621  3.4762 -2.1524
 5705TIP3   OH238529   2.607   4.086  14.401  0.5754  0.2819 -0.6655
 5705TIP3    H138530   2.603   4.168  14.352  1.6059  0.2963 -0.7592
 5705TIP3    H238531   2.560   4.103  14.482  0.7951  0.9721 -0.6828
 5706TIP3   OH238532   1.358   4.570  14.597  0.3750  0.5451 -0.4795
 5706TIP3    H138533   1.357   4.636  14.528  0.0513  1.3413  0.2862
 5706TIP3    H238534   1.385   4.617  14.676  0.6776 -0.3422 -0.0359
 5707TIP3   OH238535   1.364   4.303   3.718 -0.6489  0.1205  0.4149
 5707TIP3    H138536   1.441   4.354   3.743 -1.1484  1.6895 -1.0914
 5707TIP3    H238537   1.302   4.318   3.789 -0.5452  1.0919  0.3166
 5708TIP3   OH238538   4.803   5.296   6.530 -0.1788  0.4354  0.0845
 5708TIP3    H138539   4.816   5.289   6.625  1.0368  0.0831 -0.0943
 5708TIP3    H238540   4.710   5.277   6.518 -0.6460  1.7132  1.3134
 5709TIP3   OH238541   6.409   4.316  13.315  0.0859  0.7242  0.1221
 5709TIP3    H138542   6.366   4.269  13.243  1.4856  0.0254 -0.3067
 5709TIP3    H238543   6.502   4.300  13.301  0.4456  1.4138  1.5403
 5710TIP3   OH238544   0.322   3.436   5.836 -0.5134 -0.0370  0.0028
 5710TIP3    H138545   0.339   3.521   5.877  1.2824  0.5894 -1.8591
 5710TIP3    H238546   0.265   3.390   5.898 -1.5825  2.5158  1.0563
 5711TIP3   OH238547   1.999   3.219   4.038  0.1167  0.0827  0.1891
 5711TIP3    H138548   1.997   3.178   3.952  0.8058  2.7472 -1.2037
 5711TIP3    H238549   2.076   3.182   4.081  0.8998  0.1107 -1.1350
 5712TIP3   OH238550   4.197   2.127   1.522  0.2748 -0.0045 -0.8030
 5712TIP3    H138551   4.191   2.134   1.427  0.0734 -0.7667 -0.8514
 5712TIP3    H238552   4.152   2.045   1.543 -0.1533  0.4198 -0.0010
 5713TIP3   OH238553   3.485   0.349   3.783  0.0702  0.2866 -0.3973
 5713TIP3    H138554   3.529   0.271   3.748  0.0257 -0.0603  0.2991
 5713TIP3    H238555   3.417   0.369   3.719  0.4390  0.0777 -0.8536
 5714TIP3   OH238556   0.102   3.875  14.032 -0.5588 -0.4676 -0.6185
 5714TIP3    H138557   0.066   3.827  13.957  1.9228 -0.5791 -1.8747
 5714TIP3    H238558   0.081   3.821  14.108 -1.2754 -1.4922 -1.5172
 5715TIP3   OH238559   4.409   3.327  12.273 -0.2554  0.1841  0.6678
 5715TIP3    H138560   4.359   3.405  12.298 -0.6883  0.4781 -0.9655
 5715TIP3    H238561   4.343   3.259  12.260 -0.0816  0.0989  0.1932
 5716TIP3   OH238562   3.607   5.788   0.545  0.1133  0.5795  0.6200
 5716TIP3    H138563   3.562   5.805   0.462  1.6641  0.4851 -0.2762
 5716TIP3    H238564   3.615   5.693   0.549  0.4301  0.6072  0.6525
 5717TIP3   OH238565   5.812   0.523   0.373  0.3724  1.5224  0.6659
 5717TIP3    H138566   5.837   0.527   0.466 -0.5669  2.0981  0.9150
 5717TIP3    H238567   5.761   0.602   0.359 -1.0396  0.5706  0.1433
 5718TIP3   OH238568   0.577   0.302   1.218  0.7905  0.0800  0.6379
 5718TIP3    H138569   0.625   0.364   1.163 -0.4761 -0.4436 -1.1778
 5718TIP3    H238570   0.630   0.223   1.217  1.0601  0.2611  0.6330
 5719TIP3   OH238571   2.449   2.194   1.279 -0.4062  0.1424 -0.7509
 5719TIP3    H138572   2.534   2.174   1.319 -0.4260  0.2469 -0.6594
 5719TIP3    H238573   2.409   2.258   1.337 -0.2044  0.7021 -1.2161
 5720TIP3   OH238574   2.494   0.484  17.138 -0.1652  0.2082 -0.4564
 5720TIP3    H138575   2.409   0.526  17.154 -0.0438  1.3911 -2.5046
 5720TIP3    H238576   2.558   0.543  17.178 -0.2192 -0.1506  0.1807
 5721TIP3   OH238577   5.990   0.741   1.339  0.2982 -0.1739 -0.2666
 5721TIP3    H138578   5.904   0.777   1.317 -0.1786 -0.1270  1.5406
 5721TIP3    H238579   5.979   0.701   1.425  2.1530  0.0816  0.1515
 5722TIP3   OH238580   0.429   2.889  13.541  0.3532 -0.3786  0.1319
 5722TIP3    H138581   0.357   2.939  13.579 -0.1056 -1.3371  0.5850
 5722TIP3    H238582   0.390   2.805  13.518  1.2942 -0.8835  0.2893
 5723TIP3   OH238583   6.121   0.685  16.391 -0.5759  0.0589  0.5994
 5723TIP3    H138584   6.193   0.634  16.355 -1.0742 -0.8688  0.8837
 5723TIP3    H238585   6.142   0.695  16.483 -0.6650  0.0459  0.6205
 5724TIP3   OH238586   5.484   6.010  16.064  0.5971  0.5180 -0.4790
 5724TIP3    H138587   5.507   5.941  16.002 -0.5380  1.6984 -2.2942
 5724TIP3    H238588   5.514   6.091  16.023  0.5873  1.2755  0.9317
 5725TIP3   OH238589   4.487   2.040   2.019  0.3681 -0.8904 -0.0541
 5725TIP3    H138590   4.465   2.025   1.928 -2.5242  1.0828  0.1758
 5725TIP3    H238591   4.542   2.118   2.018 -2.1764  1.0420 -0.0776
 5726TIP3   OH238592   0.094   4.434  13.815 -0.3250 -0.5564  0.3226
 5726TIP3    H138593   0.149   4.507  13.788  0.4759 -1.0045  0.7020
 5726TIP3    H238594   0.081   4.383  13.735 -0.2601 -0.3925  0.2085
 5727TIP3   OH238595   0.085   1.677   2.847  0.3003 -0.4478 -0.6447
 5727TIP3    H138596   0.013   1.624   2.813 -0.8499  0.9631 -0.5334
 5727TIP3    H238597   0.042   1.740   2.905  1.7915 -0.3905  0.4459
 5728TIP3   OH238598   0.148   1.258  13.123  0.3484 -0.5364 -0.3438
 5728TIP3    H138599   0.124   1.343  13.160  0.6230 -0.0480 -1.2580
 5728TIP3    H238600   0.168   1.276  13.031  1.4747 -1.3940 -0.2991
 5729TIP3   OH238601   3.066   6.599  13.635 -0.1887 -0.1600 -0.6348
 5729TIP3    H138602   3.116   6.678  13.615 -2.5828  1.1781 -1.7006
 5729TIP3    H238603   3.013   6.622  13.711  0.0852 -1.2267 -0.0992
 5730TIP3   OH238604   0.368   0.865  15.057 -0.1025  0.1542  1.0958
 5730TIP3    H138605   0.330   0.899  15.138 -0.7730 -1.2191  1.3988
 5730TIP3    H238606   0.324   0.915  14.988  0.9400  1.7812  1.5652
 5731TIP3   OH238607   1.623   0.218  17.303 -0.8576 -0.3027  0.0923
 5731TIP3    H138608   1.678   0.199  17.379 -1.3517 -0.3927  0.4339
 5731TIP3    H238609   1.673   0.283  17.253 -0.8607  0.3274  0.8837
 5732TIP3   OH238610   5.037   3.770  13.864 -0.4186  0.5320 -0.2099
 5732TIP3    H138611   5.022   3.790  13.956  0.8580  1.0256 -0.0873
 5732TIP3    H238612   5.080   3.685  13.864 -0.3707  0.5557 -0.3395
 5733TIP3   OH238613   6.117   5.953   0.202 -0.2019 -0.3356 -0.3861
 5733TIP3    H138614   6.055   5.904   0.149 -0.4415 -0.1393 -0.2856
 5733TIP3    H238615   6.203   5.924   0.171 -0.3248  0.3745 -1.4487
 5734TIP3   OH238616   1.912   5.293  11.438  0.0316  0.3405 -0.4145
 5734TIP3    H138617   1.836   5.275  11.382  0.3990  1.1302 -1.1903
 5734TIP3    H238618   1.878   5.347  11.509 -0.1441  0.6262 -0.7172
 5735TIP3   OH238619   5.817   5.534  15.335  0.4368 -0.1818 -0.2066
 5735TIP3    H138620   5.780   5.462  15.387  0.6575 -0.1879 -0.0560
 5735TIP3    H238621   5.743   5.592  15.319  0.4788  0.1073  0.6007
 5736TIP3   OH238622   0.663   4.476  14.336 -0.3464 -0.1463  0.2483
 5736TIP3    H138623   0.589   4.515  14.289 -0.5688 -0.7662  0.0669
 5736TIP3    H238624   0.718   4.550  14.360 -0.0248  0.1663 -1.3380
 5737TIP3   OH238625   5.738   3.433  14.579 -0.5330  0.0223  0.3422
 5737TIP3    H138626   5.745   3.437  14.484  0.4722 -0.2974  0.3893
 5737TIP3    H238627   5.802   3.497  14.611  1.2797 -1.9092  0.8109
 5738TIP3   OH238628   0.708   3.249   5.158 -0.4865 -0.1633  0.1314
 5738TIP3    H138629   0.784   3.259   5.101  0.4904  0.8834  1.5558
 5738TIP3    H238630   0.692   3.154   5.159  1.2079 -0.4874  0.2982
 5739TIP3   OH238631   0.069   0.804   1.021  0.3334 -0.1923  0.0845
 5739TIP3    H138632   0.072   0.711   0.999  0.2550 -0.1473 -0.1186
 5739TIP3    H238633   0.125   0.846   0.956  0.6862 -0.1416  0.4158
 5740TIP3   OH238634   2.092   0.864   0.740 -0.0695 -0.3528  0.2460
 5740TIP3    H138635   2.068   0.885   0.830  0.9219  0.6192  0.2916
 5740TIP3    H238636   2.154   0.932   0.715 -0.0487 -0.8302 -1.0496
 5741TIP3   OH238637   3.407   3.199   3.067  0.8608 -0.1095 -0.0734
 5741TIP3    H138638   3.370   3.245   2.991 -0.0833 -0.8472 -0.0850
 5741TIP3    H238639   3.477   3.145   3.031  1.2837  0.5191 -0.2144
 5742TIP3   OH238640   1.268   4.826   6.018  0.2271 -0.0384  0.1783
 5742TIP3    H138641   1.180   4.807   6.051  0.0313  0.3414 -0.1125
 5742TIP3    H238642   1.327   4.774   6.073 -0.2299 -0.8458 -0.0749
 5743TIP3   OH238643   6.346   0.003   0.049 -0.2509  0.4923  0.3960
 5743TIP3    H138644   6.313  -0.073   0.002  2.9182 -0.7826 -0.0129
 5743TIP3    H238645   6.274   0.066   0.046 -1.2661 -0.5651 -3.6401
 5744TIP3   OH238646   5.564   5.455  12.573 -0.1054  0.1008 -0.0519
 5744TIP3    H138647   5.625   5.445  12.500  0.9276  0.7318  0.6899
 5744TIP3    H238648   5.563   5.370  12.616  1.9915  0.6243  1.2027
 5745TIP3   OH238649   2.894   0.021   2.577  0.1907  0.9824  0.4687
 5745TIP3    H138650   2.921   0.035   2.668  1.6408  0.3973  0.1527
 5745TIP3    H238651   2.952  -0.048   2.545 -1.2846  0.1192 -0.4729
 5746TIP3   OH238652   0.977   4.663  17.260 -0.3644 -0.3582 -0.0570
 5746TIP3    H138653   1.073   4.660  17.264 -0.4099 -0.2259  1.6128
 5746TIP3    H238654   0.954   4.751  17.289 -0.9766  0.0662 -1.7019
 5747TIP3   OH238655   2.556   2.298   5.109  0.2196 -0.1377  0.1081
 5747TIP3    H138656   2.579   2.261   5.194  1.2479 -1.0084 -0.5387
 5747TIP3    H238657   2.612   2.253   5.046 -0.9770  0.0281 -1.1279
 5748TIP3   OH238658   6.302   6.387   6.084 -0.0570  0.4148  0.3098
 5748TIP3    H138659   6.220   6.361   6.127  0.1141  0.2297  0.5267
 5748TIP3    H238660   6.295   6.482   6.074 -0.6831  0.3001 -0.4778
 5749TIP3   OH238661   5.311   4.656  14.846 -0.0802  0.9863 -0.0019
 5749TIP3    H138662   5.330   4.654  14.752 -0.3687  0.4797 -0.0528
 5749TIP3    H238663   5.218   4.675  14.852 -0.1688  0.5234  0.1641
 5750TIP3   OH238664   0.617   6.531  16.053 -0.5421  0.9183  0.1766
 5750TIP3    H138665   0.620   6.599  16.120  2.0300  0.3363  0.7788
 5750TIP3    H238666   0.708   6.499  16.048 -1.4118 -1.6562 -0.8960
 5751TIP3   OH238667   2.386   3.399   2.635  0.1376  0.6093 -0.1823
 5751TIP3    H138668   2.354   3.455   2.706 -0.1025 -0.0870  0.2733
 5751TIP3    H238669   2.430   3.326   2.680  0.6671  0.5576 -0.7686
 5752TIP3   OH238670   2.010   4.138   6.726 -0.2272  0.4701 -0.4416
 5752TIP3    H138671   1.915   4.141   6.730 -0.2626  2.7015 -1.3067
 5752TIP3    H238672   2.035   4.225   6.693  1.9985 -0.6047 -1.8481
 5753TIP3   OH238673   5.530   3.777  17.253  0.5567 -0.4013  0.3352
 5753TIP3    H138674   5.543   3.682  17.249  0.9167 -0.3726  0.7953
 5753TIP3    H238675   5.593   3.808  17.318  0.9131  0.2407 -0.2970
 5754TIP3   OH238676   5.442   4.060   0.342 -0.0964  0.1557 -0.4598
 5754TIP3    H138677   5.352   4.039   0.367 -0.2870  0.7750 -0.6135
 5754TIP3    H238678   5.449   4.028   0.251 -0.2445  0.3567 -0.5412
 5755TIP3   OH238679   1.823   6.209  14.954 -0.3202  0.1544  0.5159
 5755TIP3    H138680   1.896   6.227  14.895 -0.8138  1.0382  0.1525
 5755TIP3    H238681   1.746   6.208  14.897 -0.8074  1.0598  1.1305
 5756TIP3   OH238682   6.555   4.516   3.284  0.2507  0.1344 -0.7503
 5756TIP3    H138683   6.536   4.462   3.360 -0.9851 -0.7926 -1.6656
 5756TIP3    H238684   6.471   4.525   3.239  0.7281  1.6174 -1.4050
 5757TIP3   OH238685   6.621   2.320   2.189 -0.1224  0.0507 -0.3117
 5757TIP3    H138686   6.605   2.237   2.145  1.8093 -0.3471 -0.3630
 5757TIP3    H238687   6.665   2.296   2.271  0.4577  1.0036 -0.3204
 5758TIP3   OH238688   4.108   3.836   2.298 -0.2165  0.1204 -0.1403
 5758TIP3    H138689   4.189   3.827   2.348 -0.3075  0.0574 -0.0035
 5758TIP3    H238690   4.089   3.748   2.265  0.2020  0.2900 -0.8515
 5759TIP3   OH238691   6.465   2.630  16.016 -0.0162  0.6193  0.0658
 5759TIP3    H138692   6.513   2.612  15.935  1.1084  1.4232  0.5309
 5759TIP3    H238693   6.402   2.558  16.023 -1.0380  1.2042 -2.1864
 5760TIP3   OH238694   5.158   1.688  11.823 -0.5254  0.6533  0.5818
 5760TIP3    H138695   5.144   1.687  11.729  0.5887  1.8566  0.3806
 5760TIP3    H238696   5.176   1.779  11.845 -1.1256  0.4569  2.0233
 5761TIP3   OH238697   5.597   3.786  13.849 -0.0015  0.2703  0.1092
 5761TIP3    H138698   5.684   3.826  13.851  0.3370 -0.4603  0.3702
 5761TIP3    H238699   5.592   3.744  13.762 -1.6647  3.6448 -1.6312
 5762TIP3   OH238700   1.668   0.195   6.074  0.1391 -0.2419  0.1640
 5762TIP3    H138701   1.599   0.261   6.088  0.7834  0.5294 -0.2274
 5762TIP3    H238702   1.631   0.115   6.110 -1.0381  0.1156 -0.1911
 5763TIP3   OH238703   6.097   5.745  13.314 -0.0373  0.0850 -0.1335
 5763TIP3    H138704   6.145   5.662  13.321  0.4288  0.4072  0.5388
 5763TIP3    H238705   6.017   5.731  13.365 -0.7737 -0.5065 -1.3827
 5764TIP3   OH238706   5.548   0.390   0.171  0.0277 -0.1743  0.0067
 5764TIP3    H138707   5.533   0.341   0.089 -0.3768 -1.4222  0.7907
 5764TIP3    H238708   5.642   0.406   0.173  0.5106 -2.5802  0.5672
 5765TIP3   OH238709   4.696   5.913   1.151 -0.1238  0.1081 -0.6323
 5765TIP3    H138710   4.729   5.847   1.212  0.6488  0.1495 -0.9883
 5765TIP3    H238711   4.607   5.885   1.130 -0.2007 -0.2031  0.0838
 5766TIP3   OH238712   6.263   1.190   2.427  0.2033  0.1626 -0.1410
 5766TIP3    H138713   6.221   1.118   2.380 -1.5515 -0.2937  1.9795
 5766TIP3    H238714   6.192   1.250   2.450  1.0401  0.6184  1.4518
 5767TIP3   OH238715   2.512   2.240  16.346 -0.5258  0.2177 -0.1507
 5767TIP3    H138716   2.549   2.325  16.324  1.3408  0.4938  3.4059
 5767TIP3    H238717   2.433   2.260  16.397  0.1818 -0.1255  1.1113
 5768TIP3   OH238718   1.901   6.349   3.852  0.0588  0.3193  0.1041
 5768TIP3    H138719   1.821   6.372   3.804 -0.5477 -0.0636  0.9012
 5768TIP3    H238720   1.968   6.407   3.816 -0.3339 -0.0600 -1.3029
 5769TIP3   OH238721   4.848   5.554   5.889  0.2975 -0.3371  0.4753
 5769TIP3    H138722   4.834   5.509   5.806  1.8078 -0.5392  0.3145
 5769TIP3    H238723   4.876   5.642   5.865 -1.5705  0.3998  0.7986
 5770TIP3   OH238724   2.675   5.934   2.010  0.2230 -0.6387  0.5622
 5770TIP3    H138725   2.593   5.907   1.970  0.0094 -0.4926  0.8949
 5770TIP3    H238726   2.648   5.992   2.082  0.6769  1.8460 -1.1393
 5771TIP3   OH238727   6.578   4.227   1.815  0.0285  0.3785 -0.7294
 5771TIP3    H138728   6.664   4.187   1.827  0.3674  0.2743 -3.0936
 5771TIP3    H238729   6.545   4.189   1.734 -1.9429  0.9686 -0.2508
 5772TIP3   OH238730   4.284   6.067  16.626  0.3341 -0.1130 -0.0289
 5772TIP3    H138731   4.219   6.133  16.651 -1.6253 -1.3621 -1.5931
 5772TIP3    H238732   4.239   6.011  16.563  2.5849 -1.7497 -0.2973
 5773TIP3   OH238733   4.881   4.559  12.683 -0.4516  0.4937  0.3668
 5773TIP3    H138734   4.856   4.495  12.617  1.2307 -1.1756  1.2432
 5773TIP3    H238735   4.797   4.591  12.718 -1.3437 -0.4715 -0.7886
 5774TIP3   OH238736   5.198   5.346   7.051  0.1294 -0.1811  0.4710
 5774TIP3    H138737   5.236   5.432   7.031  0.2210 -0.1999  0.5608
 5774TIP3    H238738   5.147   5.324   6.974  1.9342 -1.0926 -0.5370
 5775TIP3   OH238739   6.485   0.019   0.850  1.1387 -0.1996  0.5580
 5775TIP3    H138740   6.527   0.099   0.817  2.3096 -1.2963 -0.7104
 5775TIP3    H238741   6.433   0.049   0.925  0.1094  2.0294 -0.9493
 5776TIP3   OH238742   5.442   2.154  13.905  0.6280  0.7721  0.5165
 5776TIP3    H138743   5.516   2.201  13.943  0.5580  2.4399 -1.2654
 5776TIP3    H238744   5.436   2.187  13.815 -1.3323 -0.4538  0.1381
 5777TIP3   OH238745   5.515   2.596   4.705  0.2180  0.2759  0.0800
 5777TIP3    H138746   5.555   2.572   4.621 -0.5174 -0.2040 -0.1445
 5777TIP3    H238747   5.487   2.687   4.694  0.5501  0.3660 -0.0279
 5778TIP3   OH238748   2.823   1.095   3.347  0.5640 -0.5076 -0.3785
 5778TIP3    H138749   2.888   1.156   3.311  2.5973 -2.2814  0.1180
 5778TIP3    H238750   2.870   1.012   3.355 -1.0646 -1.2765  2.3008
 5779TIP3   OH238751   2.576   5.026   4.617  0.4619 -0.2923  0.6725
 5779TIP3    H138752   2.584   5.011   4.523  1.8381 -0.4461  0.8005
 5779TIP3    H238753   2.482   5.037   4.631  0.2953  0.4057 -0.8134
 5780TIP3   OH238754   3.014   5.559   6.049  0.3219 -0.1188 -0.6098
 5780TIP3    H138755   2.986   5.646   6.080  0.2577  0.0310 -1.0733
 5780TIP3    H238756   2.999   5.562   5.955 -1.3619 -1.2551 -0.4159
 5781TIP3   OH238757   1.028   1.603  15.653  0.8989 -0.2753 -0.3077
 5781TIP3    H138758   0.939   1.593  15.621  0.4265 -1.2360  1.1725
 5781TIP3    H238759   1.064   1.514  15.651  1.7909  0.0883 -0.7991
 5782TIP3   OH238760   5.572   1.235   5.001  0.4044 -0.3090  0.3246
 5782TIP3    H138761   5.481   1.254   5.021 -0.0301 -0.7338 -1.1433
 5782TIP3    H238762   5.595   1.162   5.058 -0.5451 -0.9855 -0.1367
 5783TIP3   OH238763   4.734   1.958   5.827  0.0566  0.6934  0.3811
 5783TIP3    H138764   4.752   1.870   5.796  0.0827  0.3003  1.4817
 5783TIP3    H238765   4.638   1.965   5.827  0.0641  1.1821 -1.0630
 5784TIP3   OH238766   3.307   1.845   3.415 -0.0951  0.1022 -0.4306
 5784TIP3    H138767   3.402   1.850   3.428 -0.0357  0.2369 -0.9138
 5784TIP3    H238768   3.285   1.927   3.370 -0.3043 -0.3478 -1.1556
 5785TIP3   OH238769   0.955   6.428   3.786  0.2046 -0.6796 -0.2721
 5785TIP3    H138770   0.969   6.519   3.810 -2.2763  0.1998 -1.7884
 5785TIP3    H238771   1.003   6.416   3.704  0.3666 -0.6970 -0.1757
 5786TIP3   OH238772   3.704   1.672   4.007  0.0329 -0.3559  0.4668
 5786TIP3    H138773   3.640   1.601   3.997 -0.7432  0.4563 -0.5431
 5786TIP3    H238774   3.762   1.642   4.078 -1.5428 -1.0500  1.5133
 5787TIP3   OH238775   2.178   2.731   5.830 -0.2174 -0.1732 -0.1236
 5787TIP3    H138776   2.100   2.705   5.879 -0.1780  0.6549  0.3988
 5787TIP3    H238777   2.192   2.823   5.854  0.0467  0.1261 -1.3778
 5788TIP3   OH238778   2.977   4.747  16.365 -0.1524  0.2323 -0.6846
 5788TIP3    H138779   2.968   4.797  16.446 -0.7402  0.8359 -1.1169
 5788TIP3    H238780   3.004   4.659  16.394 -0.1298  0.5034  0.1426
 5789TIP3   OH238781   0.984   5.921  13.450 -0.8518 -0.3946  0.4173
 5789TIP3    H138782   1.068   5.947  13.487 -1.6403  1.2271  1.1447
 5789TIP3    H238783   0.970   5.832  13.481  0.4727 -0.5944  0.4798
 5790TIP3   OH238784   0.254   3.269  14.856 -0.4354 -0.6033  0.2896
 5790TIP3    H138785   0.206   3.206  14.802 -0.2447 -0.8523  0.4056
 5790TIP3    H238786   0.264   3.224  14.940  1.2178 -1.1396 -0.1614
 5791TIP3   OH238787   3.614   6.653   6.258  0.4396 -0.0675 -0.1453
 5791TIP3    H138788   3.678   6.700   6.204  1.4757 -0.7383  0.4445
 5791TIP3    H238789   3.661   6.637   6.340  0.7581 -3.4715 -0.8467
 5792TIP3   OH238790   6.572   4.700   6.090  0.7422 -0.2263 -0.3695
 5792TIP3    H138791   6.509   4.772   6.081  0.2703 -0.4860  0.6945
 5792TIP3    H238792   6.575   4.661   6.003  0.7693  0.8786 -0.8886
 5793TIP3   OH238793   0.211   4.099   5.219  0.3747 -0.1754 -0.0210
 5793TIP3    H138794   0.225   4.192   5.234  1.9451 -0.5478  1.0562
 5793TIP3    H238795   0.173   4.066   5.300 -0.2600 -0.4815 -0.4264
 5794TIP3   OH238796   4.674   3.063   6.475 -1.0789  0.3132 -0.4793
 5794TIP3    H138797   4.606   3.119   6.438 -1.2919  0.2239 -0.2242
 5794TIP3    H238798   4.631   2.978   6.489 -0.8038  0.1348 -0.7078
 5795TIP3   OH238799   1.457   2.727   0.946 -0.0570 -0.0054  0.2854
 5795TIP3    H138800   1.461   2.819   0.920  0.7108 -0.3103 -0.7518
 5795TIP3    H238801   1.545   2.707   0.976 -0.3131 -0.3202  0.8365
 5796TIP3   OH238802   2.900   5.918   3.277 -0.3642 -0.2668  0.1795
 5796TIP3    H138803   2.989   5.933   3.309 -0.9416  1.5477  1.0516
 5796TIP3    H238804   2.858   5.864   3.345  0.4077 -2.3154 -0.8728
 5797TIP3   OH238805   0.212   4.191  16.612  0.4325  0.3441  0.2260
 5797TIP3    H138806   0.190   4.104  16.645 -0.9061  0.9052  0.8839
 5797TIP3    H238807   0.298   4.180  16.571  1.4728 -0.7379  2.5049
 5798TIP3   OH238808   5.307   3.562  16.250  0.0489  0.4443 -0.3604
 5798TIP3    H138809   5.377   3.627  16.255  1.9292 -1.4104 -1.4394
 5798TIP3    H238810   5.306   3.534  16.159  0.8926 -2.6429  0.4769
 5799TIP3   OH238811   2.135   1.837  15.341 -0.2763 -0.0682  0.2560
 5799TIP3    H138812   2.218   1.804  15.305 -0.2159  0.4620 -0.1192
 5799TIP3    H238813   2.123   1.789  15.423  0.8864  0.4997  0.7929
 5800TIP3   OH238814   6.297   1.982  13.660 -0.1130  0.0811  0.5434
 5800TIP3    H138815   6.242   2.033  13.601  0.2511 -1.4789 -1.2748
 5800TIP3    H238816   6.386   2.011  13.641  0.0103 -0.4719  0.2320
 5801TIP3   OH238817   2.400   2.766  13.814 -0.5728 -0.1779  0.2349
 5801TIP3    H138818   2.355   2.794  13.734 -1.0159  0.5347  0.7262
 5801TIP3    H238819   2.430   2.848  13.854 -1.4968 -0.4230  1.4658
 5802TIP3   OH238820   5.290   4.668  12.732  0.1750 -0.4059  0.0466
 5802TIP3    H138821   5.368   4.724  12.740 -0.2302  0.2261 -0.3205
 5802TIP3    H238822   5.249   4.696  12.650 -0.2071 -1.0332  0.0179
 5803TIP3   OH238823   2.594   6.645   4.857 -0.0618  0.1922 -0.7122
 5803TIP3    H138824   2.512   6.604   4.885 -0.8206  1.7213 -0.5731
 5803TIP3    H238825   2.661   6.581   4.877 -1.1877 -0.9380 -0.4547
 5804TIP3   OH238826   3.211   1.471   2.148 -0.3677  0.2337 -0.2857
 5804TIP3    H138827   3.180   1.560   2.130  0.2990  0.4259 -0.5498
 5804TIP3    H238828   3.293   1.465   2.099 -0.3198 -0.4680 -0.1231
 5805TIP3   OH238829   1.495   3.588   4.538 -0.1121 -0.1975 -0.4888
 5805TIP3    H138830   1.488   3.629   4.452  0.1051  1.6278  0.3005
 5805TIP3    H238831   1.576   3.625   4.575 -0.7263 -0.1477  0.8721
 5806TIP3   OH238832   5.240   6.078  11.867  0.2329 -0.0416  0.4593
 5806TIP3    H138833   5.243   6.152  11.806  1.2501  0.6971  1.3557
 5806TIP3    H238834   5.187   6.012  11.823 -0.2975  1.0400 -0.5762
 5807TIP3   OH238835   5.242   1.248   2.642  0.8824 -0.2646  0.4983
 5807TIP3    H138836   5.262   1.212   2.555 -0.2160 -0.4269  0.2946
 5807TIP3    H238837   5.244   1.343   2.629 -1.2496 -0.2673 -0.2257
 5808TIP3   OH238838   3.574   5.089   2.736 -0.3215  0.5611 -0.7722
 5808TIP3    H138839   3.521   5.041   2.800  1.0101  0.7374  0.5238
 5808TIP3    H238840   3.641   5.027   2.708  1.7677  1.6690  1.3408
 5809TIP3   OH238841   2.388   0.616  11.400  0.4634 -0.1553 -0.3482
 5809TIP3    H138842   2.315   0.677  11.407  0.9293  0.5029 -0.9856
 5809TIP3    H238843   2.463   0.672  11.379  1.2115 -0.7772  0.5628
 5810TIP3   OH238844   5.213   6.174   0.162 -0.3006 -0.3971 -0.2276
 5810TIP3    H138845   5.134   6.209   0.203  0.5038  1.2962 -0.0405
 5810TIP3    H238846   5.254   6.121   0.230  0.2518  1.1737  0.7046
 5811TIP3   OH238847   0.739   6.749  14.694 -0.1257  0.2903  0.1392
 5811TIP3    H138848   0.695   6.754  14.779  0.3368  1.1806  0.3438
 5811TIP3    H238849   0.776   6.837  14.681  1.7645 -0.4672  0.0870
 5812TIP3   OH238850   5.690   0.773   6.464 -0.2108  0.2525  0.1118
 5812TIP3    H138851   5.669   0.835   6.534 -0.6445 -0.8869  1.0067
 5812TIP3    H238852   5.605   0.743   6.433 -0.0720  1.4450 -1.5944
 5813TIP3   OH238853   2.527   5.573   5.536 -0.3837  0.6444 -0.3709
 5813TIP3    H138854   2.594   5.525   5.585 -0.7234  1.4853  1.0075
 5813TIP3    H238855   2.577   5.635   5.483  0.0881 -1.5143 -2.6238
 5814TIP3   OH238856   1.594   3.052  15.339  0.2403 -0.7915 -0.4377
 5814TIP3    H138857   1.635   2.975  15.378 -0.1004 -0.5483  0.4284
 5814TIP3    H238858   1.533   3.083  15.406 -0.7471 -0.6592 -1.3772
 5815TIP3   OH238859   6.248   6.072   1.479 -0.7408 -0.5764  0.5078
 5815TIP3    H138860   6.162   6.113   1.483 -0.3009  0.3207  1.1807
 5815TIP3    H238861   6.304   6.129   1.532  1.0358  0.7383 -2.5009
 5816TIP3   OH238862   1.805   3.463  11.788 -0.8517 -0.2200 -0.0611
 5816TIP3    H138863   1.772   3.549  11.815  0.6706  0.8516 -1.3416
 5816TIP3    H238864   1.779   3.456  11.696  2.3288  0.7649 -1.2001
 5817TIP3   OH238865   1.180   4.160   4.519 -0.0262  0.2536  0.1916
 5817TIP3    H138866   1.271   4.171   4.491  0.5204  1.1522  2.1636
 5817TIP3    H238867   1.151   4.080   4.474  2.3044 -1.0798  0.8699
 5818TIP3   OH238868   1.676   4.763  12.562  0.0959  0.3389  0.2279
 5818TIP3    H138869   1.600   4.821  12.561 -0.0108  0.2043  0.4208
 5818TIP3    H238870   1.707   4.767  12.653  1.2501  1.6002 -0.1981
 5819TIP3   OH238871   2.062   4.583  16.703  0.7019  0.2554  0.2003
 5819TIP3    H138872   1.976   4.543  16.713  1.2893 -0.9409  0.5950
 5819TIP3    H238873   2.050   4.648  16.634 -0.2611 -0.6487 -0.5079
 5820TIP3   OH238874   4.454   0.873   3.128 -0.8633  0.2318 -0.5315
 5820TIP3    H138875   4.460   0.789   3.083  0.5077  1.2525 -2.3990
 5820TIP3    H238876   4.363   0.880   3.154 -0.8650 -2.1511  0.3715
 5821TIP3   OH238877   3.969   1.179   1.091 -0.2894  0.0711  0.4953
 5821TIP3    H138878   3.932   1.234   1.021  0.0385 -1.7500 -1.1915
 5821TIP3    H238879   3.894   1.130   1.124 -0.4094  0.7962  1.3421
 5822TIP3   OH238880   5.589   0.906  12.225 -0.4268 -0.0149  0.3293
 5822TIP3    H138881   5.530   0.832  12.209  0.7563 -0.7997 -0.5921
 5822TIP3    H238882   5.642   0.911  12.145 -1.6538  2.9798 -0.4241
 5823TIP3   OH238883   2.112   1.166  14.487  0.3630  0.0726 -0.0336
 5823TIP3    H138884   2.147   1.255  14.488  2.0654 -0.5694  0.9634
 5823TIP3    H238885   2.130   1.131  14.574 -2.6958 -0.4017  0.5403
 5824TIP3   OH238886   6.671   5.747  14.048  0.1725  0.2636  0.5346
 5824TIP3    H138887   6.678   5.838  14.019  0.5038  0.5889  1.5901
 5824TIP3    H238888   6.577   5.730  14.050  0.0881  0.7522  0.8361
 5825TIP3   OH238889   5.807   4.934   6.659  0.1002 -0.1039  0.6891
 5825TIP3    H138890   5.759   4.889   6.729  0.1853 -1.0022  0.1886
 5825TIP3    H238891   5.880   4.875   6.640  0.2508  0.2873  0.0621
 5826TIP3   OH238892   0.485   3.917   0.748 -0.0139  0.2165  0.3127
 5826TIP3    H138893   0.432   3.955   0.677 -0.1339  0.3433  0.4694
 5826TIP3    H238894   0.421   3.897   0.817  0.1587  0.4912  0.5543
 5827TIP3   OH238895   0.474   3.908  14.316 -0.6933  0.2072 -0.2729
 5827TIP3    H138896   0.558   3.939  14.281 -0.7891  0.2649 -0.4532
 5827TIP3    H238897   0.410   3.971  14.284 -0.5152  1.4850  1.7514
 5828TIP3   OH238898   3.775   1.823   0.052 -0.3939 -0.3492  0.3036
 5828TIP3    H138899   3.840   1.816  -0.018  1.0689  0.1746  1.5491
 5828TIP3    H238900   3.692   1.802   0.010  0.2937  0.8413 -1.7944
 5829TIP3   OH238901   6.003   6.006  13.194  0.7230 -0.0079 -0.1634
 5829TIP3    H138902   5.914   5.972  13.181  0.1805  1.2322  0.1738
 5829TIP3    H238903   6.056   5.928  13.213 -0.4201 -0.7045  0.2778
 5830TIP3   OH238904   6.601   5.462   5.602  0.1814 -0.3379  0.4678
 5830TIP3    H138905   6.679   5.408   5.588 -0.3257 -1.0378  0.2556
 5830TIP3    H238906   6.581   5.453   5.695  0.4995  0.0552  0.5771
 5831TIP3   OH238907   2.400   1.616   3.742  0.0743 -0.5698 -0.1821
 5831TIP3    H138908   2.493   1.597   3.728 -0.0428 -1.5127  0.1788
 5831TIP3    H238909   2.368   1.643   3.657  0.4114 -1.4884 -0.6213
 5832TIP3   OH238910   5.265   2.040  11.171  0.0590  0.6469  0.2366
 5832TIP3    H138911   5.359   2.054  11.180 -0.1756  1.5801  1.5313
 5832TIP3    H238912   5.243   2.077  11.086  1.1514 -1.3988 -1.0348
 5833TIP3   OH238913   3.794   2.433   3.970  0.5648  0.1371 -0.2485
 5833TIP3    H138914   3.738   2.487   4.026 -0.4496  1.0180 -2.0150
 5833TIP3    H238915   3.878   2.478   3.969  0.3892  0.4745  0.0135
 5834TIP3   OH238916   4.099   0.880  11.727 -0.2045  0.1330 -0.2567
 5834TIP3    H138917   4.140   0.794  11.723 -0.4640 -0.1215  1.6159
 5834TIP3    H238918   4.071   0.898  11.637  3.1172 -0.0855 -1.4799
 5835TIP3   OH238919   6.477   6.066  15.585 -0.2880 -0.0416 -0.4523
 5835TIP3    H138920   6.518   6.088  15.668  3.9840 -2.2939 -1.6682
 5835TIP3    H238921   6.508   6.134  15.524 -2.7041  1.1160 -0.5339
 5836TIP3   OH238922   0.706   4.737  12.695  0.5419 -0.2076 -0.1273
 5836TIP3    H138923   0.651   4.659  12.696  1.4563 -0.9376 -2.0309
 5836TIP3    H238924   0.726   4.753  12.787  0.7768 -2.5679  0.2923
 5837TIP3   OH238925   6.544   5.865   3.061  0.2699 -0.3380 -0.0852
 5837TIP3    H138926   6.454   5.896   3.073  0.9507  1.7093  0.1899
 5837TIP3    H238927   6.540   5.771   3.078 -1.7757 -0.2534  0.1150
 5838TIP3   OH238928   6.158   1.428  15.183 -0.8298 -0.0511 -0.3749
 5838TIP3    H138929   6.239   1.467  15.151 -1.0455  0.8091  0.0939
 5838TIP3    H238930   6.177   1.405  15.274 -0.5573 -1.5002 -0.7749
 5839TIP3   OH238931   0.147   4.460   4.403 -0.5512 -0.2930  0.2164
 5839TIP3    H138932   0.065   4.500   4.432 -1.0879  0.5649 -2.2120
 5839TIP3    H238933   0.175   4.514   4.329  1.9209 -0.9241  0.6059
 5840TIP3   OH238934   6.170   0.146  15.398  0.0370  0.2666  0.3806
 5840TIP3    H138935   6.151   0.101  15.480 -0.1099  2.0664  1.3803
 5840TIP3    H238936   6.104   0.112  15.337  0.9910 -2.1219  0.5476
 5841TIP3   OH238937   6.676   3.527  11.308 -0.4128  0.5074 -0.1396
 5841TIP3    H138938   6.756   3.522  11.360 -0.9634  0.4946  0.7344
 5841TIP3    H238939   6.705   3.555  11.221  0.5431  0.4088  0.1385
 5842TIP3   OH238940   6.645   4.096  16.621 -0.1787 -0.3964  0.1889
 5842TIP3    H138941   6.709   4.026  16.634  1.7069  1.4676  1.8391
 5842TIP3    H238942   6.628   4.129  16.709 -0.4156  1.6762 -0.5868
 5843TIP3   OH238943   0.669   1.332  13.844 -0.1201  0.1076  0.5784
 5843TIP3    H138944   0.759   1.301  13.839 -0.7156 -1.7084  0.4980
 5843TIP3    H238945   0.658   1.388  13.767  0.9932  0.5634  0.7324
 5844TIP3   OH238946   4.520   6.109  13.151 -0.1750 -0.8511  0.7061
 5844TIP3    H138947   4.433   6.124  13.187 -0.1376 -1.3774  1.0206
 5844TIP3    H238948   4.551   6.030  13.195  0.6716 -0.3761  0.9801
 5845TIP3   OH238949   4.181   5.435  13.856 -0.3276  0.4235 -0.0692
 5845TIP3    H138950   4.234   5.402  13.784  2.3175  0.2943  1.8055
 5845TIP3    H238951   4.120   5.364  13.876  0.4630 -0.4563 -0.6986
 5846TIP3   OH238952   4.481   6.039  11.804  0.4976  0.1265  0.0175
 5846TIP3    H138953   4.412   6.038  11.870  1.1942  0.1921  0.7712
 5846TIP3    H238954   4.438   6.070  11.724 -0.8722 -2.0790 -0.1731
 5847TIP3   OH238955   5.233   2.806   0.033  0.2955 -0.3105 -0.9248
 5847TIP3    H138956   5.188   2.743  -0.024  1.3702  0.4977 -2.7452
 5847TIP3    H238957   5.279   2.864  -0.027  1.7468  0.4035  0.7952
 5848TIP3   OH238958   4.734   4.335   3.171  0.1322 -0.1117  0.7024
 5848TIP3    H138959   4.655   4.357   3.121  0.3631 -0.1775  0.2982
 5848TIP3    H238960   4.754   4.414   3.221 -0.2601 -0.1368  0.9003
 5849TIP3   OH238961   4.782   3.584   4.852 -0.7399 -0.2678 -0.2784
 5849TIP3    H138962   4.781   3.579   4.948  1.6377  0.0542 -0.1782
 5849TIP3    H238963   4.820   3.670   4.833  0.7093 -1.1329 -1.4669
 5850TIP3   OH238964   2.215   3.473  16.833 -0.2740 -0.2012  0.0631
 5850TIP3    H138965   2.255   3.394  16.796  0.2159 -0.0418  0.2350
 5850TIP3    H238966   2.213   3.535  16.761  2.1015  0.6412  0.6113
 5851TIP3   OH238967   2.531   2.528   5.268 -0.1154  0.2167 -0.0025
 5851TIP3    H138968   2.603   2.514   5.329 -0.5625  1.0241  0.7355
 5851TIP3    H238969   2.532   2.451   5.211  1.0846  0.0460  0.2332
 5852TIP3   OH238970   2.733   1.880   5.307 -0.4492  0.2292 -0.0631
 5852TIP3    H138971   2.754   1.804   5.361 -0.1017  0.4967  0.1826
 5852TIP3    H238972   2.721   1.844   5.219 -0.8929 -0.1911  0.1610
 5853TIP3   OH238973   5.271   1.599   2.307  0.3707  0.3134 -0.3708
 5853TIP3    H138974   5.322   1.661   2.359 -0.5726 -0.2255  1.2578
 5853TIP3    H238975   5.248   1.529   2.368 -4.0112  1.4643 -0.4208
 5854TIP3   OH238976   6.501   0.699  12.654 -0.3737 -0.2759 -0.0428
 5854TIP3    H138977   6.543   0.736  12.577  0.8289 -0.9724  0.2471
 5854TIP3    H238978   6.492   0.605  12.634  0.2926 -0.5311  0.7970
 5855TIP3   OH238979   3.741   4.313   1.074 -0.1561  0.4489 -0.4298
 5855TIP3    H138980   3.649   4.320   1.098 -0.2897  0.6448 -0.9925
 5855TIP3    H238981   3.789   4.340   1.153 -0.5836  0.8983 -0.3252
 5856TIP3   OH238982   5.283   0.294   1.995 -0.3483 -0.2153 -0.4786
 5856TIP3    H138983   5.236   0.222   1.955 -0.5208 -0.3417 -0.0591
 5856TIP3    H238984   5.262   0.288   2.088 -0.8561  0.7337 -0.5137
 5857TIP3   OH238985   5.099   4.677   5.395  0.4813 -0.4168 -0.3020
 5857TIP3    H138986   5.133   4.753   5.347  0.7573 -2.1701 -3.1381
 5857TIP3    H238987   5.016   4.657   5.351  1.0253 -2.4728 -0.4690
 5858TIP3   OH238988   5.570   0.867   0.654 -0.1649 -0.3779 -0.4815
 5858TIP3    H138989   5.566   0.947   0.600  0.8544  1.3597  1.8478
 5858TIP3    H238990   5.516   0.887   0.730 -0.5267 -2.2708 -0.2175
 5859TIP3   OH238991   6.114   2.318  11.382  0.1183 -0.0129  0.0519
 5859TIP3    H138992   6.133   2.229  11.414  0.2241  0.3305  0.9818
 5859TIP3    H238993   6.019   2.324  11.384  0.0071 -0.7263 -1.7879
 5860TIP3   OH238994   6.586   5.477   3.985  0.1024 -0.4522 -0.2099
 5860TIP3    H138995   6.512   5.502   3.929  0.7575 -1.8572 -1.7924
 5860TIP3    H238996   6.549   5.415   4.047  0.0646 -1.9365 -1.6318
 5861TIP3   OH238997   3.390   0.917   2.052  0.1132  0.5268 -0.6428
 5861TIP3    H138998   3.417   0.869   1.974  0.7277  0.8436 -0.6306
 5861TIP3    H238999   3.389   0.851   2.121  0.4552  0.4281 -0.7314
 5862TIP3   OH239000   4.495   4.093   2.829 -0.5091  0.2045  0.0290
 5862TIP3    H139001   4.446   4.019   2.867 -0.5133 -0.5065 -1.2954
 5862TIP3    H239002   4.452   4.109   2.745  0.0111  1.1887 -0.0601
 5863TIP3   OH239003   1.709   0.960  16.545  0.2957 -0.4634  0.0145
 5863TIP3    H139004   1.727   0.869  16.568 -0.0905 -0.3545  0.7665
 5863TIP3    H239005   1.635   0.956  16.486  1.1722 -0.7300 -1.1024
 5864TIP3   OH239006   0.404   0.286   4.408 -0.5971 -0.3432  0.1377
 5864TIP3    H139007   0.372   0.276   4.318 -0.1564 -1.4460  0.0914
 5864TIP3    H239008   0.354   0.223   4.459 -1.5929  1.0058  0.8880
 5865TIP3   OH239009   4.092   6.372  11.024  0.5903 -0.2374 -0.2327
 5865TIP3    H139010   4.012   6.322  11.042  0.4003 -0.2196 -0.9774
 5865TIP3    H239011   4.121   6.340  10.938  0.0516  1.4445 -1.0817
 5866TIP3   OH239012   6.735   0.494  16.300 -0.1674 -0.2453 -0.1706
 5866TIP3    H139013   6.724   0.523  16.391  1.5832 -1.9945  0.6920
 5866TIP3    H239014   6.646   0.482  16.268 -0.8429 -0.5307  1.6612
 5867TIP3   OH239015   1.633   0.078  13.492 -0.0034 -0.5874 -0.3478
 5867TIP3    H139016   1.587   0.028  13.560  1.1403 -2.1041 -0.6400
 5867TIP3    H239017   1.632   0.022  13.415  1.8128 -0.4232 -0.5267
 5868TIP3   OH239018   4.482   4.602  17.383 -0.1578  0.3521 -0.4240
 5868TIP3    H139019   4.486   4.697  17.394  0.4675  0.3037 -0.1727
 5868TIP3    H239020   4.573   4.576  17.367 -0.5777  0.0059 -2.4611
 5869TIP3   OH239021   4.250   6.276   5.842 -0.0473 -0.7463  0.1846
 5869TIP3    H139022   4.169   6.266   5.893  0.6030 -1.6768  1.1031
 5869TIP3    H239023   4.286   6.187   5.838  0.9425 -0.3383 -0.1804
 5870TIP3   OH239024   1.466   2.370  14.817 -0.3018  0.2838 -0.2067
 5870TIP3    H139025   1.544   2.322  14.790  0.6345  0.6569  1.7321
 5870TIP3    H239026   1.397   2.304  14.819  0.6964 -0.7681  1.2327
 5871TIP3   OH239027   2.145   5.983   5.031  0.0612 -0.0440  0.8620
 5871TIP3    H139028   2.083   5.968   5.102 -0.9570 -0.8923 -0.1575
 5871TIP3    H239029   2.215   5.919   5.045 -0.9541 -1.3417  0.2203
 5872TIP3   OH239030   1.759   2.408  12.350 -0.5247 -0.2619  0.3621
 5872TIP3    H139031   1.773   2.367  12.265  0.0815  0.3700  0.1472
 5872TIP3    H239032   1.761   2.336  12.413  0.9459 -0.5342  0.0413
 5873TIP3   OH239033   5.191   6.516  13.789  0.4934  0.0663  0.0802
 5873TIP3    H139034   5.204   6.431  13.831 -1.6192 -0.2720  0.1433
 5873TIP3    H239035   5.098   6.534  13.799 -0.1415  0.1088 -4.0664
 5874TIP3   OH239036   4.554   2.897   4.537 -0.2326 -0.1622 -0.4284
 5874TIP3    H139037   4.609   2.827   4.572 -2.4883 -2.1337 -0.5490
 5874TIP3    H239038   4.537   2.955   4.611 -0.9256 -1.5540  0.5467
 5875TIP3   OH239039   1.364   3.791  16.729  0.1607 -0.1991  0.4533
 5875TIP3    H139040   1.303   3.717  16.721 -1.8348  1.1272  2.2830
 5875TIP3    H239041   1.329   3.842  16.802  2.3424  1.7664  0.2067
 5876TIP3   OH239042   0.540   6.005   2.548 -0.6996  0.6042 -0.1144
 5876TIP3    H139043   0.598   5.979   2.476  0.3732  0.2589  0.8424
 5876TIP3    H239044   0.501   5.923   2.579 -0.4956  0.6406  0.2446
 5877TIP3   OH239045   1.050   6.327  10.971 -0.0444  0.4541 -0.0648
 5877TIP3    H139046   1.008   6.398  10.922 -0.6001  1.1721  1.3848
 5877TIP3    H239047   1.029   6.248  10.921  0.4426  1.2529 -1.6277
 5878TIP3   OH239048   6.434   0.870   2.875  0.1225  0.1727  0.0901
 5878TIP3    H139049   6.467   0.780   2.874  2.1810  0.8795 -0.5065
 5878TIP3    H239050   6.374   0.874   2.801  0.1045 -0.6535  0.0432
 5879TIP3   OH239051   3.049   6.746  11.985 -0.0760 -0.3129  0.1929
 5879TIP3    H139052   3.144   6.743  11.989 -0.1386 -1.3541  1.9862
 5879TIP3    H239053   3.025   6.674  11.926  0.2466  1.4849 -2.3234
 5880TIP3   OH239054   1.314   1.137   3.987  0.3367 -0.0137  0.1225
 5880TIP3    H139055   1.230   1.179   3.972 -0.0171 -0.9716 -0.6478
 5880TIP3    H239056   1.340   1.104   3.901  1.6233  0.4847  0.2962
 5881TIP3   OH239057   4.873   6.403  13.656 -0.1524 -0.8346  0.2871
 5881TIP3    H139058   4.884   6.459  13.733  1.1089 -0.8798  0.1486
 5881TIP3    H239059   4.780   6.411  13.634  0.2141  2.4280 -0.6312
 5882TIP3   OH239060   6.208   1.255  10.753 -0.2464 -0.4047  0.5494
 5882TIP3    H139061   6.210   1.179  10.695 -0.0694 -0.2266  0.3192
 5882TIP3    H239062   6.150   1.317  10.710  1.4696  0.5583 -0.4999
 5883TIP3   OH239063   1.551   0.551   1.035  0.1496  0.7785  0.0814
 5883TIP3    H139064   1.473   0.567   1.088  0.0719  0.6544  0.0042
 5883TIP3    H239065   1.623   0.587   1.087 -0.0413  1.5030 -0.1478
 5884TIP3   OH239066   5.193   4.414  10.796 -0.3040  0.0372 -0.1809
 5884TIP3    H139067   5.288   4.399  10.798 -0.3666 -0.3749 -0.1777
 5884TIP3    H239068   5.169   4.401  10.705 -0.6383 -1.7240  0.1170
 5885TIP3   OH239069   5.645   5.415  13.375 -0.3062  0.0453  0.0409
 5885TIP3    H139070   5.714   5.433  13.439 -0.6121  0.1637  0.3398
 5885TIP3    H239071   5.596   5.341  13.412 -0.0414 -0.3601 -0.4073
 5886TIP3   OH239072   5.819   0.962   4.553  0.2050 -0.3778  0.5169
 5886TIP3    H139073   5.735   1.000   4.528 -0.0319 -0.7643  0.7225
 5886TIP3    H239074   5.797   0.893   4.616  0.8442  1.4105  2.8411
 5887TIP3   OH239075   4.595   4.707  16.621  0.1393 -0.2267 -0.3722
 5887TIP3    H139076   4.594   4.765  16.697 -0.1189  0.7393 -1.0982
 5887TIP3    H239077   4.564   4.761  16.548  0.3233 -1.1479 -1.1600
 5888TIP3   OH239078   3.673   0.479   4.216  0.5677 -0.0788 -0.9538
 5888TIP3    H139079   3.685   0.456   4.124  1.2019 -1.2641 -0.5943
 5888TIP3    H239080   3.579   0.465   4.232  0.9043 -2.4863 -0.7696
 5889TIP3   OH239081   1.249   4.167   5.135  0.7499  0.4446  0.5320
 5889TIP3    H139082   1.295   4.161   5.051 -0.0449 -2.3977  0.1977
 5889TIP3    H239083   1.311   4.130   5.198  1.7432  3.4784  1.4852
 5890TIP3   OH239084   2.833   3.866  15.285 -0.4152 -0.2220 -0.0300
 5890TIP3    H139085   2.757   3.812  15.261  0.9399 -2.4963  0.4350
 5890TIP3    H239086   2.857   3.836  15.373 -1.2611  3.2347  1.5263
 5891TIP3   OH239087   1.770   2.089   1.131 -0.0571  0.2086 -0.1899
 5891TIP3    H139088   1.797   1.999   1.109 -1.0636 -0.1985  0.1614
 5891TIP3    H239089   1.833   2.145   1.086 -0.0792 -0.6565 -1.3412
 5892TIP3   OH239090   4.530   4.949  13.196 -0.2776  0.5157 -0.2749
 5892TIP3    H139091   4.544   5.043  13.184  0.2370  0.3813 -0.7740
 5892TIP3    H239092   4.438   4.942  13.223  0.6359  1.4492  3.6869
 5893TIP3   OH239093   1.388   5.581  13.149 -0.2956  0.4224 -0.0057
 5893TIP3    H139094   1.462   5.602  13.206  1.8991 -1.9307 -1.7206
 5893TIP3    H239095   1.338   5.515  13.197  1.8100 -1.9126 -0.7729
 5894TIP3   OH239096   5.795   1.235  14.020  0.0220  0.3484  0.0203
 5894TIP3    H139097   5.865   1.177  13.993 -1.8613 -1.3091 -1.5959
 5894TIP3    H239098   5.834   1.290  14.088  2.4971 -1.3000  0.0384
 5895TIP3   OH239099   0.312   4.822   5.684  0.0770 -0.3120 -0.1952
 5895TIP3    H139100   0.355   4.737   5.671  0.2728 -0.1780 -0.4247
 5895TIP3    H239101   0.227   4.812   5.640 -0.6191 -0.9648  1.2304
 5896TIP3   OH239102   2.361   3.965  15.557 -0.3895 -0.3495 -0.1978
 5896TIP3    H139103   2.446   4.006  15.539 -0.2898 -0.8276 -0.8122
 5896TIP3    H239104   2.371   3.929  15.646 -0.2802  0.4320  0.1177
 5897TIP3   OH239105   6.007   4.009  12.022  0.1181 -0.1590 -0.1134
 5897TIP3    H139106   6.020   3.917  12.047 -1.4139 -1.0975 -2.4111
 5897TIP3    H239107   6.026   4.010  11.928  4.0121  2.7737  0.4700
 5898TIP3   OH239108   5.938   6.487  15.346  0.2519 -0.3112 -0.9895
 5898TIP3    H139109   5.960   6.394  15.346 -2.0210 -0.9092 -0.6975
 5898TIP3    H239110   5.845   6.490  15.365  0.2322  2.0459 -1.0969
 5899TIP3   OH239111   0.069   2.228  13.170 -0.1691  0.1826 -0.0362
 5899TIP3    H139112   0.020   2.148  13.153  2.0664 -1.0021 -1.2142
 5899TIP3    H239113   0.072   2.273  13.086  1.4027 -0.1503 -0.1792
 5900TIP3   OH239114   2.191   5.771  15.542 -0.1142  0.3864 -0.5101
 5900TIP3    H139115   2.204   5.785  15.636  0.4060 -0.1959 -0.4899
 5900TIP3    H239116   2.139   5.691  15.537  0.6959 -0.1414 -0.7348
 5901TIP3   OH239117   6.714   5.568   4.392  0.1410  0.4076  0.6213
 5901TIP3    H139118   6.724   5.616   4.309 -0.2808 -0.3304  0.1261
 5901TIP3    H239119   6.708   5.636   4.458 -1.9817  1.1163 -0.2270
 5902TIP3   OH239120   3.885   4.427   4.724  0.2845  0.1191 -0.4695
 5902TIP3    H139121   3.834   4.348   4.742  1.2275 -0.6011 -0.8469
 5902TIP3    H239122   3.831   4.477   4.663 -1.0984  0.6240  1.0882
 5903TIP3   OH239123   2.620   0.104  10.577 -0.1131 -0.3276  0.2159
 5903TIP3    H139124   2.542   0.050  10.567  0.7671 -1.8741  1.3416
 5903TIP3    H239125   2.587   0.194  10.569 -2.3056 -0.8433  2.1898
 5904TIP3   OH239126   6.518   3.186  15.517  0.0874 -0.4088  0.4668
 5904TIP3    H139127   6.580   3.113  15.515 -1.9590 -2.2364 -1.3587
 5904TIP3    H239128   6.437   3.147  15.551 -0.2096  1.8808  2.6727
 5905TIP3   OH239129   4.725   4.122  11.312 -0.2457  0.1681 -1.0563
 5905TIP3    H139130   4.652   4.134  11.250 -0.8012 -0.6818 -0.5968
 5905TIP3    H239131   4.758   4.034  11.292 -1.0790 -0.5462  0.4746
 5906TIP3   OH239132   0.718   6.512  12.726  0.6308  0.2222 -0.2375
 5906TIP3    H139133   0.789   6.508  12.790  1.4491 -0.5272 -1.1674
 5906TIP3    H239134   0.644   6.547  12.776  0.9772 -1.1519  1.3486
 5907TIP3   OH239135   5.529   5.503   4.935  0.4144 -0.0768  0.4225
 5907TIP3    H139136   5.442   5.484   4.901  0.2223 -0.4223  1.0897
 5907TIP3    H239137   5.585   5.437   4.894  0.3062 -0.0594  0.2446
 5908TIP3   OH239138   0.485   4.039   0.077 -0.2739  0.1577 -0.1384
 5908TIP3    H139139   0.460   3.981   0.149 -1.2586  0.3352 -0.3275
 5908TIP3    H239140   0.418   4.024   0.010 -0.0707  0.9029 -0.5159
 5909TIP3   OH239141   0.891   5.822  13.837 -0.7153 -0.1215  0.3272
 5909TIP3    H139142   0.819   5.832  13.774 -0.2531 -1.4594 -0.4648
 5909TIP3    H239143   0.875   5.736  13.877  0.2728 -0.2888  0.3718
 5910TIP3   OH239144   0.747   2.065   3.690 -0.2285  0.3036 -0.0760
 5910TIP3    H139145   0.781   2.041   3.604  1.3989  1.5631  0.1746
 5910TIP3    H239146   0.734   2.159   3.686 -1.5613  0.1779  0.6119
 5911TIP3   OH239147   3.127   1.473   6.200  0.2427  0.3236  0.0839
 5911TIP3    H139148   3.146   1.424   6.120  0.0773  0.2080  0.1151
 5911TIP3    H239149   3.050   1.430   6.237  0.2601  0.4375  0.2544
 5912TIP3   OH239150   1.789   1.736  14.549  0.1827 -0.1304 -0.3080
 5912TIP3    H139151   1.727   1.664  14.552 -1.2910  1.0880  0.1332
 5912TIP3    H239152   1.755   1.795  14.481 -0.0003  1.2415  0.9040
 5913TIP3   OH239153   3.730   2.668   1.410  0.3081 -0.1754  0.1072
 5913TIP3    H139154   3.816   2.633   1.435  0.4325 -0.7572 -1.0704
 5913TIP3    H239155   3.711   2.733   1.477  1.9022  0.3358  0.1192
 5914TIP3   OH239156   0.753   4.399   1.446  0.2785 -0.3529 -0.2741
 5914TIP3    H139157   0.661   4.426   1.444  0.6735  1.1493  0.2278
 5914TIP3    H239158   0.762   4.353   1.530  0.3612  1.1226  0.5761
 5915TIP3   OH239159   1.218   4.323  14.552  0.5428  0.7735 -0.2279
 5915TIP3    H139160   1.272   4.394  14.587 -0.6806  1.0482  1.2030
 5915TIP3    H239161   1.279   4.251  14.539  1.5830  1.6754 -0.4926
 5916TIP3   OH239162   2.193   2.660   4.906 -0.2435 -0.5628 -0.1962
 5916TIP3    H139163   2.215   2.721   4.836 -1.4974 -0.9171 -0.9306
 5916TIP3    H239164   2.277   2.639   4.946  0.6349 -1.0210 -2.1417
 5917TIP3   OH239165   3.319   0.474   2.582 -0.5170  0.3325  0.3165
 5917TIP3    H139166   3.400   0.422   2.576 -0.3889  0.6684 -1.9841
 5917TIP3    H239167   3.255   0.425   2.531 -0.1357  2.7150 -2.7860
 5918TIP3   OH239168   0.072   1.180   0.033  0.1937 -0.2972 -0.3406
 5918TIP3    H139169  -0.000   1.192   0.094  0.4822 -0.1661 -0.0207
 5918TIP3    H239170   0.078   1.086   0.020  2.0256 -0.6421  2.1725
 5919TIP3   OH239171   0.367   4.990   1.672 -0.0843 -0.2463  0.3927
 5919TIP3    H139172   0.388   5.083   1.663 -1.2958  0.0807  0.7655
 5919TIP3    H239173   0.451   4.949   1.696  1.2950  0.1607 -3.1537
 5920TIP3   OH239174   0.906   6.497  12.408  0.2837  0.2406  0.1034
 5920TIP3    H139175   0.851   6.421  12.427  2.3935 -2.1832 -2.5120
 5920TIP3    H239176   0.979   6.489  12.470  1.2293 -0.8351 -1.0739
 5921TIP3   OH239177   5.397   0.764   0.250  0.0886  0.0781 -0.1712
 5921TIP3    H139178   5.320   0.815   0.275 -0.6690 -0.7528 -0.7592
 5921TIP3    H239179   5.369   0.716   0.172  0.9887 -0.7614  0.0166
 5922TIP3   OH239180   2.792   6.412  13.262  0.2908 -0.0661  0.1464
 5922TIP3    H139181   2.731   6.473  13.220  0.5051  0.4144  0.5187
 5922TIP3    H239182   2.878   6.437  13.228  0.4330  0.1457  0.6465
 5923TIP3   OH239183   6.379   0.246   4.062 -0.5071  0.6844 -0.5979
 5923TIP3    H139184   6.395   0.153   4.080 -1.2750  0.9597  1.6988
 5923TIP3    H239185   6.431   0.293   4.128 -1.8623  1.8262 -0.2997
 5924TIP3   OH239186   0.313   5.179  16.400 -0.1918  0.4522 -0.3411
 5924TIP3    H139187   0.295   5.098  16.448  0.1978  0.1122 -0.7625
 5924TIP3    H239188   0.358   5.150  16.321  1.6183  1.2309  0.3680
 5925TIP3   OH239189   2.469   2.452  15.742  0.3404  0.2302  0.0927
 5925TIP3    H139190   2.508   2.436  15.656  0.7592  0.2392  0.2762
 5925TIP3    H239191   2.535   2.422  15.804  0.2321  0.6445  0.4160
 5926TIP3   OH239192   0.932   6.294   1.400 -0.0552 -0.8210 -0.2021
 5926TIP3    H139193   0.980   6.240   1.462 -0.7844 -1.3057 -0.0456
 5926TIP3    H239194   0.978   6.283   1.317  1.4801  0.5384  0.4002
 5927TIP3   OH239195   2.439   1.403  14.817 -0.1988 -0.5414 -0.1448
 5927TIP3    H139196   2.528   1.369  14.827  0.5617  0.7728 -1.9052
 5927TIP3    H239197   2.442   1.455  14.737 -2.5181 -0.2816 -0.1310
 5928TIP3   OH239198   2.171   2.413  12.319 -0.3429 -0.1540 -0.2711
 5928TIP3    H139199   2.264   2.406  12.296 -0.3083 -0.2555 -0.1004
 5928TIP3    H239200   2.143   2.323  12.334 -0.0099  0.0023  1.4800
 5929TIP3   OH239201   5.133   4.997  11.685  0.3926 -0.1779  0.2496
 5929TIP3    H139202   5.204   4.939  11.658  1.4499  0.5196  1.4018
 5929TIP3    H239203   5.100   4.959  11.766 -1.1458 -0.9465 -0.6876
 5930TIP3   OH239204   5.759   3.769  14.836 -0.2137  0.0118 -0.1476
 5930TIP3    H139205   5.704   3.838  14.799 -0.2281 -0.8492 -1.8217
 5930TIP3    H239206   5.809   3.735  14.762  1.3115 -0.4141  1.0181
 5931TIP3   OH239207   0.493   3.610  15.035  0.4660 -0.6122  0.1229
 5931TIP3    H139208   0.539   3.532  15.067  1.2464  0.5024  1.8370
 5931TIP3    H239209   0.444   3.642  15.111  0.3271  0.6921 -0.4993
 5932TIP3   OH239210   5.201   2.385  15.414 -0.0477  0.2147 -0.0678
 5932TIP3    H139211   5.183   2.293  15.392 -3.2209  1.0737 -1.6997
 5932TIP3    H239212   5.205   2.386  15.510  1.8105 -1.8124 -0.0452
 5933TIP3   OH239213   6.611   0.158  16.301 -0.2212  0.2753  0.1231
 5933TIP3    H139214   6.566   0.128  16.221 -0.7477  1.4218 -0.0327
 5933TIP3    H239215   6.692   0.108  16.302 -1.2063 -1.4299  0.0876
 5934TIP3   OH239216   0.498   1.896  15.198 -0.2705 -0.0508  0.8141
 5934TIP3    H139217   0.487   1.968  15.260 -0.8517  1.7494 -1.2570
 5934TIP3    H239218   0.412   1.885  15.159  0.4486  0.0087 -0.8469
 5935TIP3   OH239219   6.190   3.715   3.098  0.7333  0.1247 -0.2447
 5935TIP3    H139220   6.114   3.737   3.045  0.6261 -1.3176 -0.7435
 5935TIP3    H239221   6.246   3.663   3.040  2.1295  1.1795  0.1094
 5936TIP3   OH239222   6.264   6.726  13.086  0.7837  0.1257  0.0506
 5936TIP3    H139223   6.310   6.736  13.003 -0.0051 -0.0057 -0.4082
 5936TIP3    H239224   6.333   6.726  13.152  1.8509 -3.7789 -0.8293
 5937TIP3   OH239225   6.209   1.517  13.131 -0.2214  0.2536  0.6933
 5937TIP3    H139226   6.176   1.430  13.108 -1.1001  0.6272  0.4997
 5937TIP3    H239227   6.305   1.507  13.130 -0.2771 -0.4309 -0.4712
 5938TIP3   OH239228   1.890   4.334  13.564 -0.2267 -0.4459  0.4695
 5938TIP3    H139229   1.934   4.281  13.498  1.7782 -0.1597  1.4905
 5938TIP3    H239230   1.843   4.401  13.514  3.9224  1.8676 -0.7926
 5939TIP3   OH239231   0.240   4.458  16.727  0.6024  0.4217 -0.1280
 5939TIP3    H139232   0.274   4.490  16.644  2.6691 -1.3855 -0.0648
 5939TIP3    H239233   0.215   4.367  16.710  0.2734  0.2716  1.0143
 5940TIP3   OH239234   6.113   4.279   3.688 -0.1684 -0.3568 -0.2807
 5940TIP3    H139235   6.088   4.360   3.644 -0.0707 -0.2747 -0.1843
 5940TIP3    H239236   6.142   4.221   3.618  0.6505  0.0128 -0.2503
 5941TIP3   OH239237   5.957   0.896   0.935 -0.3481 -0.4942 -0.4306
 5941TIP3    H139238   5.992   0.827   0.991 -1.3875 -1.2272 -0.6603
 5941TIP3    H239239   5.867   0.869   0.916 -0.8341  0.9874 -0.4037
 5942TIP3   OH239240   5.474   6.699  11.690 -0.1266  0.4875  0.6495
 5942TIP3    H139241   5.468   6.604  11.703  0.4368  0.4046  0.3478
 5942TIP3    H239242   5.434   6.714  11.604  1.8820  0.1986 -0.4078
 5943TIP3   OH239243   3.583   1.897   3.632  0.2257 -0.5145 -0.3088
 5943TIP3    H139244   3.531   1.966   3.673  0.8847 -0.4809  0.5208
 5943TIP3    H239245   3.671   1.934   3.627  0.5370 -1.2093 -0.0641
 5944TIP3   OH239246   4.950   5.564  16.745  0.1665  0.1067  0.2160
 5944TIP3    H139247   4.979   5.610  16.667 -1.7091 -0.4366 -0.8679
 5944TIP3    H239248   5.022   5.574  16.807  1.1686  1.6516 -1.1168
 5945TIP3   OH239249   5.625   4.673   1.842  0.5614 -0.6521 -0.1497
 5945TIP3    H139250   5.577   4.751   1.869 -0.0347 -1.6279  1.8206
 5945TIP3    H239251   5.577   4.641   1.765 -0.3325 -0.0940  0.1561
 5946TIP3   OH239252   3.872   2.540  11.876 -0.0412  0.2727  0.0573
 5946TIP3    H139253   3.960   2.576  11.867 -1.5899  4.5863 -0.3507
 5946TIP3    H239254   3.839   2.536  11.786 -0.1800 -1.8777  0.1441
 5947TIP3   OH239255   3.397   1.970   3.896  0.2697 -0.5577 -0.2250
 5947TIP3    H139256   3.452   1.953   3.973  1.5839  1.3285 -0.6594
 5947TIP3    H239257   3.360   2.057   3.911 -0.5551 -0.7314 -1.1175
 5948TIP3   OH239258   0.919   5.491  16.481 -0.1334  0.2311 -0.5511
 5948TIP3    H139259   0.845   5.465  16.536 -1.0476  2.0835 -0.8449
 5948TIP3    H239260   0.880   5.510  16.395  1.1391 -1.7132 -1.6540
 5949TIP3   OH239261   1.516   1.425  13.364  0.5256 -0.3239  0.3653
 5949TIP3    H139262   1.597   1.445  13.317  0.9151  0.7440  1.4528
 5949TIP3    H239263   1.517   1.330  13.372 -0.3217 -0.7647 -3.0845
 5950TIP3   OH239264   4.264   1.351  13.093 -0.2682 -0.2808 -0.4599
 5950TIP3    H139265   4.186   1.302  13.068 -0.7893  1.3322 -2.2587
 5950TIP3    H239266   4.242   1.391  13.177 -1.0242 -0.6068 -0.5032
 5951TIP3   OH239267   4.279   1.542   6.579  0.1162  0.2989 -0.0878
 5951TIP3    H139268   4.291   1.586   6.495  0.1821  0.3170 -0.0690
 5951TIP3    H239269   4.237   1.608   6.634 -1.0341 -0.1034 -0.4656
 5952TIP3   OH239270   1.214   2.040  14.972  0.0559 -0.1115  0.0788
 5952TIP3    H139271   1.120   2.023  14.968 -0.2572  1.4152  0.2574
 5952TIP3    H239272   1.239   2.063  14.882  0.1037  0.1713  0.1615
 5953TIP3   OH239273   1.162   0.046   4.277 -0.0000  0.2036 -0.4995
 5953TIP3    H139274   1.255   0.026   4.266 -0.1955 -1.4519  0.4469
 5953TIP3    H239275   1.160   0.136   4.309  1.3906 -0.1684  0.7694
 5954TIP3   OH239276   2.294   0.316   6.617  0.2580  0.4346 -0.3074
 5954TIP3    H139277   2.351   0.386   6.649  0.9592 -0.0228 -0.5312
 5954TIP3    H239278   2.211   0.359   6.597  0.4449  1.0656  0.2619
 5955TIP3   OH239279   3.199   1.062  14.196 -0.6187 -0.4144  0.1531
 5955TIP3    H139280   3.117   1.108  14.216 -0.2115  0.3549  0.0824
 5955TIP3    H239281   3.235   1.041  14.282 -1.2379 -1.3987  0.1830
 5956TIP3   OH239282   5.174   2.988   6.892  0.1689  0.5655 -0.1849
 5956TIP3    H139283   5.220   3.042   6.828  1.8808  2.2661  2.2898
 5956TIP3    H239284   5.244   2.953   6.948 -1.2798 -0.3464  1.1263
 5957TIP3   OH239285   4.198   0.988  17.430  0.4341  0.0315  0.1118
 5957TIP3    H139286   4.129   1.041  17.470 -0.3672  0.6187 -1.9267
 5957TIP3    H239287   4.159   0.955  17.349  1.7482 -1.6924  0.1414
 5958TIP3   OH239288   2.287   0.080   4.911 -0.4722 -0.3222  0.6041
 5958TIP3    H139289   2.192   0.073   4.911 -0.4419 -0.8415  1.2347
 5958TIP3    H239290   2.315   0.035   4.832 -0.8169  0.9524 -0.2606
 5959TIP3   OH239291   1.808   4.388   4.955  0.4475 -0.2552  0.3283
 5959TIP3    H139292   1.835   4.479   4.967 -0.2867  0.0381 -0.1418
 5959TIP3    H239293   1.828   4.345   5.038  1.4840  0.1498  0.3073
 5960TIP3   OH239294   0.964   0.645   5.622  0.4865 -0.3718  0.0483
 5960TIP3    H139295   0.894   0.601   5.574  0.1456 -0.0578  0.2494
 5960TIP3    H239296   1.044   0.604   5.591  0.3132  0.1554 -1.1592
 5961TIP3   OH239297   3.542   6.474  15.395 -0.3309 -0.0414 -1.1504
 5961TIP3    H139298   3.548   6.527  15.475  1.0420  1.1380 -1.9913
 5961TIP3    H239299   3.463   6.506  15.351 -0.1903  0.4523 -1.0509
 5962TIP3   OH239300   3.286   1.197  12.154  0.0711 -0.5172  0.3860
 5962TIP3    H139301   3.239   1.120  12.121  0.8089 -0.1794 -1.5809
 5962TIP3    H239302   3.285   1.186  12.249 -1.1723 -2.1575  0.2378
 5963TIP3   OH239303   5.455   2.097  15.687 -0.0959 -0.0473  0.3561
 5963TIP3    H139304   5.549   2.114  15.695  0.3208 -2.0341  0.3968
 5963TIP3    H239305   5.414   2.183  15.687  1.6382  0.8299  1.4836
 5964TIP3   OH239306   4.148   5.837  15.697 -0.0621 -0.6458  0.4468
 5964TIP3    H139307   4.087   5.910  15.703  0.6808  0.0691 -0.3615
 5964TIP3    H239308   4.145   5.796  15.784  0.1686  0.8873  1.2145
 5965TIP3   OH239309   0.402   1.937  14.523  0.2990 -0.8767 -0.8992
 5965TIP3    H139310   0.345   1.918  14.449  0.4926  1.4025 -1.7031
 5965TIP3    H239311   0.342   1.958  14.595  0.0819 -0.1057 -1.2871
 5966TIP3   OH239312   6.239   0.615   2.108 -0.0243  0.3109 -0.7020
 5966TIP3    H139313   6.293   0.684   2.146  0.8727 -0.6484 -0.1924
 5966TIP3    H239314   6.209   0.563   2.183 -1.1833  0.4755 -1.0243
 5967TIP3   OH239315   0.480   6.724   5.257  0.0945  0.1714  0.1411
 5967TIP3    H139316   0.447   6.648   5.209  1.8929 -2.1899  2.3799
 5967TIP3    H239317   0.458   6.706   5.349  0.0527  2.6901  0.6988
 5968TIP3   OH239318   4.465   3.253   0.239  0.2805 -0.1222 -0.9884
 5968TIP3    H139319   4.409   3.311   0.187 -0.0881 -0.0007 -0.4639
 5968TIP3    H239320   4.502   3.192   0.175  0.1160  0.2510 -1.4443
 5969TIP3   OH239321   2.677   1.074  11.687  0.6527 -0.0223 -1.0960
 5969TIP3    H139322   2.767   1.076  11.719  0.0453  0.8789  0.7359
 5969TIP3    H239323   2.627   1.038  11.760 -0.7649  1.6502 -1.1639
 5970TIP3   OH239324   2.300   6.503  14.548 -0.2101 -0.7397  0.0835
 5970TIP3    H139325   2.370   6.471  14.491  0.4466  0.8283 -0.0438
 5970TIP3    H239326   2.241   6.551  14.490  0.8489  1.5014  0.7394
 5971TIP3   OH239327   2.806   2.722   4.088  0.4131 -0.2966 -0.2023
 5971TIP3    H139328   2.754   2.759   4.017  1.0851 -1.7443 -1.5073
 5971TIP3    H239329   2.742   2.704   4.157 -0.7154 -1.1739 -1.4161
 5972TIP3   OH239330   6.488   3.838  11.026 -0.2238 -0.6043 -0.0502
 5972TIP3    H139331   6.420   3.785  10.985 -0.2472 -0.3147 -0.4019
 5972TIP3    H239332   6.502   3.910  10.963  0.9118 -1.0502 -0.3268
 5973TIP3   OH239333   2.446   4.876  13.998  0.6273  0.2332 -0.5074
 5973TIP3    H139334   2.516   4.940  14.012 -0.8193  1.8988 -0.6051
 5973TIP3    H239335   2.419   4.890  13.908 -0.9260  0.7904  0.0106
 5974TIP3   OH239336   3.868   0.457   2.018  0.0910 -0.2086 -0.6545
 5974TIP3    H139337   3.829   0.370   2.014  1.9319 -1.0627 -1.0711
 5974TIP3    H239338   3.793   0.517   2.015 -1.3133 -1.7527  1.0966
 5975TIP3   OH239339   1.076   4.864   0.124 -0.5105  0.0549  0.2568
 5975TIP3    H139340   1.047   4.906   0.043  1.4986  0.1371 -0.4786
 5975TIP3    H239341   1.009   4.799   0.143 -1.6639  0.9066 -0.7671
 5976TIP3   OH239342   1.576   4.576  11.693  0.2890  0.2536 -0.1164
 5976TIP3    H139343   1.513   4.631  11.646 -0.3770  1.2744  1.8855
 5976TIP3    H239344   1.610   4.517  11.626  0.1347  2.2758 -2.1036
 5977TIP3   OH239345   4.132   5.320   3.742 -0.2167  0.1187  0.0664
 5977TIP3    H139346   4.059   5.276   3.785 -0.1149 -0.7360 -0.5976
 5977TIP3    H239347   4.164   5.256   3.678 -0.0823  1.1812 -0.9644
 5978TIP3   OH239348   6.533   2.738   6.438 -0.2756  0.0552  0.1435
 5978TIP3    H139349   6.518   2.644   6.442  0.1634  0.0285  2.3899
 5978TIP3    H239350   6.453   2.776   6.474  0.6168  0.3950  1.8305
 5979TIP3   OH239351   3.920   4.434  15.072 -0.5331  0.3061  0.1223
 5979TIP3    H139352   3.891   4.411  15.160 -1.3975  0.0399 -0.2200
 5979TIP3    H239353   3.840   4.461  15.026 -0.0951  0.4528 -0.5701
 5980TIP3   OH239354   5.883   3.323   1.120  0.4279  0.2506 -0.3938
 5980TIP3    H139355   5.853   3.303   1.208 -1.8738  0.0978 -1.1442
 5980TIP3    H239356   5.896   3.237   1.079  1.4981  0.3205 -0.2355
 5981TIP3   OH239357   2.515   6.708   2.440  0.0446  0.1133  0.6427
 5981TIP3    H139358   2.474   6.695   2.354  2.4730  1.8968 -0.9308
 5981TIP3    H239359   2.583   6.774   2.424 -0.4042  1.6857  4.3087
 5982TIP3   OH239360   5.456   3.515  12.255  0.4228 -0.0090 -0.3252
 5982TIP3    H139361   5.411   3.592  12.288  0.6018 -0.2928  0.6152
 5982TIP3    H239362   5.519   3.493  12.323 -0.5231 -1.7602  0.0496
 5983TIP3   OH239363   3.393   4.935   4.225  0.5737  0.0965  1.0100
 5983TIP3    H139364   3.471   4.882   4.241  1.5024  0.4649 -1.6877
 5983TIP3    H239365   3.422   5.025   4.239  0.7412  0.2502 -0.2346
 5984TIP3   OH239366   2.349   3.561  14.501 -0.3006 -0.8908 -0.2370
 5984TIP3    H139367   2.275   3.593  14.449 -1.1099 -0.8388  0.9269
 5984TIP3    H239368   2.372   3.634  14.558 -0.7574 -1.6070  0.9065
 5985TIP3   OH239369   2.402   5.636  14.594 -0.4801 -0.0826  0.2893
 5985TIP3    H139370   2.466   5.589  14.541  0.5735  0.2295  1.2496
 5985TIP3    H239371   2.328   5.649  14.536  0.3167 -0.4793 -0.8442
 5986TIP3   OH239372   4.582   2.050   4.761  0.1582  0.3184  0.1961
 5986TIP3    H139373   4.511   2.019   4.705  1.3302 -0.9337 -0.6534
 5986TIP3    H239374   4.661   2.040   4.708  1.3696 -1.2594  2.1640
 5987TIP3   OH239375   6.700   3.558   5.389  0.3848 -0.1161  0.2845
 5987TIP3    H139376   6.707   3.652   5.374  0.1821  0.0474  1.1935
 5987TIP3    H239377   6.612   3.536   5.356  0.9554 -0.2595 -1.2290
 5988TIP3   OH239378   2.361   5.888   0.609 -0.0166  0.7162 -0.0770
 5988TIP3    H139379   2.426   5.818   0.597 -0.8216  0.1111 -1.0700
 5988TIP3    H239380   2.356   5.900   0.703  0.1587 -0.5619  0.1083
 5989TIP3   OH239381   6.491   2.593  15.507 -0.2062 -0.5841  0.2430
 5989TIP3    H139382   6.514   2.512  15.460 -0.5645  0.0419 -1.0777
 5989TIP3    H239383   6.494   2.661  15.439 -0.1249  0.4741  1.2882
 5990TIP3   OH239384   5.272   3.692   1.265  0.1550  0.0122 -0.1691
 5990TIP3    H139385   5.200   3.635   1.292  0.0236  0.3870  0.2778
 5990TIP3    H239386   5.255   3.709   1.172 -0.9154  0.9208  0.1690
 5991TIP3   OH239387   1.319   4.569   4.025 -0.4438 -0.8781  0.3376
 5991TIP3    H139388   1.271   4.511   3.966 -0.7300 -0.5887  0.2875
 5991TIP3    H239389   1.349   4.511   4.095  0.0732 -1.2580 -0.1933
 5992TIP3   OH239390   6.275   5.342   4.414  0.0398 -0.2085 -0.3490
 5992TIP3    H139391   6.187   5.317   4.386 -0.5339  0.8336  0.4045
 5992TIP3    H239392   6.313   5.262   4.450 -0.9308 -0.4859  0.0944
 5993TIP3   OH239393   5.036   1.653   5.244 -0.4144  0.5164  0.1079
 5993TIP3    H139394   5.059   1.672   5.153  0.6278 -2.4400 -0.3296
 5993TIP3    H239395   4.942   1.635   5.242 -0.9820  3.0107  0.1783
 5994TIP3   OH239396   1.541   4.477   2.181 -0.1414 -0.4867 -0.1284
 5994TIP3    H139397   1.618   4.493   2.126 -0.2175  0.1353 -0.0589
 5994TIP3    H239398   1.485   4.553   2.167  1.0900  1.1682  2.9720
 5995TIP3   OH239399   4.517   3.684   2.015 -0.4281 -1.0228  0.1035
 5995TIP3    H139400   4.427   3.706   1.991  0.2496  0.8479 -0.9315
 5995TIP3    H239401   4.570   3.754   1.976  1.6026 -2.6816 -0.2818
 5996TIP3   OH239402   6.736   0.995  13.957 -0.1876 -0.0394 -0.3862
 5996TIP3    H139403   6.709   1.063  14.019 -0.7948  0.4277 -1.1362
 5996TIP3    H239404   6.733   0.914  14.007 -0.4358  0.3627  0.2611
 5997TIP3   OH239405   4.649   4.080   0.601 -0.3431 -0.7759 -0.4529
 5997TIP3    H139406   4.642   4.172   0.575  3.2636 -0.5187 -0.9933
 5997TIP3    H239407   4.678   4.035   0.522 -0.0600 -2.0195  0.3368
 5998TIP3   OH239408   3.096   3.152  12.814 -0.2470  0.1226  0.6213
 5998TIP3    H139409   3.160   3.090  12.778  0.5818  1.1956  0.2217
 5998TIP3    H239410   3.143   3.235  12.822 -2.1593  1.5601 -1.7680
 5999TIP3   OH239411   4.949   5.713   2.603 -0.0796  0.2705  0.0032
 5999TIP3    H139412   4.957   5.690   2.696  1.5791  1.8057  0.2884
 5999TIP3    H239413   5.010   5.654   2.559  1.9101  1.9284  0.3832
 6000TIP3   OH239414   3.082   2.399  12.350 -0.3064 -0.3372 -0.5545
 6000TIP3    H139415   3.019   2.333  12.379  0.2751 -1.7689 -2.3612
 6000TIP3    H239416   3.167   2.357  12.358  0.1695  0.5309 -0.8700
 6001TIP3   OH239417   3.855   4.550  16.843 -0.4856  0.1917  0.0110
 6001TIP3    H139418   3.841   4.547  16.748  1.3121  0.7313 -0.2963
 6001TIP3    H239419   3.904   4.631  16.858 -0.4224 -0.0752  1.3610
 6002TIP3   OH239420   1.737   3.691  16.990 -0.4675  0.0970  0.3278
 6002TIP3    H139421   1.661   3.668  16.937 -0.0631  1.2662 -0.8059
 6002TIP3    H239422   1.743   3.786  16.982  0.8457  0.0591  0.7756
 6003TIP3   OH239423   5.257   3.683  13.500 -0.6412 -0.7191 -0.3813
 6003TIP3    H139424   5.192   3.750  13.522 -1.5809 -2.0461  1.0775
 6003TIP3    H239425   5.326   3.694  13.565 -0.2597 -0.4681 -0.8239
 6004TIP3   OH239426   4.018   5.553  17.436 -0.3865  0.3766  0.1981
 6004TIP3    H139427   4.097   5.605  17.428  0.6724 -1.1799  0.0585
 6004TIP3    H239428   4.010   5.534  17.529 -1.1705  1.3487  0.3430
 6005TIP3   OH239429   4.416   1.308  11.372 -0.8081  0.0409 -0.4886
 6005TIP3    H139430   4.507   1.338  11.364 -0.8431 -0.1652 -1.8844
 6005TIP3    H239431   4.394   1.275  11.285 -1.5603 -1.7967  0.3498
 6006TIP3   OH239432   0.930   1.599  12.723 -0.3994  0.6156  0.3288
 6006TIP3    H139433   1.020   1.632  12.721 -0.1973  0.1409  1.1205
 6006TIP3    H239434   0.910   1.590  12.817 -1.4113  1.0869  0.1720
 6007TIP3   OH239435   4.037   3.183   6.377  0.1686 -0.4082 -0.0095
 6007TIP3    H139436   4.084   3.112   6.333  0.3168 -1.5466  1.9101
 6007TIP3    H239437   4.106   3.239   6.412  0.0508  0.6420 -1.3452
 6008TIP3   OH239438   1.601   1.311   3.776 -0.2666  0.3091 -0.5138
 6008TIP3    H139439   1.575   1.244   3.839  0.1747 -0.1340 -0.7965
 6008TIP3    H239440   1.548   1.388   3.799 -1.1817 -0.3073 -0.5496
 6009TIP3   OH239441   5.045   4.665  14.805  0.2487 -0.1512 -0.9144
 6009TIP3    H139442   5.040   4.577  14.769  1.0588 -0.4016 -0.4520
 6009TIP3    H239443   5.018   4.655  14.896  0.6725  0.0070 -0.7657
 6010TIP3   OH239444   3.707   0.464   3.932  0.2764 -0.5480  0.0202
 6010TIP3    H139445   3.670   0.405   3.866  1.9886  0.3660 -1.8457
 6010TIP3    H239446   3.800   0.469   3.910  0.4709  1.6218  1.0763
 6011TIP3   OH239447   3.925   4.778  15.717  0.0624 -0.1751 -0.4691
 6011TIP3    H139448   3.957   4.785  15.627 -1.9969  1.0202 -1.1829
 6011TIP3    H239449   3.954   4.858  15.759 -0.5495  0.1393 -0.6349
 6012TIP3   OH239450   0.037   4.437   2.410  0.1777 -0.3893 -0.5252
 6012TIP3    H139451   0.053   4.433   2.316  0.8583 -1.1600 -0.3806
 6012TIP3    H239452   0.090   4.367   2.447 -0.7434 -0.6486  0.3481
 6013TIP3   OH239453   3.896   0.614   4.963  0.0232  0.7060  0.3026
 6013TIP3    H139454   3.810   0.647   4.937  0.6395  3.7900  1.7600
 6013TIP3    H239455   3.938   0.590   4.880 -1.7812  0.2032 -0.5217
 6014TIP3   OH239456   1.389   0.044  14.015  0.0466  0.1594 -0.4118
 6014TIP3    H139457   1.363   0.132  14.044  0.3570 -0.0698  0.6039
 6014TIP3    H239458   1.472   0.058  13.969 -0.0229  0.4277 -0.4591
 6015TIP3   OH239459   1.055   0.747   3.166  0.2834  0.4663  0.7019
 6015TIP3    H139460   1.032   0.693   3.242 -0.6480 -0.1508  0.0116
 6015TIP3    H239461   1.149   0.761   3.173  0.0704  1.1851  2.4515
 6016TIP3   OH239462   1.807   5.823   4.450  0.2408  0.1933 -0.3020
 6016TIP3    H139463   1.830   5.769   4.525  1.3330 -0.0520 -0.7906
 6016TIP3    H239464   1.717   5.852   4.467 -0.8243 -2.6891 -0.5581
 6017TIP3   OH239465   0.788   5.159   6.509  0.1559 -0.2000 -0.8033
 6017TIP3    H139466   0.748   5.182   6.425 -1.1252  2.0435  0.3148
 6017TIP3    H239467   0.862   5.221   6.518  1.6471 -1.8494 -1.1830
 6018TIP3   OH239468   1.174   4.452   4.404 -0.1774  0.6009 -0.3316
 6018TIP3    H139469   1.142   4.504   4.331  0.0766  1.0935 -0.0975
 6018TIP3    H239470   1.095   4.414   4.443 -0.2719 -0.1049 -1.1752
 6019TIP3   OH239471   0.648   2.339   5.732  0.3765  0.3485  0.0889
 6019TIP3    H139472   0.696   2.390   5.797  2.7893  0.8915 -1.9569
 6019TIP3    H239473   0.629   2.401   5.661  0.1803 -0.7646 -0.8698
 6020TIP3   OH239474   5.595   4.275   2.021  0.2333 -0.2502  0.0992
 6020TIP3    H139475   5.611   4.230   2.105  0.9050 -2.5882 -1.1825
 6020TIP3    H239476   5.679   4.268   1.974  0.3430  2.3971 -0.2251
 6021TIP3   OH239477   0.841   2.142   3.313  0.1673  0.1659 -0.3426
 6021TIP3    H139478   0.757   2.128   3.356 -0.3035  1.2015 -0.8760
 6021TIP3    H239479   0.906   2.128   3.382 -0.5132  0.7297  0.4357
 6022TIP3   OH239480   4.387   2.492  16.221 -0.3801 -0.6640  0.2624
 6022TIP3    H139481   4.446   2.416  16.215 -0.4001 -0.6566 -0.0271
 6022TIP3    H239482   4.306   2.463  16.178 -0.4552 -0.5441  0.3241
 6023TIP3   OH239483   6.244   1.722  14.028  0.0684 -0.5829  0.1372
 6023TIP3    H139484   6.272   1.634  14.054 -1.3272 -1.0959  0.0088
 6023TIP3    H239485   6.250   1.721  13.932  0.5362 -0.3709  0.1662
 6024TIP3   OH239486   0.859   5.066  14.474 -0.2487 -0.1377 -0.2138
 6024TIP3    H139487   0.818   5.130  14.533 -0.6116 -0.2587 -0.3337
 6024TIP3    H239488   0.931   5.030  14.525  0.7962  1.3043 -0.5904
 6025TIP3   OH239489   2.583   5.283  12.856 -0.5953  0.0034 -0.2568
 6025TIP3    H139490   2.557   5.197  12.888 -1.7169 -0.3001 -1.8727
 6025TIP3    H239491   2.506   5.339  12.870 -0.3254  0.4186 -0.3970
 6026TIP3   OH239492   3.473   4.974   2.158 -0.3729 -0.3637  0.1680
 6026TIP3    H139493   3.513   5.061   2.154 -1.0810 -0.0536 -0.4176
 6026TIP3    H239494   3.433   4.962   2.072 -2.9520  0.0363  1.2292
 6027TIP3   OH239495   3.466   6.747   4.807  0.7671  0.3134  0.1287
 6027TIP3    H139496   3.538   6.713   4.860  1.1111  1.2750  0.3014
 6027TIP3    H239497   3.507   6.773   4.724  0.2531 -1.0685 -0.5903
 6028TIP3   OH239498   2.210   2.098  10.554  0.2751  0.7418 -0.1737
 6028TIP3    H139499   2.162   2.144  10.485  0.7959  0.3457 -0.8106
 6028TIP3    H239500   2.143   2.071  10.616 -0.1321  1.6693 -0.1875
 6029TIP3   OH239501   4.461   2.127  16.744 -0.0306 -0.0619 -0.6131
 6029TIP3    H139502   4.481   2.082  16.826  1.9113 -0.6491 -1.3682
 6029TIP3    H239503   4.369   2.107  16.728 -0.3598 -0.2225  1.2212
 6030TIP3   OH239504   3.506   1.968   4.573 -0.0750 -0.1125 -0.3857
 6030TIP3    H139505   3.528   1.956   4.481  0.7481 -0.1401 -0.1901
 6030TIP3    H239506   3.515   2.062   4.588 -1.5889  0.1014 -0.6699
 6031TIP3   OH239507   4.355   0.916  16.202 -0.4101 -0.2301 -0.4957
 6031TIP3    H139508   4.296   0.985  16.232  0.0035 -0.5610  1.1910
 6031TIP3    H239509   4.332   0.841  16.257  0.8700 -0.6694 -0.5421
 6032TIP3   OH239510   2.255   4.268  14.864  0.5576  0.5052  0.2671
 6032TIP3    H139511   2.314   4.193  14.872  0.3696  0.2819 -0.3682
 6032TIP3    H239512   2.268   4.318  14.945  0.5125 -0.3378  0.8099
 6033TIP3   OH239513   6.203   4.235  14.377 -0.3839  0.0774 -0.9329
 6033TIP3    H139514   6.109   4.220  14.384 -0.5268 -0.6223 -3.4184
 6033TIP3    H239515   6.211   4.328  14.356 -0.3718  0.5290  0.9276
 6034TIP3   OH239516   3.709   2.841   4.768 -0.1730 -0.2994  0.0472
 6034TIP3    H139517   3.696   2.746   4.767  2.1484 -0.6973  1.0804
 6034TIP3    H239518   3.748   2.858   4.854  1.1604  1.3197 -0.8369
 6035TIP3   OH239519   2.285   5.719   5.036 -0.2391  0.1534  0.2613
 6035TIP3    H139520   2.233   5.663   4.979  0.1914 -0.5009  0.5091
 6035TIP3    H239521   2.374   5.715   5.000 -0.5654  2.4048 -1.0408
 6036TIP3   OH239522   6.520   3.216   3.993  0.3491  0.0660  0.3572
 6036TIP3    H139523   6.442   3.217   3.938  1.2346  1.7712 -0.9707
 6036TIP3    H239524   6.571   3.142   3.960 -0.1595 -0.3245  0.4364
 6037TIP3   OH239525   3.352   5.493   3.382 -0.3516  0.9310 -0.3217
 6037TIP3    H139526   3.405   5.571   3.367  1.3176 -0.5094 -2.4581
 6037TIP3    H239527   3.403   5.440   3.443  0.0261  0.2045 -1.2348
 6038TIP3   OH239528   1.914   3.290  12.480  0.6596  1.0138 -0.0942
 6038TIP3    H139529   1.888   3.253  12.396  0.4445  0.5783  0.1588
 6038TIP3    H239530   1.878   3.379  12.479  2.9993  2.0338 -1.5961
 6039TIP3   OH239531   5.576   5.586   3.347 -0.5143  1.0161  0.2686
 6039TIP3    H139532   5.526   5.665   3.366  0.8580  2.2089 -0.8979
 6039TIP3    H239533   5.628   5.570   3.426 -1.1922  0.9470  0.7065
 6040TIP3   OH239534   0.910   6.348  16.634 -0.7680  0.6513 -0.5148
 6040TIP3    H139535   0.862   6.342  16.716  0.2559  1.1852  0.1437
 6040TIP3    H239536   0.865   6.416  16.583 -0.8610  0.9648 -0.0133
 6041TIP3   OH239537   1.645   3.871   1.606  0.0718  0.0931  0.1736
 6041TIP3    H139538   1.600   3.906   1.683  1.2315 -0.4910  1.1381
 6041TIP3    H239539   1.727   3.836   1.639  0.8371  0.2792 -1.4084
 6042TIP3   OH239540   3.248   2.812  14.716 -0.3092  0.0664 -0.5392
 6042TIP3    H139541   3.167   2.827  14.765 -1.0262 -0.2057 -1.6048
 6042TIP3    H239542   3.242   2.721  14.688 -0.2083  0.3867 -1.6288
 6043TIP3   OH239543   5.815   1.411   0.456  0.4273  0.1621  0.0216
 6043TIP3    H139544   5.849   1.322   0.465 -0.3617 -0.5292 -2.6924
 6043TIP3    H239545   5.890   1.464   0.430  0.8562  0.2706  1.4305
 6044TIP3   OH239546   0.124   6.599  13.423  0.1260  0.5461 -0.1146
 6044TIP3    H139547   0.042   6.555  13.447  0.9125 -1.0738 -0.2489
 6044TIP3    H239548   0.097   6.677  13.374 -1.3349  0.4304  0.4611
 6045TIP3   OH239549   5.180   3.974   2.398 -0.5047  0.1124 -0.7426
 6045TIP3    H139550   5.138   4.021   2.327  2.9729  0.9986 -2.4529
 6045TIP3    H239551   5.232   4.040   2.444 -0.8895 -0.8734  1.2005
 6046TIP3   OH239552   6.745   5.701   6.587  0.2191 -0.1090  0.0481
 6046TIP3    H139553   6.682   5.660   6.646 -0.8284 -1.1763 -1.7176
 6046TIP3    H239554   6.830   5.667   6.615 -0.4911 -2.5999 -0.5616
 6047TIP3   OH239555   4.563   6.672   4.373 -0.5457 -0.4464  0.2274
 6047TIP3    H139556   4.551   6.586   4.412 -0.6455  0.0458  1.3160
 6047TIP3    H239557   4.506   6.730   4.424  0.7173  0.5514  0.5687
 6048TIP3   OH239558   0.280   0.142   3.580  0.6171 -0.3076 -0.0352
 6048TIP3    H139559   0.198   0.191   3.569  0.6139  0.4551  2.6226
 6048TIP3    H239560   0.282   0.083   3.505 -3.0062 -1.2178  0.3574
 6049TIP3   OH239561   1.375   6.152  12.347  0.1717 -0.4176  0.6138
 6049TIP3    H139562   1.370   6.230  12.403  0.7682  1.8191 -2.1979
 6049TIP3    H239563   1.383   6.187  12.258  1.3572 -3.7373 -0.7407
 6050TIP3   OH239564   3.296   6.577   2.438  0.9002  0.0622  0.2052
 6050TIP3    H139565   3.333   6.579   2.526 -0.4900  1.2895  0.8091
 6050TIP3    H239566   3.366   6.541   2.383  1.6976 -0.9921  1.8335
 6051TIP3   OH239567   1.732   1.146  12.421  0.2609 -0.9455 -0.0422
 6051TIP3    H139568   1.669   1.106  12.482  1.1153 -4.7218 -1.3392
 6051TIP3    H239569   1.815   1.145  12.469  0.0847  0.5677  0.3437
 6052TIP3   OH239570   3.748   5.924   2.640 -0.1657  0.2082  0.0354
 6052TIP3    H139571   3.834   5.909   2.679  0.0964 -1.0138 -0.9536
 6052TIP3    H239572   3.723   5.839   2.604 -1.6535  0.6248  0.0283
 6053TIP3   OH239573   4.320   5.455   1.620  0.1354 -0.4161  0.4289
 6053TIP3    H139574   4.261   5.527   1.598  0.4621 -0.0473  0.7197
 6053TIP3    H239575   4.381   5.493   1.684  0.0479 -1.0730  0.9168
 6054TIP3   OH239576   3.980   0.101   3.884  0.0322  0.3381 -0.3387
 6054TIP3    H139577   4.040   0.109   3.810  0.9052  0.5743  0.3739
 6054TIP3    H239578   4.008   0.169   3.945 -0.1434 -0.3732  0.5622
 6055TIP3   OH239579   5.850   4.471  13.883 -0.0778  0.2796  0.3048
 6055TIP3    H139580   5.877   4.477  13.791 -0.8805 -0.3128  0.0161
 6055TIP3    H239581   5.890   4.390  13.914 -0.0397  0.3343  0.3984
 6056TIP3   OH239582   4.829   5.508  12.795 -0.0050  0.8329 -0.0153
 6056TIP3    H139583   4.762   5.517  12.727  0.1336 -0.9321 -0.4405
 6056TIP3    H239584   4.861   5.597  12.809  0.6119  1.1888 -2.9444
 6057TIP3   OH239585   5.837   5.907   0.515 -0.3540 -0.3071  0.7768
 6057TIP3    H139586   5.795   5.830   0.477 -0.7410  0.2459  0.0507
 6057TIP3    H239587   5.826   5.896   0.609 -0.2034 -1.2425  0.6952
 6058TIP3   OH239588   5.784   3.766  13.539  0.1632 -0.1452 -0.2597
 6058TIP3    H139589   5.816   3.720  13.616 -1.0880  1.4980  1.3380
 6058TIP3    H239590   5.728   3.702  13.494 -0.0856 -0.7569  0.8881
 6059TIP3   OH239591   1.924   2.625  17.289  0.0851  0.2930 -0.4215
 6059TIP3    H139592   1.850   2.686  17.292  0.3437  0.6091 -0.4575
 6059TIP3    H239593   1.983   2.662  17.223  1.0573  0.9351  0.7570
 6060TIP3   OH239594   1.799   6.408  17.323  0.5186  0.0012 -0.4161
 6060TIP3    H139595   1.784   6.494  17.361  0.3919 -0.0674 -0.3101
 6060TIP3    H239596   1.777   6.418  17.231 -2.4415 -0.6620  0.1279
 6061TIP3   OH239597   5.510   3.523  12.540 -0.3277  0.3292 -0.0413
 6061TIP3    H139598   5.434   3.467  12.551  0.4496 -0.6872  0.3389
 6061TIP3    H239599   5.585   3.466  12.558  0.5568  1.1342 -1.0199
 6062TIP3   OH239600   4.245   3.372  15.833  0.6260  0.1008  0.5744
 6062TIP3    H139601   4.306   3.299  15.845  0.3390 -0.0886  0.8731
 6062TIP3    H239602   4.175   3.336  15.779  0.8170  0.3435  0.1570
 6063TIP3   OH239603   0.893   0.453   3.935 -0.0962 -0.2725 -0.1742
 6063TIP3    H139604   0.892   0.507   3.856  1.6751 -1.3325 -0.9762
 6063TIP3    H239605   0.885   0.363   3.904  2.1580 -0.8338  0.6439
 6064TIP3   OH239606   1.238   4.015   0.124 -0.2289  0.8482 -0.1343
 6064TIP3    H139607   1.174   4.082   0.151  0.4547  1.3916  0.1488
 6064TIP3    H239608   1.200   3.932   0.155  0.0100  1.3376  1.5408
 6065TIP3   OH239609   4.764   5.710   1.935 -0.1859  0.2475  0.0457
 6065TIP3    H139610   4.796   5.684   2.022  0.8585  0.8755 -0.1287
 6065TIP3    H239611   4.729   5.798   1.948 -1.0795 -0.1009  0.0516
 6066TIP3   OH239612   5.278   6.536   6.349 -0.0901  0.1988 -0.1953
 6066TIP3    H139613   5.369   6.567   6.355 -0.6845  1.8516  0.9027
 6066TIP3    H239614   5.272   6.496   6.263  2.0141 -1.0874  0.1675
 6067TIP3   OH239615   0.075   0.035   2.371 -0.0676 -0.3651 -0.5400
 6067TIP3    H139616   0.162   0.020   2.333  0.6744  1.7850  0.1011
 6067TIP3    H239617   0.078  -0.009   2.456  0.8936  0.6847  0.0065
 6068TIP3   OH239618   1.495   6.628  12.016 -0.1118  0.2139  0.2507
 6068TIP3    H139619   1.506   6.719  12.041  0.8855  0.2743 -0.3666
 6068TIP3    H239620   1.431   6.594  12.078  0.8443  0.8598  1.6404
 6069TIP3   OH239621   4.558   4.634   4.420  0.3077  0.0521  0.0673
 6069TIP3    H139622   4.536   4.546   4.450  0.5226  0.0001  0.0739
 6069TIP3    H239623   4.604   4.620   4.338  1.4041  0.0881  0.6571
 6070TIP3   OH239624   1.809   6.638   1.885 -0.5807 -0.0843 -0.1426
 6070TIP3    H139625   1.875   6.706   1.876 -2.0678  1.4238 -0.1943
 6070TIP3    H239626   1.785   6.639   1.978 -1.1767  0.0280 -0.2918
 6071TIP3   OH239627   2.130   4.982   2.662 -0.3061  0.1717  0.1327
 6071TIP3    H139628   2.086   5.067   2.666 -1.0297 -0.2245  1.1793
 6071TIP3    H239629   2.214   4.997   2.705  0.8588  1.0367 -2.2412
 6072TIP3   OH239630   5.673   3.751   0.071 -0.2285  0.3191 -0.1298
 6072TIP3    H139631   5.693   3.663   0.103  0.9361  0.3630 -0.6804
 6072TIP3    H239632   5.684   3.808   0.147  1.7882  0.3259 -0.3646
 6073TIP3   OH239633   0.694   2.219   2.897 -0.1486 -0.3882  0.2714
 6073TIP3    H139634   0.712   2.196   2.806 -1.1171  0.9589 -0.3042
 6073TIP3    H239635   0.695   2.136   2.944  1.2307 -1.0066 -0.8017
 6074TIP3   OH239636   0.694   0.463   1.020  0.3228  0.4488 -0.3368
 6074TIP3    H139637   0.726   0.531   1.079  1.6935 -0.4120 -0.0374
 6074TIP3    H239638   0.675   0.510   0.939  1.6455  1.1530 -0.2804
 6075TIP3   OH239639   5.064   0.484  11.945 -0.0815 -0.3568  0.0464
 6075TIP3    H139640   5.159   0.475  11.947 -0.0827 -0.3670  0.0659
 6075TIP3    H239641   5.038   0.456  11.857  0.2473  3.0113 -1.2585
 6076TIP3   OH239642   2.062   6.026  14.274  0.0865  0.0894  0.4350
 6076TIP3    H139643   1.970   6.028  14.299 -0.0605 -1.6317  0.1281
 6076TIP3    H239644   2.066   6.078  14.194 -0.2862  1.6131  1.3708
 6077TIP3   OH239645   2.368   0.060   2.660  0.0679 -0.7842 -0.3028
 6077TIP3    H139646   2.321   0.133   2.619  0.8990  0.9917  1.7132
 6077TIP3    H239647   2.402   0.010   2.586 -2.1411 -0.2824 -1.7946
 6078TIP3   OH239648   1.325   5.026  12.108 -0.2791 -0.7288  0.2331
 6078TIP3    H139649   1.367   5.043  12.193 -0.3086 -0.0253  0.1171
 6078TIP3    H239650   1.238   5.066  12.117 -0.6664 -1.5634  0.2300
 6079TIP3   OH239651   5.190   0.898   0.547 -0.5458 -0.0860 -0.7262
 6079TIP3    H139652   5.168   0.810   0.514 -2.5999  0.1379 -0.1248
 6079TIP3    H239653   5.231   0.883   0.632 -0.5313 -0.4783 -0.8009
 6080TIP3   OH239654   0.874   3.558  10.899 -0.5943  0.3490  0.6994
 6080TIP3    H139655   0.955   3.548  10.849 -0.3659 -0.6086  1.2441
 6080TIP3    H239656   0.853   3.651  10.892  1.5158  0.9932  2.0588
 6081TIP3   OH239657   1.767   6.612  13.016  0.1854  0.0848  0.4329
 6081TIP3    H139658   1.851   6.574  12.990 -0.3218 -0.6119 -0.2299
 6081TIP3    H239659   1.767   6.607  13.111  0.4556 -0.8881  0.3929
 6082TIP3   OH239660   6.041   0.059   0.265  0.2835 -0.6294 -0.1125
 6082TIP3    H139661   5.967   0.108   0.301  1.8619  1.1414  0.8953
 6082TIP3    H239662   6.034   0.071   0.170 -1.7864 -2.1762 -0.2207
 6083TIP3   OH239663   0.633   6.400   4.797 -0.4652 -0.5022 -0.2370
 6083TIP3    H139664   0.635   6.401   4.893 -0.0969  1.9773 -0.2142
 6083TIP3    H239665   0.709   6.346   4.772  0.3743  0.1292  0.8703
 6084TIP3   OH239666   5.458   1.124  12.039  0.0203 -0.4102 -0.0606
 6084TIP3    H139667   5.510   1.148  12.116  0.9109  2.0898 -1.3123
 6084TIP3    H239668   5.509   1.055  11.996  0.3646 -0.6403  0.6987
 6085TIP3   OH239669   3.565   3.082  11.236  0.3329  0.5403  0.3818
 6085TIP3    H139670   3.484   3.031  11.235  0.7728 -0.1726 -1.6472
 6085TIP3    H239671   3.540   3.167  11.201  0.1439  0.9159  1.3721
 6086TIP3   OH239672   2.851   0.113   0.757 -0.0874 -0.4451  0.0055
 6086TIP3    H139673   2.926   0.064   0.725  0.7437  1.3381 -0.9071
 6086TIP3    H239674   2.782   0.095   0.693  0.0913 -0.7148 -0.1148
 6087TIP3   OH239675   3.107   3.521  12.656  0.0504  0.1814 -0.2302
 6087TIP3    H139676   3.069   3.440  12.624 -0.9817  0.2089  0.8750
 6087TIP3    H239677   3.115   3.509  12.751  0.5642  1.0982 -0.1349
 6088TIP3   OH239678   1.532   1.585   3.877 -0.3356 -0.6047  0.2732
 6088TIP3    H139679   1.578   1.636   3.811 -1.8219 -0.3711 -0.6393
 6088TIP3    H239680   1.479   1.650   3.925  0.2617 -0.8570  1.3035
 6089TIP3   OH239681   2.216   2.336   2.642 -0.1024 -0.3814 -0.0375
 6089TIP3    H139682   2.276   2.354   2.570 -2.0248 -0.6863 -1.8029
 6089TIP3    H239683   2.132   2.317   2.600 -1.8709  1.5279  2.3221
 6090TIP3   OH239684   0.345   5.905  15.618 -0.1682 -0.3324  0.5290
 6090TIP3    H139685   0.337   5.945  15.531 -0.0806  2.0584  1.5462
 6090TIP3    H239686   0.365   5.813  15.600 -0.3790  0.0320 -1.9669
 6091TIP3   OH239687   0.962   1.325   1.750  0.1590  0.4962  0.4504
 6091TIP3    H139688   0.992   1.240   1.783 -1.0981 -1.3232 -2.6118
 6091TIP3    H239689   0.874   1.334   1.785 -0.1600 -0.1117 -0.1574
 6092TIP3   OH239690   6.145   0.192  12.827 -0.6886  0.0294 -0.2115
 6092TIP3    H139691   6.216   0.250  12.854  0.0580 -1.1803  0.4756
 6092TIP3    H239692   6.085   0.249  12.779  1.1258  0.9408 -1.5130
 6093TIP3   OH239693   2.533   1.284  11.448  0.4205 -0.4650 -0.0963
 6093TIP3    H139694   2.607   1.228  11.472  0.8107 -0.3306 -0.9395
 6093TIP3    H239695   2.506   1.252  11.362 -1.5003 -1.4970  0.8372
 6094TIP3   OH239696   6.438   5.375   6.607 -0.2033 -0.7440  0.2067
 6094TIP3    H139697   6.512   5.413   6.655 -0.6165 -0.7060  0.8234
 6094TIP3    H239698   6.478   5.334   6.530  0.6530 -2.0827  1.3234
 6095TIP3   OH239699   3.180   1.603   0.989 -0.2615 -0.2745  0.1180
 6095TIP3    H139700   3.149   1.675   0.934  2.2642 -0.3093 -1.5548
 6095TIP3    H239701   3.223   1.646   1.063 -1.7919 -0.1945  1.0078
 6096TIP3   OH239702   0.896   0.789  14.241  0.2240 -0.3897 -0.1479
 6096TIP3    H139703   0.846   0.739  14.305 -0.2178 -0.1878 -0.3282
 6096TIP3    H239704   0.977   0.812  14.286 -0.4403  0.4749  0.6362
 6097TIP3   OH239705   6.414   2.475   2.093  0.7773  0.4086  0.1030
 6097TIP3    H139706   6.408   2.448   2.001  0.5722 -0.9092  0.4838
 6097TIP3    H239707   6.491   2.429   2.126  0.1318 -0.1048  0.9100
 6098TIP3   OH239708   0.266   0.858   3.621 -1.1516 -0.4817  0.3334
 6098TIP3    H139709   0.259   0.952   3.640 -1.8927 -0.1569 -1.3814
 6098TIP3    H239710   0.245   0.815   3.704 -0.5984  0.8577  1.2043
 6099TIP3   OH239711   2.463   6.137   6.891 -0.0018 -0.0179  0.5875
 6099TIP3    H139712   2.505   6.076   6.950  0.7807 -0.0851 -0.0310
 6099TIP3    H239713   2.522   6.144   6.816 -1.2696 -0.4447 -0.5069
 6100TIP3   OH239714   5.887   1.100   5.336  0.1930  0.5059 -0.0366
 6100TIP3    H139715   5.857   1.078   5.248 -0.7575  1.2136  0.0952
 6100TIP3    H239716   5.979   1.072   5.338 -0.0748 -0.4735 -0.8951
 6101TIP3   OH239717   1.869   5.692  12.871 -0.5842  0.4381 -0.0935
 6101TIP3    H139718   1.894   5.782  12.895  0.1279  0.0821  0.5320
 6101TIP3    H239719   1.890   5.686  12.778 -1.4824  1.1981 -0.3604
 6102TIP3   OH239720   2.102   5.138   4.932 -0.4974  0.3341  0.1627
 6102TIP3    H139721   2.181   5.148   4.985 -1.4782 -1.8233  2.2312
 6102TIP3    H239722   2.049   5.215   4.953 -0.4217  0.0263  1.5820
 6103TIP3   OH239723   0.786   1.572   3.598  0.0328  0.0704 -0.3249
 6103TIP3    H139724   0.811   1.540   3.511  0.6013  1.0680 -0.5427
 6103TIP3    H239725   0.763   1.664   3.583  2.7271  1.0568  1.0053
 6104TIP3   OH239726   1.011   1.884   4.260 -0.0293  0.1559  0.2953
 6104TIP3    H139727   1.000   1.790   4.274  1.8855 -0.0171  0.9202
 6104TIP3    H239728   0.933   1.923   4.299  0.2969 -1.0526  2.3162
 6105TIP3   OH239729   6.046   5.272   2.793  0.5079 -0.1644  0.2104
 6105TIP3    H139730   6.003   5.355   2.774 -1.7284 -1.2547  0.1382
 6105TIP3    H239731   6.013   5.212   2.726  1.5103 -1.2828  0.6787
 6106TIP3   OH239732   0.700   6.441   2.671 -0.5239 -0.0083 -0.0578
 6106TIP3    H139733   0.776   6.439   2.730 -0.2571 -0.1208 -0.4042
 6106TIP3    H239734   0.657   6.524   2.690 -0.0287  0.2849 -0.2145
 6107TIP3   OH239735   4.885   1.224   4.934 -0.3576  0.1360 -0.1318
 6107TIP3    H139736   4.877   1.187   4.846 -0.9212 -0.6402  0.2399
 6107TIP3    H239737   4.799   1.263   4.952 -0.3605 -0.0339  0.2241
 6108TIP3   OH239738   3.283   3.187  11.115  0.1426 -0.1968 -0.2484
 6108TIP3    H139739   3.337   3.211  11.040 -1.0911  0.1175 -1.0595
 6108TIP3    H239740   3.303   3.254  11.181  1.1303 -0.3953 -0.3366
 6109TIP3   OH239741   4.171   0.225   6.233  0.3585 -0.2636 -0.0137
 6109TIP3    H139742   4.187   0.296   6.296 -0.7122  0.9700 -1.0571
 6109TIP3    H239743   4.076   0.226   6.220  0.5217 -0.6896 -1.3908
 6110TIP3   OH239744   0.182   1.062   5.522 -0.2450 -0.5583 -0.7478
 6110TIP3    H139745   0.201   1.142   5.572 -0.7821 -1.1022  0.3500
 6110TIP3    H239746   0.099   1.081   5.478 -1.7438 -1.3964  1.5587
 6111TIP3   OH239747   0.264   1.201  11.585  0.0011 -0.8453  0.1267
 6111TIP3    H139748   0.314   1.162  11.656  0.4852  1.2651  1.0293
 6111TIP3    H239749   0.318   1.275  11.556 -2.4017  1.3781  0.9557
 6112TIP3   OH239750   3.225   3.585  14.465 -0.6487  0.1844  0.5430
 6112TIP3    H139751   3.137   3.577  14.501 -0.8044  1.5766  0.5441
 6112TIP3    H239752   3.281   3.604  14.540 -0.2419 -1.1827  0.6124
 6113TIP3   OH239753   0.585   1.767   3.538 -0.3584 -0.9659 -0.4778
 6113TIP3    H139754   0.495   1.782   3.507 -0.5599 -2.6069 -0.7765
 6113TIP3    H239755   0.581   1.787   3.632 -0.7683 -0.0332 -0.6796
 6114TIP3   OH239756   3.896   1.674   5.608 -0.0438 -0.8983 -0.0893
 6114TIP3    H139757   3.961   1.669   5.679  0.4723 -0.5721 -0.5332
 6114TIP3    H239758   3.816   1.639   5.647  0.2697 -0.8524  0.6166
 6115TIP3   OH239759   5.252   3.796   4.532  0.4037  0.2570  0.2223
 6115TIP3    H139760   5.329   3.836   4.492 -0.1449  0.8657 -0.2271
 6115TIP3    H239761   5.204   3.758   4.459 -0.8508  1.7845  0.2060
 6116TIP3   OH239762   1.362   6.122  13.747  0.1254 -0.1094 -0.1099
 6116TIP3    H139763   1.299   6.194  13.744 -0.4316 -0.5784  0.1895
 6116TIP3    H239764   1.394   6.122  13.837 -0.5308 -0.7855  0.1304
 6117TIP3   OH239765   2.902   5.321   6.290 -0.0262 -0.5163 -0.0383
 6117TIP3    H139766   2.983   5.318   6.342  0.9793  2.0120 -1.2768
 6117TIP3    H239767   2.838   5.362   6.347  0.8056  1.3665 -0.3873
 6118TIP3   OH239768   1.137   0.500   5.431 -0.4052  0.0898 -0.4611
 6118TIP3    H139769   1.220   0.500   5.478 -0.3473 -1.2190 -0.5488
 6118TIP3    H239770   1.151   0.561   5.358  0.7184 -0.6708 -0.8978
 6119TIP3   OH239771   6.721   2.322  14.505 -0.3948 -0.0526  0.2852
 6119TIP3    H139772   6.785   2.278  14.450  0.9565 -0.5845  2.1927
 6119TIP3    H239773   6.663   2.367  14.443 -0.8081 -3.0122 -1.6919
 6120TIP3   OH239774   2.660   5.745  13.123  0.0992  0.0174  0.7212
 6120TIP3    H139775   2.752   5.737  13.101 -0.2354  0.1738 -0.8679
 6120TIP3    H239776   2.631   5.655  13.141  0.3875 -0.1140  0.5221
 6121TIP3   OH239777   4.597   2.631   4.811 -0.4687 -0.2318  0.1269
 6121TIP3    H139778   4.622   2.596   4.896  3.2420  0.2339 -0.6269
 6121TIP3    H239779   4.588   2.725   4.825  0.7108 -0.0817 -0.0954
 6122TIP3   OH239780   5.617   3.704   1.535 -0.4170 -0.4381 -0.0059
 6122TIP3    H139781   5.644   3.731   1.447 -1.2938  1.3800  0.2339
 6122TIP3    H239782   5.628   3.783   1.588 -1.6110 -1.0004  1.1168
 6123TIP3   OH239783   6.276   6.293  17.259 -0.3109 -0.7016  0.6678
 6123TIP3    H139784   6.371   6.301  17.246 -0.5396  2.9866 -0.0411
 6123TIP3    H239785   6.264   6.209  17.302  3.0951 -2.0612 -0.6870
 6124TIP3   OH239786   1.017   2.200  11.645  0.0621  0.1771  0.5103
 6124TIP3    H139787   1.055   2.286  11.661  0.4968  0.1145 -0.1685
 6124TIP3    H239788   0.976   2.207  11.559 -0.1754 -0.2018  0.5891
 6125TIP3   OH239789   4.240   0.454   6.364  0.1793  0.0453 -0.1299
 6125TIP3    H139790   4.268   0.411   6.445 -0.0314  0.1958  0.0239
 6125TIP3    H239791   4.207   0.539   6.392 -1.7264 -0.6481 -0.1226
 6126TIP3   OH239792   2.064   4.094   0.421  0.4800 -0.4921 -0.2989
 6126TIP3    H139793   2.153   4.097   0.386 -0.2328  3.0690 -2.2573
 6126TIP3    H239794   2.011   4.060   0.350 -0.2852  1.9781 -0.9989
 6127TIP3   OH239795   3.511   5.704   4.283  0.0153  0.5374  0.0922
 6127TIP3    H139796   3.449   5.776   4.297  0.9526  1.3788  0.0217
 6127TIP3    H239797   3.543   5.683   4.371 -2.0915 -1.5273  0.4550
 6128TIP3   OH239798   4.661   6.598   5.356 -0.2958 -0.5201 -0.0672
 6128TIP3    H139799   4.678   6.504   5.355 -0.1807 -0.5775  2.0945
 6128TIP3    H239800   4.660   6.621   5.449 -1.3084  1.4481 -0.5130
 6129TIP3   OH239801   4.178   6.160   1.082 -0.4151  0.5217 -0.1270
 6129TIP3    H139802   4.093   6.152   1.038 -1.2197  2.2673  0.9709
 6129TIP3    H239803   4.157   6.152   1.175  0.7123  0.4342  0.1334
 6130TIP3   OH239804   2.072   2.164  14.015 -0.0477  0.2746  0.3876
 6130TIP3    H139805   2.132   2.135  14.083 -0.5535 -0.3965  0.5615
 6130TIP3    H239806   1.998   2.104  14.021 -0.6225  0.9283  0.0121
 6131TIP3   OH239807   1.380   2.397  16.831  0.4551  0.0896  0.4627
 6131TIP3    H139808   1.307   2.432  16.780  0.8714  0.5693  0.1928
 6131TIP3    H239809   1.391   2.458  16.904  0.2655 -0.2574  0.7882
 6132TIP3   OH239810   5.288   4.295   5.274  0.6705  0.3957 -0.0788
 6132TIP3    H139811   5.195   4.316   5.285  1.4443  3.4896  1.4843
 6132TIP3    H239812   5.306   4.230   5.341 -0.3648 -0.4028 -0.5379
 6133TIP3   OH239813   4.402   3.864  13.212 -0.1546 -0.2826 -0.0804
 6133TIP3    H139814   4.372   3.778  13.184 -0.6191 -0.1836  0.1049
 6133TIP3    H239815   4.361   3.878  13.297 -0.0851  0.1220 -0.1074
 6134TIP3   OH239816   3.663   6.547  10.619 -0.2290 -0.2375 -0.9133
 6134TIP3    H139817   3.703   6.466  10.649 -3.1169 -0.3605  3.6229
 6134TIP3    H239818   3.633   6.589  10.699 -4.8202  2.0347 -3.4645
 6135TIP3   OH239819   0.724   0.867  13.611 -0.3800  0.1050 -0.4465
 6135TIP3    H139820   0.804   0.862  13.558 -0.1024  2.2135 -0.3088
 6135TIP3    H239821   0.751   0.911  13.691 -1.5151  0.1151 -0.0507
 6136TIP3   OH239822   1.494   2.704   5.949 -0.2665  0.1499  0.3619
 6136TIP3    H139823   1.404   2.718   5.918 -0.0093  0.4582 -0.2605
 6136TIP3    H239824   1.511   2.612   5.932 -0.6010 -0.0059  0.8482
 6137TIP3   OH239825   1.750   0.667   2.929 -0.1917  0.7246  0.6681
 6137TIP3    H139826   1.741   0.687   3.023  0.6094  0.0732  0.8867
 6137TIP3    H239827   1.832   0.619   2.922 -1.6516 -1.8402  0.0459
 6138TIP3   OH239828   2.937   2.598  12.252 -0.0859 -0.0903 -0.6131
 6138TIP3    H139829   2.937   2.664  12.321  2.9184 -0.9762  0.3734
 6138TIP3    H239830   2.990   2.526  12.287  1.1206 -0.8211 -3.5940
 6139TIP3   OH239831   6.143   5.306  11.756 -0.2738  0.1811  0.0087
 6139TIP3    H139832   6.195   5.385  11.771  2.3239 -1.6188  1.2175
 6139TIP3    H239833   6.067   5.317  11.812  0.1968  1.6834  0.4147
 6140TIP3   OH239834   2.284   1.187  14.876  0.7003 -0.2829 -0.6717
 6140TIP3    H139835   2.345   1.253  14.843  1.7335 -0.5267  0.6899
 6140TIP3    H239836   2.314   1.168  14.965  0.8497 -3.0769 -1.2333
 6141TIP3   OH239837   0.708   4.676  11.853 -0.8573 -0.1522  0.0051
 6141TIP3    H139838   0.635   4.710  11.904  2.1550  2.9733  2.7442
 6141TIP3    H239839   0.741   4.602  11.905  0.0467  0.7713  0.7937
 6142TIP3   OH239840   1.877   3.128  12.828  0.4358 -0.3832  0.0345
 6142TIP3    H139841   1.816   3.086  12.768  0.8958 -0.2938 -0.5035
 6142TIP3    H239842   1.823   3.188  12.880  0.2144  0.4304 -1.0999
 6143TIP3   OH239843   5.724   3.351  15.048 -0.2007  0.0414  0.4827
 6143TIP3    H139844   5.814   3.379  15.027  0.0742  1.2077  2.9057
 6143TIP3    H239845   5.729   3.322  15.139 -1.9755 -1.5124  0.1402
 6144TIP3   OH239846   1.633   5.322   4.915 -0.1866 -0.1817 -0.2467
 6144TIP3    H139847   1.626   5.252   4.979 -0.6831  0.1733  0.1016
 6144TIP3    H239848   1.547   5.324   4.872  0.0753 -0.2882 -0.7949
 6145TIP3   OH239849   5.355   3.196  16.608  0.1658  0.3474 -0.0562
 6145TIP3    H139850   5.420   3.163  16.545 -0.0773  0.6436 -0.4686
 6145TIP3    H239851   5.353   3.291  16.593 -0.7363  0.2852 -0.4222
 6146TIP3   OH239852   1.238   4.056   0.830 -0.6109 -0.0543  0.0354
 6146TIP3    H139853   1.292   4.119   0.876 -2.5205  1.4487  0.3625
 6146TIP3    H239854   1.229   3.982   0.891  0.0736  0.1998  0.4438
 6147TIP3   OH239855   4.863   2.572   3.152  0.0472 -0.6171  0.1762
 6147TIP3    H139856   4.837   2.532   3.069  0.5326 -2.0114  0.6748
 6147TIP3    H239857   4.880   2.664   3.129 -0.1277 -0.8994 -1.1991
 6148TIP3   OH239858   4.803   5.071  11.739  0.0164 -0.2207 -0.1513
 6148TIP3    H139859   4.877   5.011  11.738  0.6472  0.5365 -1.4761
 6148TIP3    H239860   4.843   5.157  11.753 -0.3664  0.4435 -2.7071
 6149TIP3   OH239861   4.775   4.217  15.786 -0.0047 -0.4554  0.0554
 6149TIP3    H139862   4.864   4.193  15.760  0.4428 -0.1968  1.2822
 6149TIP3    H239863   4.782   4.309  15.812 -0.1793 -0.9544  2.0235
 6150TIP3   OH239864   2.487   3.930   2.189  0.2734  0.1027  0.0398
 6150TIP3    H139865   2.425   3.954   2.120  0.8316  1.8585  0.0933
 6150TIP3    H239866   2.513   4.014   2.227  1.3178 -0.7263  1.2147
 6151TIP3   OH239867   1.245   2.505   1.146 -0.4625 -0.1119  0.4357
 6151TIP3    H139868   1.180   2.540   1.085 -1.0221  1.0958  1.6653
 6151TIP3    H239869   1.193   2.468   1.218  0.1262 -2.9416 -0.4540
 6152TIP3   OH239870   1.836   3.850  15.010  0.3014  0.1505  0.1617
 6152TIP3    H139871   1.900   3.780  14.996  1.3423  1.1410 -0.1224
 6152TIP3    H239872   1.755   3.816  14.971  0.5956 -1.1754  0.6662
 6153TIP3   OH239873   2.596   2.805   4.288 -0.4692 -0.0439 -0.2010
 6153TIP3    H139874   2.506   2.771   4.288 -0.1704 -0.9788  1.7632
 6153TIP3    H239875   2.586   2.899   4.272 -1.6359 -0.3772 -1.7024
 6154TIP3   OH239876   4.158   3.611  12.484  0.2203  0.3766 -0.6106
 6154TIP3    H139877   4.242   3.636  12.446  0.4648 -2.1051 -1.9241
 6154TIP3    H239878   4.180   3.579  12.572  0.6065  0.1681 -0.7796
 6155TIP3   OH239879   4.949   5.022   4.539  0.4758 -0.6536  0.1909
 6155TIP3    H139880   5.039   5.033   4.510  0.5238  0.8177  0.8189
 6155TIP3    H239881   4.949   5.048   4.631 -0.7048  0.1077  0.0100
 6156TIP3   OH239882   1.050   1.568  14.980 -0.4317 -0.1054  0.1788
 6156TIP3    H139883   1.024   1.487  14.937 -0.8060 -0.9522  1.9112
 6156TIP3    H239884   0.996   1.572  15.059  0.5391  1.1368  0.8190
 6157TIP3   OH239885   0.069   3.914   3.906 -0.0086 -0.2982 -0.2613
 6157TIP3    H139886  -0.005   3.855   3.891 -0.9071  1.2571 -2.3958
 6157TIP3    H239887   0.122   3.909   3.827  1.8133 -0.7768  0.9126
 6158TIP3   OH239888   1.145   2.003  12.329  0.1775 -0.4714 -0.0290
 6158TIP3    H139889   1.056   1.974  12.345  0.9587 -1.9516  2.2087
 6158TIP3    H239890   1.177   1.948  12.258 -0.5495 -0.2204 -0.5508
 6159TIP3   OH239891   5.333   5.636  11.035  1.1858  0.3124  0.6686
 6159TIP3    H139892   5.273   5.698  10.992 -2.5588 -2.3846  1.5219
 6159TIP3    H239893   5.390   5.605  10.964  0.9157  2.1714 -0.4408
 6160TIP3   OH239894   5.872   5.000   1.371  0.0756 -0.3646 -0.0657
 6160TIP3    H139895   5.819   5.063   1.322 -1.3227 -1.1690  0.3233
 6160TIP3    H239896   5.946   4.981   1.314 -0.6132  0.0168 -1.1287
 6161TIP3   OH239897   1.944   1.662   5.437  0.0514  0.2700 -1.0441
 6161TIP3    H139898   1.874   1.702   5.488 -0.0215 -0.8570 -0.2108
 6161TIP3    H239899   1.901   1.627   5.360 -0.3509 -0.4887 -0.4956
 6162TIP3   OH239900   1.634   1.994   1.790 -0.2840  0.4255  0.4287
 6162TIP3    H139901   1.711   2.028   1.744 -0.4812 -0.6419 -0.7374
 6162TIP3    H239902   1.669   1.953   1.869  0.1835  1.2238  0.6456
 6163TIP3   OH239903   3.549   3.790  14.459  0.0401  0.3654  0.3583
 6163TIP3    H139904   3.520   3.738  14.534  0.8386 -1.7817 -0.7294
 6163TIP3    H239905   3.607   3.856  14.496  0.7973 -0.9410  1.6174
 6164TIP3   OH239906   3.442   6.180  11.067 -0.1138 -0.8566 -0.4668
 6164TIP3    H139907   3.500   6.105  11.052 -0.2564 -0.9692 -0.4568
 6164TIP3    H239908   3.356   6.151  11.037 -0.4967 -1.2365  0.9206
 6165TIP3   OH239909   0.220   5.761   0.098  0.1162  0.2940 -0.6450
 6165TIP3    H139910   0.211   5.749   0.193  0.8414 -1.9264 -0.7853
 6165TIP3    H239911   0.132   5.751   0.064  0.0133 -0.0415 -0.2905
 6166TIP3   OH239912   5.264   1.956  16.591  0.5506  0.2429  0.4530
 6166TIP3    H139913   5.333   1.942  16.656 -0.2039  0.2615  1.2892
 6166TIP3    H239914   5.232   2.045  16.608 -1.6942 -0.7826  2.1268
 6167TIP3   OH239915   0.102   4.813  16.540 -0.4413 -0.0073  0.2447
 6167TIP3    H139916   0.106   4.908  16.553  2.0867  0.0831 -0.5556
 6167TIP3    H239917   0.170   4.778  16.598 -0.0135 -1.1026 -0.8667
 6168TIP3   OH239918   3.141   6.438  14.742 -0.0548  0.3570 -0.0712
 6168TIP3    H139919   3.108   6.362  14.695  0.2001  2.6489 -4.4339
 6168TIP3    H239920   3.236   6.432  14.734 -0.0142  0.8821 -0.0288
 6169TIP3   OH239921   2.383   5.263  11.085  0.1663 -0.0490  0.1623
 6169TIP3    H139922   2.443   5.200  11.125 -0.8004 -0.6723  0.6562
 6169TIP3    H239923   2.296   5.226  11.099 -0.3101  0.5271 -1.0902
 6170TIP3   OH239924   3.307   4.737   0.036  0.3379 -0.0125  0.0768
 6170TIP3    H139925   3.357   4.798   0.090  2.3683 -0.6737 -0.9680
 6170TIP3    H239926   3.248   4.793  -0.016  0.6840  0.8750  0.6202
 6171TIP3   OH239927   2.095   6.330  15.608 -0.0810  0.4565  0.2458
 6171TIP3    H139928   2.055   6.289  15.685  0.4710 -0.8483 -0.1365
 6171TIP3    H239929   2.185   6.348  15.634 -0.6533  2.8390  0.8952
 6172TIP3   OH239930   2.447   1.746   3.996  0.0374  1.0797 -0.7962
 6172TIP3    H139931   2.410   1.829   3.964 -1.9197  0.0680 -1.3311
 6172TIP3    H239932   2.432   1.685   3.924 -1.0094 -0.3653  0.5860
 6173TIP3   OH239933   5.549   0.260  11.942  0.0849 -0.0949 -0.6108
 6173TIP3    H139934   5.572   0.279  12.033  1.8671  0.5819 -1.1618
 6173TIP3    H239935   5.515   0.170  11.944 -0.2169  0.0397  0.7724
 6174TIP3   OH239936   4.950   2.866   4.102  0.1704  0.2645  0.0382
 6174TIP3    H139937   4.930   2.951   4.061 -1.5010 -0.4013 -0.5951
 6174TIP3    H239938   4.876   2.849   4.160 -0.0819 -1.2578 -0.6769
 6175TIP3   OH239939   1.271   3.773  12.302  0.0745  0.1814 -0.4374
 6175TIP3    H139940   1.343   3.786  12.364 -0.5127 -2.3440  0.9182
 6175TIP3    H239941   1.220   3.854  12.307  0.9542  0.6857  1.1434
 6176TIP3   OH239942   3.838   4.527  13.327 -0.0468  0.7222  0.1722
 6176TIP3    H139943   3.891   4.554  13.252 -0.0891  0.3310  0.0017
 6176TIP3    H239944   3.843   4.432  13.327  0.1879  0.7357  0.8403
 6177TIP3   OH239945   4.498   4.301   3.052  0.0818  0.4080  0.4628
 6177TIP3    H139946   4.423   4.333   3.102  0.1443 -0.2058  0.9593
 6177TIP3    H239947   4.461   4.241   2.988 -0.2128  2.4378 -1.4290
 6178TIP3   OH239948   0.111   6.618   5.641  0.5448  0.0588  0.2222
 6178TIP3    H139949   0.168   6.575   5.706 -1.6663 -0.6485  1.8416
 6178TIP3    H239950   0.024   6.584   5.661 -0.5518  1.5184 -1.7793
 6179TIP3   OH239951   1.610   2.757  13.348 -0.1236 -0.0377 -0.6262
 6179TIP3    H139952   1.698   2.728  13.324 -1.2838 -2.0093 -2.9681
 6179TIP3    H239953   1.599   2.729  13.439  1.7807  0.6386 -0.1447
 6180TIP3   OH239954   1.254   4.363  17.401  0.5792 -0.5107 -0.7188
 6180TIP3    H139955   1.272   4.421  17.474 -0.5355 -1.9053  0.7437
 6180TIP3    H239956   1.162   4.380  17.378  0.2096 -1.7230 -0.2037
 6181TIP3   OH239957   5.975   2.743  13.749 -0.0734  0.1409  0.4413
 6181TIP3    H139958   5.961   2.743  13.655 -0.5423  0.0368  0.5108
 6181TIP3    H239959   5.983   2.651  13.772  1.7189  0.2174  0.2645
 6182TIP3   OH239960   1.293   1.954  11.492  0.6332 -0.8781 -0.3257
 6182TIP3    H139961   1.227   1.980  11.557  0.5265 -0.5182 -0.5727
 6182TIP3    H239962   1.252   1.882  11.443  0.9050 -1.4879  0.3197
 6183TIP3   OH239963   1.842   5.488   2.449  0.0123  0.1136 -0.1630
 6183TIP3    H139964   1.765   5.493   2.392  0.4268  1.0628 -0.6746
 6183TIP3    H239965   1.847   5.397   2.476  0.4082 -0.6176 -2.5114
 6184TIP3   OH239966   1.731   6.136   1.389  0.4737 -0.3711  0.3405
 6184TIP3    H139967   1.684   6.159   1.309 -0.6005  0.1996  1.1015
 6184TIP3    H239968   1.817   6.108   1.360  0.1696  0.0287 -0.9962
 6185TIP3   OH239969   4.410   2.489   1.273  0.0128  0.3378 -0.5051
 6185TIP3    H139970   4.378   2.519   1.357 -0.2029 -0.8713 -0.1391
 6185TIP3    H239971   4.483   2.548   1.252  0.2154  0.5033  0.6286
 6186TIP3   OH239972   6.519   2.208   0.178 -0.1931  0.2753  0.2255
 6186TIP3    H139973   6.610   2.238   0.178 -0.0402 -0.1438  1.0620
 6186TIP3    H239974   6.469   2.284   0.210 -0.0733  0.3346  0.2708
 6187TIP3   OH239975   3.045   3.604  13.288  0.4442  0.1455  0.0931
 6187TIP3    H139976   3.015   3.648  13.368 -0.4995 -1.8334  0.8997
 6187TIP3    H239977   3.129   3.566  13.312  0.7222  0.5447 -0.2413
 6188TIP3   OH239978   5.629   1.076  16.752 -0.1522  0.1411 -0.1038
 6188TIP3    H139979   5.622   1.143  16.684 -1.2074  1.1357  0.9455
 6188TIP3    H239980   5.540   1.045  16.766 -0.0215  0.2447  1.1019
 6189TIP3   OH239981   2.501   2.727   2.421 -0.2476  0.3155 -0.6337
 6189TIP3    H139982   2.490   2.665   2.349 -0.6822 -0.0418 -0.2689
 6189TIP3    H239983   2.569   2.787   2.391  1.4710 -1.3680 -0.3169
 6190TIP3   OH239984   2.291   1.423  12.797  0.9297 -0.5155 -0.2348
 6190TIP3    H139985   2.325   1.488  12.858 -0.5821  0.0649  0.0280
 6190TIP3    H239986   2.367   1.395  12.747  1.5529  1.8333 -0.7130
 6191TIP3   OH239987   1.723   1.518  14.912  0.0499  0.5037 -0.0422
 6191TIP3    H139988   1.819   1.520  14.912  0.1204 -0.9371  1.1375
 6191TIP3    H239989   1.700   1.441  14.861 -0.3454 -0.6811  1.8028
 6192TIP3   OH239990   3.276   5.524  12.967 -0.4766  0.0651  0.1512
 6192TIP3    H139991   3.303   5.591  12.905 -3.5153  1.3438  0.0463
 6192TIP3    H239992   3.186   5.547  12.990 -1.6002 -3.8200  0.3358
 6193TIP3   OH239993   3.653   3.847   0.560  0.4492  0.7284 -0.8603
 6193TIP3    H139994   3.687   3.782   0.498 -2.4139 -1.7099 -0.1097
 6193TIP3    H239995   3.618   3.916   0.504 -0.4002 -0.5455 -1.9859
 6194TIP3   OH239996   6.030   2.081  15.212 -0.1413  0.2210  0.4182
 6194TIP3    H139997   6.107   2.032  15.183  0.6547  1.1089  0.9402
 6194TIP3    H239998   5.956   2.038  15.170  0.7270 -0.0792 -0.8424
 6195TIP3   OH239999   6.499   1.299  12.069  0.1654 -0.2949  0.0449
 6195TIP3    H140000   6.450   1.238  12.013  0.6638  0.1825 -0.9502
 6195TIP3    H240001   6.444   1.311  12.146  0.3820 -2.5789  0.6424
 6196TIP3   OH240002   4.639   0.398  17.320  0.2849 -0.4501  0.1709
 6196TIP3    H140003   4.672   0.324  17.269  0.4236 -1.4418  1.6357
 6196TIP3    H240004   4.707   0.414  17.386  0.4763  1.3058 -0.3850
 6197TIP3   OH240005   2.342   4.142  11.648 -0.3133 -0.0624 -0.3233
 6197TIP3    H140006   2.337   4.071  11.584 -4.3994 -0.4816  0.1934
 6197TIP3    H240007   2.300   4.217  11.604 -0.5699  0.5057  0.8537
 6198TIP3   OH240008   4.020   5.656   6.352 -0.0420  0.0241 -0.2492
 6198TIP3    H140009   3.961   5.580   6.349 -0.6283  0.4905 -1.1511
 6198TIP3    H240010   4.106   5.618   6.367 -0.1689 -0.9292 -1.7075
 6199TIP3   OH240011   1.142   0.029   1.530  0.4621 -0.0819  0.7332
 6199TIP3    H140012   1.110   0.058   1.616 -0.8044 -0.0604  0.2837
 6199TIP3    H240013   1.186  -0.054   1.547  1.9855  0.8818  1.6817
 6200TIP3   OH240014   4.603   4.632  12.143  0.1265 -0.1097 -0.2965
 6200TIP3    H140015   4.677   4.693  12.144  0.4876 -0.4853 -1.6291
 6200TIP3    H240016   4.638   4.550  12.179  0.1139 -0.0382 -0.1203
 6201TIP3   OH240017   5.017   4.265   5.360 -0.0771 -0.8308 -0.0276
 6201TIP3    H140018   4.966   4.321   5.418  1.5133 -0.5245  1.1471
 6201TIP3    H240019   5.016   4.179   5.402 -1.9278 -1.5755 -1.4669
 6202TIP3   OH240020   5.249   1.552   6.307 -0.4849 -0.2846  0.1318
 6202TIP3    H140021   5.207   1.615   6.365  0.4934  0.8988 -0.4062
 6202TIP3    H240022   5.189   1.477   6.305 -1.4699  0.4592  1.1039
 6203TIP3   OH240023   4.266   1.668  12.412 -0.0643  0.0301  0.0006
 6203TIP3    H140024   4.237   1.636  12.327 -0.8526 -0.9986  0.6270
 6203TIP3    H240025   4.346   1.618  12.430 -1.7551 -2.3986  1.3646
 6204TIP3   OH240026   0.797   1.377   3.025 -0.3218  0.2933 -0.3900
 6204TIP3    H140027   0.796   1.468   2.993  1.4498  0.8332  0.9346
 6204TIP3    H240028   0.718   1.369   3.078 -1.1148  0.6578 -1.4684
 6205TIP3   OH240029   1.260   0.397  15.809 -0.3226 -0.0987  0.3103
 6205TIP3    H140030   1.185   0.355  15.767  0.1805  0.3532 -1.1124
 6205TIP3    H240031   1.304   0.327  15.857 -0.0037 -1.0515 -1.2807
 6206TIP3   OH240032   1.471   4.775  14.066 -0.0991 -0.0393  0.5411
 6206TIP3    H140033   1.493   4.824  13.987  0.1861 -0.6498  0.2333
 6206TIP3    H240034   1.540   4.708  14.073 -0.1223  0.0068  1.3016
 6207TIP3   OH240035   5.352   3.651   2.659 -0.2259 -0.3019 -0.0807
 6207TIP3    H140036   5.334   3.741   2.687  1.3133 -0.0009  0.0140
 6207TIP3    H240037   5.384   3.607   2.739 -0.7025 -0.8603 -0.1900
 6208TIP3   OH240038   1.242   4.031   1.780  0.5198 -0.8026 -0.0687
 6208TIP3    H140039   1.221   3.947   1.821 -1.4576  0.0352  0.7374
 6208TIP3    H240040   1.157   4.071   1.762  1.3476  1.9394  1.5061
 6209TIP3   OH240041   1.129   1.590  17.250  0.6276  0.5040 -0.8792
 6209TIP3    H140042   1.160   1.590  17.159  0.8091 -0.4730 -0.8259
 6209TIP3    H240043   1.205   1.564  17.301  0.2575  0.0628 -0.5472
 6210TIP3   OH240044   0.816   1.603   2.004 -0.3664  0.3603 -0.6389
 6210TIP3    H140045   0.857   1.617   2.090  0.7386  1.0575 -1.2612
 6210TIP3    H240046   0.781   1.689   1.980 -0.5157  0.2086 -0.9625
 6211TIP3   OH240047   1.723   6.047   4.660  0.5608 -0.1152  0.4396
 6211TIP3    H140048   1.783   6.098   4.715 -0.3431 -0.1522  1.4998
 6211TIP3    H240049   1.737   6.081   4.572  0.3673  1.6094  1.0307
 6212TIP3   OH240050   5.622   3.968  14.713  0.2405  0.0335 -0.2699
 6212TIP3    H140051   5.666   4.053  14.720 -0.1644  0.1926  0.3526
 6212TIP3    H240052   5.550   3.983  14.651  0.0252  0.2066  0.0204
 6213TIP3   OH240053   5.420   0.166   3.831  0.4670 -0.2481 -0.2456
 6213TIP3    H140054   5.431   0.160   3.736 -0.3907 -2.4533 -0.2509
 6213TIP3    H240055   5.504   0.138   3.866 -0.4663 -3.6216 -0.3949
 6214TIP3   OH240056   0.971   2.559   1.256  0.3024  0.1798  1.0215
 6214TIP3    H140057   0.921   2.641   1.259  1.2935  0.8350  0.2965
 6214TIP3    H240058   1.040   2.570   1.322  0.5868  0.0248  0.7515
 6215TIP3   OH240059   1.289   5.490   1.193  0.0659 -0.4475  0.4230
 6215TIP3    H140060   1.366   5.508   1.139  0.8399  1.7571  2.0975
 6215TIP3    H240061   1.218   5.478   1.129  1.1238  1.0046 -1.1249
 6216TIP3   OH240062   3.741   5.439  16.177 -0.3214 -0.0140  0.1687
 6216TIP3    H140063   3.790   5.357  16.177 -2.7768 -1.6148 -0.4496
 6216TIP3    H240064   3.740   5.467  16.086 -1.8162 -0.8771 -0.1133
 6217TIP3   OH240065   0.135   6.228   4.877 -1.1260  0.1262  0.2184
 6217TIP3    H140066   0.180   6.177   4.944 -0.2438 -0.1220 -0.5357
 6217TIP3    H240067   0.201   6.290   4.846 -1.7474  0.7359  0.0895
 6218TIP3   OH240068   4.244   0.219   4.876 -0.1109 -0.5585  0.3311
 6218TIP3    H140069   4.260   0.125   4.885  0.0614 -1.0788 -3.6289
 6218TIP3    H240070   4.325   0.260   4.907  0.5274 -1.8149  0.3938
 6219TIP3   OH240071   6.325   3.014   5.864  0.1682 -0.3598  0.3993
 6219TIP3    H140072   6.344   2.979   5.777 -1.4691 -0.9533  0.2505
 6219TIP3    H240073   6.289   3.101   5.847  1.2187  0.1322  0.5930
 6220TIP3   OH240074   2.759   1.236   1.348 -1.0160  0.4221 -0.3253
 6220TIP3    H140075   2.723   1.311   1.396  0.0828  1.2296 -0.7092
 6220TIP3    H240076   2.849   1.227   1.382 -1.1094 -0.6836 -0.3407
 6221TIP3   OH240077   5.670   5.397  15.981 -0.2330  0.2361  0.5781
 6221TIP3    H140078   5.667   5.342  16.059 -0.7642 -0.1869  0.2655
 6221TIP3    H240079   5.587   5.445  15.982 -0.2776  0.1688  0.2304
 6222TIP3   OH240080   1.041   5.391  17.403 -0.3921  0.4281 -0.0427
 6222TIP3    H140081   0.970   5.451  17.379 -2.2142 -1.8427 -0.7171
 6222TIP3    H240082   1.089   5.378  17.321 -1.4242 -0.7604 -0.4918
 6223TIP3   OH240083   0.269   3.962   2.078 -0.2544 -0.0863  0.0659
 6223TIP3    H140084   0.176   3.947   2.064 -0.5042  0.4161  1.1676
 6223TIP3    H240085   0.312   3.896   2.023 -1.2633 -0.7190  0.0226
 6224TIP3   OH240086   4.247   6.497   1.553 -0.4956  0.6744 -0.2154
 6224TIP3    H140087   4.308   6.511   1.480  0.0238  0.0130  0.0812
 6224TIP3    H240088   4.282   6.552   1.624  1.6698 -2.0568  1.0210
 6225TIP3   OH240089   0.533   1.616   5.378 -0.0318  0.0880  0.0279
 6225TIP3    H140090   0.610   1.584   5.425 -1.1629  0.9638  2.6429
 6225TIP3    H240091   0.509   1.696   5.423 -2.0517  0.2489 -1.2180
 6226TIP3   OH240092   0.296   4.358  16.147  0.3305 -0.3131 -0.1878
 6226TIP3    H140093   0.364   4.315  16.096  1.5318  0.5862  0.5962
 6226TIP3    H240094   0.302   4.317  16.234  0.2980  0.2153  0.0670
 6227TIP3   OH240095   5.118   3.727   5.982 -0.2475  0.0489 -0.1231
 6227TIP3    H140096   5.181   3.680   6.037  2.0469 -0.1618 -2.7718
 6227TIP3    H240097   5.150   3.817   5.980 -0.4972  0.1279 -0.8356
 6228TIP3   OH240098   0.976   5.979   6.321 -0.3217 -0.2406  1.0261
 6228TIP3    H140099   0.952   6.071   6.308 -0.5783 -0.5159 -0.6712
 6228TIP3    H240100   1.072   5.977   6.311 -0.5432 -0.5462 -2.1304
 6229TIP3   OH240101   6.051   1.408   1.988 -0.6379  0.1260  0.1692
 6229TIP3    H140102   5.979   1.410   2.052 -0.9359 -0.1324 -0.1491
 6229TIP3    H240103   6.026   1.473   1.923 -0.0239  0.8394  0.6335
 6230TIP3   OH240104   3.657   6.114   2.869  0.0958 -0.4145  0.6299
 6230TIP3    H140105   3.645   6.081   2.780  1.3985 -0.8286  0.5845
 6230TIP3    H240106   3.687   6.037   2.918 -1.4706 -0.4169  1.6554
 6231TIP3   OH240107   5.525   2.469   3.294  0.1728 -0.3300 -0.2574
 6231TIP3    H140108   5.556   2.463   3.384  3.7139  0.6522 -1.2330
 6231TIP3    H240109   5.430   2.472   3.301  0.1955 -2.3288  3.2649
 6232TIP3   OH240110   4.625   3.802   0.691  0.4766  0.8062  0.0806
 6232TIP3    H140111   4.644   3.874   0.752  2.1588  0.2647  0.2347
 6232TIP3    H240112   4.619   3.844   0.606  1.3086  1.1495  0.1868
 6233TIP3   OH240113   6.305   6.011  17.321  0.5363 -0.1070  0.0759
 6233TIP3    H140114   6.256   5.976  17.247 -0.7054 -1.1101  1.3109
 6233TIP3    H240115   6.310   5.938  17.383  0.7790  0.9493  1.3417
 6234TIP3   OH240116   6.197   1.413  14.831 -0.0919 -0.0050  0.1439
 6234TIP3    H140117   6.247   1.460  14.898 -0.6489  0.8794 -0.0518
 6234TIP3    H240118   6.169   1.332  14.875 -0.2441  0.4525  0.9078
 6235TIP3   OH240119   5.642   2.169   4.397  0.1826 -0.7803 -0.5162
 6235TIP3    H140120   5.733   2.176   4.367  0.1366 -1.1860 -0.7556
 6235TIP3    H240121   5.609   2.090   4.354 -0.1698 -0.8411 -0.1349
 6236TIP3   OH240122   3.508   1.578  10.995  1.0183 -0.1075  1.0114
 6236TIP3    H140123   3.506   1.674  11.000 -3.0586 -0.0565  1.1672
 6236TIP3    H240124   3.479   1.549  11.081 -2.3780 -1.2339 -0.3703
 6237TIP3   OH240125   1.697   3.575   4.143  0.1905 -0.2906  0.2645
 6237TIP3    H140126   1.763   3.627   4.188  1.1262 -1.5071  0.3531
 6237TIP3    H240127   1.653   3.527   4.212  0.9042 -1.3470  0.0096
 6238TIP3   OH240128   3.356   5.031  12.764  0.3384  0.0910  0.4510
 6238TIP3    H140129   3.372   5.063  12.852  0.4424  0.1028  0.4279
 6238TIP3    H240130   3.302   5.099  12.723 -0.8140 -0.4988  0.9172
 6239TIP3   OH240131   3.234   2.637  12.436 -0.2858 -0.3174  0.1177
 6239TIP3    H140132   3.186   2.558  12.411  1.0849 -0.8828 -0.8478
 6239TIP3    H240133   3.307   2.605  12.489 -1.2306  0.5792  2.0627
 6240TIP3   OH240134   1.602   3.836  14.870 -0.4147  0.2110 -0.2178
 6240TIP3    H140135   1.529   3.775  14.875 -0.0752 -0.2700 -0.9278
 6240TIP3    H240136   1.564   3.921  14.890 -1.0096 -0.1465  0.1980
 6241TIP3   OH240137   5.148   4.221  11.925  0.3803  0.2292 -0.2743
 6241TIP3    H140138   5.109   4.150  11.875  0.2265  0.3413 -0.3128
 6241TIP3    H240139   5.143   4.297  11.867 -0.3176  0.4929  0.1204
 6242TIP3   OH240140   1.152   2.091  13.789 -0.3666 -0.1116 -0.3303
 6242TIP3    H140141   1.089   2.039  13.839  0.3075  1.1087  1.9356
 6242TIP3    H240142   1.229   2.034  13.781 -0.7313 -0.5722 -0.6190
 6243TIP3   OH240143   6.044   5.574   3.509  0.5824 -0.4091 -0.2085
 6243TIP3    H140144   6.054   5.520   3.430 -0.5072 -0.0212 -0.6464
 6243TIP3    H240145   6.121   5.629   3.511 -0.2207  0.8900 -2.0874
 6244TIP3   OH240146   0.544   1.651  13.399  0.9487  0.6188 -0.6234
 6244TIP3    H140147   0.592   1.705  13.336 -1.0184 -0.9116 -3.6641
 6244TIP3    H240148   0.556   1.561  13.369 -2.6000  0.0609 -0.8022
 6245TIP3   OH240149   0.309   1.978  17.425  0.1437 -0.0406 -0.0717
 6245TIP3    H140150   0.304   2.008  17.334  2.7058 -1.1543 -0.6525
 6245TIP3    H240151   0.327   2.057  17.475  2.7440  0.1032 -1.0837
 6246TIP3   OH240152   0.829   5.586   0.574 -0.4566 -0.6710 -0.1265
 6246TIP3    H140153   0.754   5.600   0.632  1.1787  0.0015  1.9637
 6246TIP3    H240154   0.871   5.507   0.608 -1.5019 -2.5706 -2.8449
 6247TIP3   OH240155   6.641   5.012   4.345 -0.0632 -0.2314 -0.1066
 6247TIP3    H140156   6.640   5.098   4.388 -2.4182  1.1100 -2.5599
 6247TIP3    H240157   6.732   5.001   4.318  0.9457  0.0286  2.7922
 6248TIP3   OH240158   5.954   1.467  14.663  0.0277 -0.0058  0.0887
 6248TIP3    H140159   5.998   1.498  14.585  0.3261 -1.7566 -0.4851
 6248TIP3    H240160   6.010   1.494  14.736  0.1514  0.9393 -0.3466
 6249TIP3   OH240161   1.960   2.971  13.270 -0.7094  0.3314  0.3852
 6249TIP3    H140162   1.915   2.888  13.283  0.9574 -0.4152  1.7965
 6249TIP3    H240163   1.999   2.964  13.183  0.3998 -0.8858  0.9491
 6250TIP3   OH240164   0.736   0.533  15.456  0.4179  0.5205 -0.5564
 6250TIP3    H140165   0.786   0.578  15.524 -0.0022 -1.1191  0.9541
 6250TIP3    H240166   0.797   0.470  15.419  0.5137  1.0967 -1.3799
 6251TIP3   OH240167   0.431   0.028  13.107  0.0300 -0.1740 -0.5296
 6251TIP3    H140168   0.493   0.098  13.130  0.7639 -0.3388 -1.9181
 6251TIP3    H240169   0.347   0.073  13.098  0.5054  0.5664 -1.4764
 6252TIP3   OH240170   2.602   2.592   1.599 -0.5517 -0.0070  0.0759
 6252TIP3    H140171   2.580   2.615   1.508  0.0286 -1.8828 -0.5841
 6252TIP3    H240172   2.517   2.592   1.644 -1.0086 -0.2849 -0.7648
 6253TIP3   OH240173   2.820   2.041  12.865  0.2337 -0.3543 -0.3201
 6253TIP3    H140174   2.895   2.029  12.807 -0.4700 -1.6035 -1.0165
 6253TIP3    H240175   2.782   2.125  12.839  0.9932 -0.0355 -0.4111
 6254TIP3   OH240176   5.151   0.233   5.813  0.0091 -0.2266 -0.1735
 6254TIP3    H140177   5.075   0.275   5.855 -1.1712 -2.7317  0.3567
 6254TIP3    H240178   5.219   0.234   5.880  0.5831  2.1462 -0.6887
 6255TIP3   OH240179   0.639   6.639   0.228 -0.2701 -0.3987 -0.0414
 6255TIP3    H140180   0.715   6.697   0.236  0.1850 -1.1461  1.3727
 6255TIP3    H240181   0.618   6.615   0.318 -1.6545 -0.9095 -0.4795
 6256TIP3   OH240182   2.392   3.997  13.570 -0.4657  0.5292  0.5091
 6256TIP3    H140183   2.429   3.926  13.518  0.3601 -1.0059  3.0138
 6256TIP3    H240184   2.297   3.987  13.559 -0.3436 -0.5612  0.2743
 6257TIP3   OH240185   4.128   2.795   7.083  0.0360 -0.4260 -0.1755
 6257TIP3    H140186   4.043   2.783   7.039 -1.6259  2.0792  1.9945
 6257TIP3    H240187   4.107   2.789   7.177  2.6518 -1.5038  0.4172
 6258TIP3   OH240188   4.684   2.504   6.069 -0.5051 -0.4591  0.1752
 6258TIP3    H140189   4.646   2.590   6.089 -2.4099 -1.4586  1.1147
 6258TIP3    H240190   4.754   2.523   6.007  1.2317  2.1159  2.6709
 6259TIP3   OH240191   6.039   0.670   1.058 -0.4651 -0.4947 -0.7267
 6259TIP3    H140192   6.035   0.575   1.048  0.3096 -0.5832 -0.2659
 6259TIP3    H240193   6.075   0.684   1.145 -1.5697  0.2352 -0.3605
 6260TIP3   OH240194   1.116   5.596  14.996  0.2107  0.5141  0.0161
 6260TIP3    H140195   1.074   5.597  15.082  1.3963 -2.0223  0.7260
 6260TIP3    H240196   1.043   5.588  14.934 -0.5631  0.1752  0.9408
 6261TIP3   OH240197   4.119   3.882  14.257 -0.2215  0.2887  0.2571
 6261TIP3    H140198   4.100   3.788  14.260 -1.3760  0.5323  1.5271
 6261TIP3    H240199   4.069   3.914  14.181 -0.4767  0.0014  0.3002
 6262TIP3   OH240200   0.006   4.047   2.028  0.0126 -0.0119 -0.3615
 6262TIP3    H140201  -0.035   4.107   2.090 -0.0827  0.1517 -0.5833
 6262TIP3    H240202  -0.040   3.964   2.042  0.3425 -0.1117  0.1472
 6263TIP3   OH240203   0.262   1.637  14.048 -0.2026 -0.4583  0.2494
 6263TIP3    H140204   0.339   1.586  14.071  0.0819 -0.0407  0.2435
 6263TIP3    H240205   0.289   1.686  13.971 -0.2116  0.2660  0.6935
 6264TIP3   OH240206   2.962   2.523  16.907 -0.0066  0.1670 -0.7221
 6264TIP3    H140207   2.981   2.604  16.859  0.4616 -0.2525 -1.2687
 6264TIP3    H240208   2.871   2.532  16.935  0.0058  0.8276 -0.8834
 6265TIP3   OH240209   6.184   3.826   4.881  0.1446  0.2916 -0.0208
 6265TIP3    H140210   6.275   3.848   4.864  0.8137 -1.1092  1.4415
 6265TIP3    H240211   6.159   3.771   4.807 -0.2206  2.3262 -1.4932
 6266TIP3   OH240212   0.062   2.196   6.064  0.6616 -0.0139 -1.3766
 6266TIP3    H140213   0.116   2.178   6.141 -0.7900 -1.6362 -0.6671
 6266TIP3    H240214   0.106   2.268   6.020  1.9012  0.5265  0.6199
 6267TIP3   OH240215   6.476   4.249  11.091  0.1023  0.2266 -0.4311
 6267TIP3    H140216   6.445   4.189  11.023 -2.0494 -0.3116  0.9124
 6267TIP3    H240217   6.554   4.290  11.053  0.3225 -1.7003 -2.3037
 6268TIP3   OH240218   2.304   2.164   3.887  0.4531  0.3732 -0.3397
 6268TIP3    H140219   2.257   2.236   3.845  1.7787  0.3546 -1.9350
 6268TIP3    H240220   2.358   2.126   3.818  0.7489 -1.3672  0.7647
 6269TIP3   OH240221   4.249   2.707   6.136  0.5270 -0.3035 -0.4387
 6269TIP3    H140222   4.324   2.691   6.193  0.7462 -0.6662 -0.8274
 6269TIP3    H240223   4.174   2.672   6.184  0.2716  1.8880  0.8866
 6270TIP3   OH240224   6.575   6.119  16.435 -0.0947  1.0725 -0.2838
 6270TIP3    H140225   6.581   6.174  16.513 -0.6263 -0.7130  1.0603
 6270TIP3    H240226   6.488   6.138  16.399  0.0673  1.7425 -0.3349
 6271TIP3   OH240227   1.172   3.733  13.688  0.2880 -0.3753  0.6000
 6271TIP3    H140228   1.204   3.771  13.606  1.5796 -1.6804  0.4618
 6271TIP3    H240229   1.180   3.639  13.675 -1.3385 -0.6690  1.5237
 6272TIP3   OH240230   1.188   4.115  15.052 -0.2955  0.0908 -0.0712
 6272TIP3    H140231   1.172   4.104  14.958  2.0267  0.9287 -0.6407
 6272TIP3    H240232   1.200   4.209  15.064  1.4172 -0.1743  0.6516
 6273TIP3   OH240233   4.930   0.936  15.757  0.6959  0.3237  0.1728
 6273TIP3    H140234   4.850   0.989  15.761  0.7791  0.3902  1.4360
 6273TIP3    H240235   5.001   0.999  15.766  0.8368  0.1350  0.4036
 6274TIP3   OH240236   6.244   4.190   5.703 -0.3397 -0.4704 -0.8941
 6274TIP3    H140237   6.239   4.224   5.613 -2.3495  0.9774 -0.2919
 6274TIP3    H240238   6.188   4.248   5.754  2.3732  0.0719  1.7608
 6275TIP3   OH240239   2.623   1.330  17.331 -0.1648 -0.4598  0.1268
 6275TIP3    H140240   2.564   1.272  17.380 -1.2594  0.3929 -0.1478
 6275TIP3    H240241   2.693   1.351  17.393 -0.8409 -0.4313  0.8917
 6276TIP3   OH240242   6.455   0.333  13.703 -0.1353  0.0806  0.5249
 6276TIP3    H140243   6.447   0.391  13.779  0.1722 -0.4569  0.9701
 6276TIP3    H240244   6.478   0.248  13.739 -0.8390 -0.3942 -0.1059
 6277TIP3   OH240245   0.327   3.964  17.308 -0.1400  0.1435  0.0944
 6277TIP3    H140246   0.286   3.900  17.249 -0.6702 -0.7589  1.4053
 6277TIP3    H240247   0.265   4.036  17.313 -2.7351 -2.0287  3.5882
 6278TIP3   OH240248   3.879   5.964  12.868  0.7937 -0.3543  0.4808
 6278TIP3    H140249   3.818   6.035  12.886  0.5405 -0.3525 -0.3269
 6278TIP3    H240250   3.895   5.970  12.774  0.7828 -1.3453  0.4065
 6279TIP3   OH240251   1.892   5.638  12.613 -0.3433  0.2043  0.2567
 6279TIP3    H140252   1.962   5.604  12.559 -0.4902 -0.5250  0.5183
 6279TIP3    H240253   1.856   5.711  12.563  1.5486  1.5732  0.7618
 6280TIP3   OH240254   1.260   4.986  14.734 -0.4671 -0.9795  0.2141
 6280TIP3    H140255   1.328   4.953  14.793  0.2004 -2.4978 -1.3387
 6280TIP3    H240256   1.282   4.950  14.648 -1.6592  0.8221 -0.9091
 6281TIP3   OH240257   6.135   2.302  16.596 -0.3876 -0.1448  0.5086
 6281TIP3    H140258   6.083   2.353  16.535  0.3507  0.2124  0.1605
 6281TIP3    H240259   6.226   2.325  16.575 -0.0858 -0.8018  1.0508
 6282TIP3   OH240260   0.958   6.291   0.191  0.3758  0.0498  0.1802
 6282TIP3    H140261   0.918   6.303   0.104 -0.5130 -1.4612  0.3525
 6282TIP3    H240262   0.993   6.202   0.189  1.7292  0.5431  0.8547
 6283TIP3   OH240263   1.079   0.394  10.976 -0.6914  0.4737 -0.0141
 6283TIP3    H140264   1.032   0.330  11.030  1.9472 -0.5473  1.2537
 6283TIP3    H240265   1.168   0.360  10.972  0.5994  3.6078 -0.0960
 6284TIP3   OH240266   2.443   5.883   1.854 -0.5638 -0.0997 -0.1133
 6284TIP3    H140267   2.431   5.977   1.869  1.7117  0.0586  1.1323
 6284TIP3    H240268   2.469   5.877   1.762  2.0829  0.8771  0.4782
 6285TIP3   OH240269   0.046   3.412   3.279  0.2058 -0.6621 -0.0529
 6285TIP3    H140270  -0.034   3.371   3.245 -0.7329  1.0236  0.0150
 6285TIP3    H240271   0.093   3.340   3.321 -1.7835 -1.5418  0.8280
 6286TIP3   OH240272   2.781   3.835   1.825  0.7424 -0.2624  0.2702
 6286TIP3    H140273   2.861   3.880   1.797  0.2183  0.8162  0.4555
 6286TIP3    H240274   2.813   3.757   1.870  1.7187  0.3951  0.7696
 6287TIP3   OH240275   1.943   5.401   1.393 -0.5958 -0.3025 -0.1698
 6287TIP3    H140276   1.978   5.489   1.409  0.9704 -1.0135  0.4292
 6287TIP3    H240277   1.969   5.382   1.303  0.3859 -0.7228  0.1871
 6288TIP3   OH240278   0.857   5.227  12.280  0.0824 -0.0245  0.0023
 6288TIP3    H140279   0.853   5.195  12.370  0.5903 -0.1218 -0.0107
 6288TIP3    H240280   0.771   5.268  12.266  0.5686  1.4389  1.0676
 6289TIP3   OH240281   3.015   6.019  15.234 -0.1128 -0.0912 -0.4735
 6289TIP3    H140282   2.991   6.092  15.177 -0.5989 -0.2039 -0.4178
 6289TIP3    H240283   3.035   5.947  15.174  0.9483  0.2511 -0.5492
 6290TIP3   OH240284   2.912   4.912   0.792  0.0000 -0.4301  0.0695
 6290TIP3    H140285   2.990   4.946   0.747  0.6702 -1.6528  0.2748
 6290TIP3    H240286   2.858   4.990   0.808  0.7445  0.3172 -0.8967
 6291TIP3   OH240287   6.008   5.523  13.087  0.4521  0.0695  0.6020
 6291TIP3    H140288   6.059   5.488  13.161  1.0112 -0.3923  0.0153
 6291TIP3    H240289   5.971   5.445  13.045 -0.7066  0.3973  0.9780
 6292TIP3   OH240290   0.274   6.471   6.080  0.6706 -0.0526 -0.2884
 6292TIP3    H140291   0.195   6.484   6.027 -0.1435  1.4807  1.1939
 6292TIP3    H240292   0.242   6.430   6.161  2.1952 -4.6704 -1.6958
 6293TIP3   OH240293   1.652   3.432  17.160 -0.3434 -0.6277  0.0072
 6293TIP3    H140294   1.705   3.506  17.190 -0.2609 -0.3769 -0.7338
 6293TIP3    H240295   1.708   3.386  17.097 -0.8982 -0.5044 -0.5892
 6294TIP3   OH240296   2.553   0.439   5.813  0.2580  0.1232 -0.4184
 6294TIP3    H140297   2.622   0.475   5.868  2.4807 -1.0164 -2.2754
 6294TIP3    H240298   2.510   0.374   5.868  1.8096 -0.3385  0.3038
 6295TIP3   OH240299   2.311   5.248   5.071  0.3071 -0.3177  0.0659
 6295TIP3    H140300   2.325   5.294   5.154  1.5364  0.1791 -0.3904
 6295TIP3    H240301   2.379   5.282   5.013 -0.3697 -0.8509 -1.0733
 6296TIP3   OH240302   5.344   1.716   0.404 -0.0154  0.1750 -0.5566
 6296TIP3    H140303   5.384   1.791   0.450 -1.0157  0.1453  0.4119
 6296TIP3    H240304   5.346   1.740   0.312 -2.5109  2.5372 -0.1089
 6297TIP3   OH240305   0.321   0.532  11.283 -0.2585  0.7130 -0.0069
 6297TIP3    H140306   0.409   0.570  11.287  0.0054  0.1490 -0.2629
 6297TIP3    H240307   0.265   0.594  11.330  0.0728  1.6452 -0.7931
 6298TIP3   OH240308   6.401   5.037   2.336 -0.8773  0.5118  0.2770
 6298TIP3    H140309   6.352   4.999   2.409 -0.8900 -2.2788 -1.0433
 6298TIP3    H240310   6.415   4.963   2.277  1.0577  2.2046 -1.4978
 6299TIP3   OH240311   0.659   2.073  15.068  0.0794 -0.2184 -0.5736
 6299TIP3    H140312   0.703   2.022  15.136  1.2134 -0.8021 -1.6941
 6299TIP3    H240313   0.614   2.007  15.015 -1.6668  0.3234  0.1813
 6300TIP3   OH240314   1.793   0.028   5.040  0.2211 -0.4543 -0.1033
 6300TIP3    H140315   1.733  -0.046   5.051  0.0880 -0.5521 -1.3785
 6300TIP3    H240316   1.740   0.105   5.062 -0.1686 -0.5990 -0.5203
 6301TIP3   OH240317   4.800   2.125  13.086  0.7513 -0.6860 -0.1554
 6301TIP3    H140318   4.742   2.115  13.162 -1.0641  0.5034 -1.2989
 6301TIP3    H240319   4.795   2.041  13.041 -2.6874  0.2323 -1.8795
 6302TIP3   OH240320   2.221   1.639   5.378 -0.1278 -0.8291  0.5189
 6302TIP3    H140321   2.131   1.653   5.406 -0.4754 -0.9745 -0.4701
 6302TIP3    H240322   2.267   1.611   5.457 -1.2129 -1.9361  0.7869
 6303TIP3   OH240323   6.657   5.751  16.841  0.4238  0.3653 -0.1914
 6303TIP3    H140324   6.572   5.750  16.798  1.0938  2.9882 -1.8321
 6303TIP3    H240325   6.667   5.841  16.873  2.8544  0.3798 -0.7434
 6304TIP3   OH240326   0.666   3.674  16.831 -0.4286  0.2235  0.0153
 6304TIP3    H140327   0.712   3.590  16.826 -0.1969  0.2087  1.6979
 6304TIP3    H240328   0.688   3.708  16.918  1.8901  3.4457 -1.6059
 6305TIP3   OH240329   4.350   4.959   3.036  0.4512 -0.3733 -0.0326
 6305TIP3    H140330   4.271   5.002   3.068  1.8274  1.2422  1.3862
 6305TIP3    H240331   4.330   4.866   3.041 -0.5491 -0.1067  2.6036
 6306TIP3   OH240332   0.525   0.458   4.587 -0.4139 -0.5829 -0.5671
 6306TIP3    H140333   0.551   0.538   4.541 -0.3945 -1.3238 -1.8599
 6306TIP3    H240334   0.471   0.410   4.525  1.5153 -2.7135 -0.7183
 6307TIP3   OH240335   0.290   3.588   3.199  0.3678 -0.2050 -0.2550
 6307TIP3    H140336   0.328   3.593   3.112 -0.0196 -1.8813 -0.5671
 6307TIP3    H240337   0.197   3.571   3.185 -0.1531  1.7387  0.5075
 6308TIP3   OH240338   0.639   1.579  11.796  0.0665 -0.3305  0.2451
 6308TIP3    H140339   0.670   1.489  11.786 -0.3515 -0.4648  0.1541
 6308TIP3    H240340   0.716   1.627  11.828  0.8796 -0.2992 -1.5928
 6309TIP3   OH240341   4.144   2.574  11.954  0.9586  0.0664  0.1581
 6309TIP3    H140342   4.118   2.485  11.976 -2.0822  1.0888  1.1493
 6309TIP3    H240343   4.212   2.595  12.018 -0.0607 -0.7339  1.5663
 6310TIP3   OH240344   4.664   4.485  16.113 -0.1985 -0.7340  0.0631
 6310TIP3    H140345   4.640   4.438  16.193 -0.2897  0.2979  0.6493
 6310TIP3    H240346   4.581   4.522  16.082 -0.1079 -0.8702 -0.3484
 6311TIP3   OH240347   5.412   2.159   6.021 -0.7683 -0.2731  0.1567
 6311TIP3    H140348   5.433   2.248   5.993 -0.8355 -0.3724 -0.2156
 6311TIP3    H240349   5.317   2.155   6.021 -0.7632 -0.5113 -0.3735
 6312TIP3   OH240350   2.161   0.802   3.936 -0.0075  0.2567  0.2818
 6312TIP3    H140351   2.218   0.725   3.927  0.0684  0.3070  0.3275
 6312TIP3    H240352   2.160   0.820   4.030 -1.3497 -0.6800  0.4661
 6313TIP3   OH240353   4.001   1.193  15.324 -0.2435  0.0985 -0.0631
 6313TIP3    H140354   4.031   1.275  15.362  0.3019  0.1173 -0.5219
 6313TIP3    H240355   4.029   1.197  15.232  0.6390 -1.0018  0.1316
 6314TIP3   OH240356   5.822   4.068  15.743 -0.5358  0.1997 -0.8045
 6314TIP3    H140357   5.782   4.154  15.742  0.2921  0.6026 -0.3170
 6314TIP3    H240358   5.826   4.044  15.836  1.5536  0.7779 -0.6772
 6315TIP3   OH240359   3.709   4.541   6.048 -0.0924 -0.2685  0.6484
 6315TIP3    H140360   3.668   4.523   5.964 -0.1589 -1.0607  0.8428
 6315TIP3    H240361   3.723   4.635   6.048 -1.2835 -0.0723  0.2929
 6316TIP3   OH240362   5.380   3.123   2.867  0.2470 -0.2070 -0.1799
 6316TIP3    H140363   5.330   3.055   2.911 -0.8242  1.5999  1.5883
 6316TIP3    H240364   5.465   3.122   2.910 -0.5992  1.1487  1.7034
 6317TIP3   OH240365   4.567   4.582  13.999 -0.3276 -0.4922  0.4742
 6317TIP3    H140366   4.494   4.536  14.040  1.8756 -1.6082  3.5385
 6317TIP3    H240367   4.645   4.537  14.032  1.8182  1.8888 -0.9834
 6318TIP3   OH240368   6.111   3.390  14.129 -0.1286 -0.4999  0.0127
 6318TIP3    H140369   6.173   3.438  14.183 -0.2461 -1.5665  1.1665
 6318TIP3    H240370   6.025   3.414  14.164 -0.3698  0.5608 -1.2287
 6319TIP3   OH240371   0.716   3.907  15.698  0.4717  0.5472 -0.0530
 6319TIP3    H140372   0.744   3.939  15.613 -1.6044  1.3290 -0.5143
 6319TIP3    H240373   0.658   3.975  15.731  0.9556  0.0896  1.8457
 6320TIP3   OH240374   2.333   2.251  15.941  0.2313  0.3108 -0.4335
 6320TIP3    H140375   2.343   2.320  15.875 -1.8745  0.3186 -0.8246
 6320TIP3    H240376   2.418   2.207  15.944  1.2641  2.1683 -1.0235
 6321TIP3   OH240377   0.489   4.239  16.022 -0.2733 -0.8712  0.5525
 6321TIP3    H140378   0.495   4.259  15.929 -0.1417 -0.9542  0.5430
 6321TIP3    H240379   0.524   4.150  16.030  1.1382 -0.3173  0.8868
 6322TIP3   OH240380   3.402   5.245  16.752 -0.0278 -0.8360 -0.3045
 6322TIP3    H140381   3.409   5.181  16.682  1.5914 -0.5121 -0.4680
 6322TIP3    H240382   3.450   5.207  16.826  2.4551  0.8075 -0.9285
 6323TIP3   OH240383   2.059   1.158  15.310  0.6017  0.6849  0.5012
 6323TIP3    H140384   2.062   1.123  15.399  2.9739  1.2740  0.7186
 6323TIP3    H240385   1.969   1.191  15.301  0.8062  2.5210  3.4775
 6324TIP3   OH240386   1.557   2.442   3.628  0.3023  0.1433  0.4309
 6324TIP3    H140387   1.477   2.493   3.641  0.4843  0.4521  0.3524
 6324TIP3    H240388   1.533   2.374   3.565  0.1023  0.2305  0.4129
 6325TIP3   OH240389   4.948   5.684   3.219 -0.1069  0.1820 -0.0132
 6325TIP3    H140390   4.916   5.773   3.231  0.1226  0.3275 -0.4926
 6325TIP3    H240391   4.870   5.632   3.201  0.1106  1.0040 -4.1381
 6326TIP3   OH240392   3.651   5.002   2.402  0.1082  0.3247  0.2463
 6326TIP3    H140393   3.712   5.074   2.415 -1.3660  1.5473  0.6580
 6326TIP3    H240394   3.668   4.972   2.312  0.8272  1.1040  0.1099
 6327TIP3   OH240395   2.748   6.538   3.558  0.6007 -0.0681 -0.5247
 6327TIP3    H140396   2.791   6.616   3.594  0.4901 -0.6229  0.8812
 6327TIP3    H240397   2.658   6.566   3.540  0.2039 -0.1561  1.1514
 6328TIP3   OH240398   6.202   4.536   5.700  0.3333  0.3712 -0.6176
 6328TIP3    H140399   6.124   4.483   5.716  0.1085  1.1674  1.1839
 6328TIP3    H240400   6.204   4.549   5.606 -0.2306 -1.8616 -0.9846
 6329TIP3   OH240401   4.453   5.208  14.075  0.8307  0.0280 -0.7389
 6329TIP3    H140402   4.402   5.289  14.080 -0.9707 -0.9988 -1.6274
 6329TIP3    H240403   4.408   5.154  14.011  2.1813 -1.5763 -0.4337
 6330TIP3   OH240404   6.205   4.304   5.470  0.0357 -0.0072  0.1865
 6330TIP3    H140405   6.158   4.387   5.471 -0.0112 -0.0366  0.5480
 6330TIP3    H240406   6.287   4.324   5.424  0.4349  0.4735  1.0700
 6331TIP3   OH240407   0.147   4.647  15.237 -0.1820 -0.1245  0.4304
 6331TIP3    H140408   0.221   4.606  15.193  2.1143  1.3796  2.6338
 6331TIP3    H240409   0.147   4.738  15.207 -3.1687 -0.7316 -1.8827
 6332TIP3   OH240410   3.622   5.860   1.643 -0.4545 -0.2801 -0.3287
 6332TIP3    H140411   3.705   5.828   1.678 -0.3191  0.5521  0.1562
 6332TIP3    H240412   3.568   5.875   1.721 -1.3278 -1.4782 -0.6756
 6333TIP3   OH240413   3.296   4.070  11.509  0.0803 -0.2522  0.0431
 6333TIP3    H140414   3.247   3.990  11.490  0.6151 -0.6058  0.1119
 6333TIP3    H240415   3.284   4.084  11.603 -0.5424  0.1123 -0.0896
 6334TIP3   OH240416   6.292   3.660  12.025 -0.1208  0.2998  0.2143
 6334TIP3    H140417   6.378   3.636  11.992 -0.1997  0.4363 -0.0950
 6334TIP3    H240418   6.309   3.699  12.111  0.1394  0.4532  0.0963
 6335TIP3   OH240419   3.708   6.580   4.373 -0.9379  0.1229  0.5374
 6335TIP3    H140420   3.784   6.531   4.406 -0.5410  0.0461 -0.4475
 6335TIP3    H240421   3.671   6.524   4.305 -0.7395  0.9839 -0.3008
 6336TIP3   OH240422   2.308   2.783   4.286  0.1492 -0.3390 -0.6439
 6336TIP3    H140423   2.321   2.704   4.234  0.2667 -0.7771  0.0399
 6336TIP3    H240424   2.273   2.848   4.224  1.2459 -0.5394 -1.4822
 6337TIP3   OH240425   1.692   6.494   2.366 -0.0712  0.2357 -0.8348
 6337TIP3    H140426   1.760   6.438   2.327  1.2311  0.9228  0.3381
 6337TIP3    H240427   1.716   6.499   2.458 -1.3638  1.0593 -0.5207
 6338TIP3   OH240428   2.094   4.775  14.320  0.6586  0.1983 -0.4747
 6338TIP3    H140429   2.134   4.833  14.254  3.6167 -0.4787  0.5761
 6338TIP3    H240430   2.056   4.835  14.384  0.5395  0.9088 -1.1920
 6339TIP3   OH240431   2.215   3.380  14.701 -0.5046  0.1476 -0.0315
 6339TIP3    H140432   2.247   3.400  14.789 -1.2078 -1.0226  0.5151
 6339TIP3    H240433   2.275   3.427  14.643  0.0909  0.7817  1.0578
 6340TIP3   OH240434   5.628   6.101  14.382  0.7355  0.0039  0.1682
 6340TIP3    H140435   5.615   6.192  14.410  1.7700 -0.4553  2.3558
 6340TIP3    H240436   5.548   6.078  14.335 -1.0719  0.9754  2.5845
 6341TIP3   OH240437   4.189   5.024   2.313 -0.2658  0.2014  0.5050
 6341TIP3    H140438   4.200   5.041   2.406  1.6163  0.0195  0.3551
 6341TIP3    H240439   4.241   5.092   2.270 -0.2976 -0.3183 -0.3816
 6342TIP3   OH240440   5.453   1.034   3.500 -0.2845  0.2687  0.0657
 6342TIP3    H140441   5.484   1.063   3.414 -1.1545  0.3161 -0.2476
 6342TIP3    H240442   5.361   1.010   3.485 -0.5401  0.5805  1.0501
 6343TIP3   OH240443   3.215   1.494   3.715  0.5287 -0.2258  0.2478
 6343TIP3    H140444   3.302   1.533   3.714  0.6649 -0.5076  0.9696
 6343TIP3    H240445   3.207   1.452   3.629  1.1323 -0.2542  0.2016
 6344TIP3   OH240446   1.857   2.274  16.861  0.2551  0.6355  0.6155
 6344TIP3    H140447   1.894   2.249  16.777 -0.7507 -1.9209  0.8614
 6344TIP3    H240448   1.930   2.311  16.910  1.6424 -0.8913 -0.2211
 6345TIP3   OH240449   2.723   0.407  13.121  0.0053  0.0525 -0.8985
 6345TIP3    H140450   2.683   0.493  13.134 -0.7510 -0.1374 -1.8330
 6345TIP3    H240451   2.652   0.353  13.084  0.3217 -1.1115  0.0913
 6346TIP3   OH240452   1.374   0.177   0.067 -0.3811 -0.2050  0.5926
 6346TIP3    H140453   1.459   0.145   0.038  0.3787 -0.3057  2.7723
 6346TIP3    H240454   1.331   0.101   0.107 -1.0949  0.0706  0.3770
 6347TIP3   OH240455   5.346   3.208  17.359 -0.2784  0.2134 -0.2317
 6347TIP3    H140456   5.353   3.159  17.277  0.4550  0.4775 -0.3297
 6347TIP3    H240457   5.355   3.299  17.334 -0.4887  0.3266  0.0938
 6348TIP3   OH240458   3.224   3.807   6.823 -0.2717  0.0861 -0.0349
 6348TIP3    H140459   3.202   3.879   6.764 -0.1877 -1.4057 -1.9743
 6348TIP3    H240460   3.165   3.818   6.897  0.1312  2.4530 -0.0037
 6349TIP3   OH240461   0.383   5.075  15.448  0.1237 -0.7558 -0.1049
 6349TIP3    H140462   0.478   5.081  15.432  0.3034 -0.7660  0.8782
 6349TIP3    H240463   0.370   5.125  15.528 -0.8140 -0.2086 -0.5897
 6350TIP3   OH240464   1.930   0.464   2.884  0.0121  0.2656 -0.0499
 6350TIP3    H140465   2.025   0.470   2.894 -0.2214  3.7541  1.6967
 6350TIP3    H240466   1.917   0.436   2.793  2.7366  1.8162 -1.0326
 6351TIP3   OH240467   4.057   5.959  13.926  0.1691 -0.1781 -0.2984
 6351TIP3    H140468   4.142   5.979  13.886 -0.5418  0.9859 -1.2794
 6351TIP3    H240469   3.995   5.959  13.853 -0.8676  0.1937  0.5592
 6352TIP3   OH240470   0.799   5.695  12.826  0.1661  0.2601  0.0916
 6352TIP3    H140471   0.765   5.610  12.798  1.6708  0.6147 -3.1861
 6352TIP3    H240472   0.882   5.674  12.869  1.5421  0.0567 -2.4657
 6353TIP3   OH240473   2.701   6.308   3.702  0.5785  0.2405 -0.0900
 6353TIP3    H140474   2.747   6.371   3.647 -0.9354  0.2134 -1.4610
 6353TIP3    H240475   2.768   6.245   3.728  1.6678  1.2117 -0.4831
 6354TIP3   OH240476   6.234   4.444   3.483 -0.0886 -0.7955  0.5558
 6354TIP3    H140477   6.166   4.471   3.544  0.1981 -1.4212  1.1695
 6354TIP3    H240478   6.309   4.423   3.538  0.2661 -1.1087 -0.0307
 6355TIP3   OH240479   1.693   0.820   2.473  0.0467  0.8071  0.5958
 6355TIP3    H140480   1.748   0.742   2.472  0.9183  1.4043  0.8082
 6355TIP3    H240481   1.680   0.839   2.566  0.1497  1.1295  0.5464
 6356TIP3   OH240482   4.834   2.279   1.168 -0.2059  0.4951  0.3273
 6356TIP3    H140483   4.799   2.297   1.080 -1.9385  0.9082  1.0612
 6356TIP3    H240484   4.837   2.365   1.210 -0.2769  0.1823  0.9823
 6357TIP3   OH240485   5.256   5.653   1.108 -0.7161 -0.0572 -0.4736
 6357TIP3    H140486   5.333   5.610   1.146  2.1238  2.5577 -2.7198
 6357TIP3    H240487   5.214   5.698   1.181  0.3359 -0.9105  0.6948
 6358TIP3   OH240488   3.017   6.113  11.510 -0.2081  0.0554 -0.0179
 6358TIP3    H140489   2.931   6.082  11.482  0.2281  0.1554 -1.5363
 6358TIP3    H240490   3.035   6.189  11.454 -0.5834  2.2283  2.5448
 6359TIP3   OH240491   3.929   5.415   0.649  0.5270  0.1200  0.1601
 6359TIP3    H140492   3.947   5.443   0.739 -0.9692  0.5359  0.3724
 6359TIP3    H240493   3.954   5.490   0.596 -0.0565  0.4951  0.3962
 6360TIP3   OH240494   4.955   4.592   5.961 -0.4982 -0.1029 -0.5156
 6360TIP3    H140495   4.924   4.683   5.964  1.0863  0.4898 -0.7675
 6360TIP3    H240496   4.994   4.583   5.874 -0.2860 -0.8938 -0.3443
 6361TIP3   OH240497   0.620   5.429  14.717 -0.3132 -0.5716 -0.3072
 6361TIP3    H140498   0.687   5.418  14.650 -1.5027 -0.5936 -1.5159
 6361TIP3    H240499   0.660   5.488  14.781  0.3336  0.6207 -1.7534
 6362TIP3   OH240500   6.494   0.968  13.519 -0.7356  0.1245  0.2999
 6362TIP3    H140501   6.414   0.964  13.571 -0.1538 -0.0957  1.2090
 6362TIP3    H240502   6.552   1.025  13.569  0.3307 -1.1847  0.6209
 6363TIP3   OH240503   1.233   5.955  13.566  0.0691  0.3717 -0.5915
 6363TIP3    H140504   1.276   6.006  13.635 -0.1577 -1.2729  0.8279
 6363TIP3    H240505   1.274   5.869  13.569 -1.6454 -0.5116 -0.8095
 6364TIP3   OH240506   0.372   1.164   1.648  0.1615 -0.2361  0.4287
 6364TIP3    H140507   0.348   1.222   1.720 -2.2991  2.0857 -1.9731
 6364TIP3    H240508   0.467   1.157   1.652  0.4285  2.7336  1.8218
 6365TIP3   OH240509   6.448   4.875  13.594  0.2682 -0.0854 -0.0351
 6365TIP3    H140510   6.420   4.960  13.628 -2.1044 -0.8094 -0.0030
 6365TIP3    H240511   6.367   4.823  13.590  1.2704 -1.6044 -2.2076
 6366TIP3   OH240512   4.589   4.287  17.193  0.3500 -0.0678  0.5540
 6366TIP3    H140513   4.494   4.295  17.192  0.2454 -1.1738 -0.2153
 6366TIP3    H240514   4.613   4.290  17.286 -0.3723  0.7034  0.7258
 6367TIP3   OH240515   3.901   4.156   0.683  0.1515 -0.3675  0.2601
 6367TIP3    H140516   3.950   4.074   0.686 -0.0722 -0.5118  0.0570
 6367TIP3    H240517   3.946   4.209   0.617 -1.0431 -1.2165 -1.2983
 6368TIP3   OH240518   3.223   5.987  13.814 -0.1111  0.3426 -0.0020
 6368TIP3    H140519   3.262   5.942  13.739 -0.4799 -1.9189  1.0893
 6368TIP3    H240520   3.133   5.954  13.817 -0.5274  1.4723  0.6366
 6369TIP3   OH240521   0.100   2.080  13.606 -0.0314 -0.1995 -0.4579
 6369TIP3    H140522   0.190   2.052  13.623 -0.4115 -0.5605  1.1171
 6369TIP3    H240523   0.078   2.136  13.680 -0.9967  0.1841 -1.0133
 6370TIP3   OH240524   0.879   6.576  16.220  0.6667 -0.2162  0.3526
 6370TIP3    H140525   0.926   6.652  16.255  0.3814  0.1816 -0.1169
 6370TIP3    H240526   0.821   6.549  16.291  1.4001 -0.5367  0.8380
 6371TIP3   OH240527   0.721   5.833   0.884  0.5015  0.4589  0.1075
 6371TIP3    H140528   0.689   5.837   0.975  0.0371 -0.3109 -0.0112
 6371TIP3    H240529   0.686   5.750   0.851  1.2427  0.4123 -0.5622
 6372TIP3   OH240530   0.272   1.681  13.386  0.4261 -0.5356  0.4538
 6372TIP3    H140531   0.354   1.645  13.421  0.2004 -0.6736  0.8517
 6372TIP3    H240532   0.218   1.697  13.463  0.8578  1.5768  0.3781
 6373TIP3   OH240533   2.608   1.364  16.853  0.5871 -0.4091 -0.0953
 6373TIP3    H140534   2.634   1.407  16.935  0.1408 -0.0833 -0.1159
 6373TIP3    H240535   2.529   1.411  16.826 -1.8992 -3.2391  1.5880
 6374TIP3   OH240536   6.747   1.810   5.161  0.2794 -0.3514 -0.1091
 6374TIP3    H140537   6.763   1.848   5.075  2.0030  0.1877  0.4023
 6374TIP3    H240538   6.652   1.797   5.165 -0.0120  1.0690 -1.4850
 6375TIP3   OH240539   6.190   0.590   1.503 -0.0599 -0.7078 -0.3578
 6375TIP3    H140540   6.106   0.576   1.546 -0.6394 -0.8113 -1.5013
 6375TIP3    H240541   6.254   0.547   1.561 -0.7892 -0.6883  0.4800
 6376TIP3   OH240542   3.883   1.482  13.171  0.5023  0.7572 -0.5529
 6376TIP3    H140543   3.844   1.520  13.093  1.0943 -0.1814 -1.3189
 6376TIP3    H240544   3.868   1.388  13.162 -0.2987  0.7050  0.9535
 6377TIP3   OH240545   5.454   4.270   6.485 -0.1203  0.5044  0.5525
 6377TIP3    H140546   5.482   4.285   6.395 -1.5468 -0.3411 -0.0674
 6377TIP3    H240547   5.365   4.236   6.478 -0.6736  1.4462  2.3500
 6378TIP3   OH240548   3.944   0.118  14.265 -0.3571 -0.4008 -0.1264
 6378TIP3    H140549   3.935   0.050  14.198 -2.4910 -1.9730  1.6081
 6378TIP3    H240550   3.975   0.071  14.343 -0.3991  0.8851  0.6979
 6379TIP3   OH240551   2.456   3.648  12.391  0.2969 -0.5420 -0.3611
 6379TIP3    H140552   2.532   3.696  12.358 -0.8580  0.3105 -1.8826
 6379TIP3    H240553   2.455   3.666  12.485  0.7303  1.2508 -0.6663
 6380TIP3   OH240554   3.506   5.630   4.561  0.0103  0.4796 -0.5926
 6380TIP3    H140555   3.518   5.544   4.602 -1.4016  0.3217 -0.4464
 6380TIP3    H240556   3.440   5.673   4.615 -0.2594  1.1347 -1.4212
 6381TIP3   OH240557   2.933   0.093   3.083 -0.1283  0.0851 -0.0476
 6381TIP3    H140558   2.958   0.048   3.164 -0.3222  1.4319  0.7810
 6381TIP3    H240559   2.889   0.173   3.111 -1.0094  0.1555 -1.4913
 6382TIP3   OH240560   0.713   4.776  15.750 -0.3318  0.2352  0.2510
 6382TIP3    H140561   0.667   4.693  15.762 -0.5691  0.2017 -0.7967
 6382TIP3    H240562   0.652   4.843  15.781  0.5250 -0.0468  2.7988
 6383TIP3   OH240563   3.309   3.218  15.038 -0.3310  0.4987  0.3494
 6383TIP3    H140564   3.217   3.234  15.016 -0.1923 -1.6752 -2.4407
 6383TIP3    H240565   3.306   3.180  15.126 -1.9113  1.8683  0.9364
 6384TIP3   OH240566   5.146   0.956   1.409  0.3509  0.1805 -0.3682
 6384TIP3    H140567   5.090   1.031   1.392 -0.6519 -0.5927 -0.5889
 6384TIP3    H240568   5.192   0.941   1.327  0.7464  0.7162 -0.2411
 6385TIP3   OH240569   1.726   0.344  12.509 -0.3919  0.3767  0.0471
 6385TIP3    H140570   1.695   0.405  12.576  0.0131  2.7626 -1.7674
 6385TIP3    H240571   1.821   0.347  12.516 -0.3762 -0.5073  0.2948
 6386TIP3   OH240572   5.140   5.580  16.937 -0.2403 -0.5481  0.0900
 6386TIP3    H140573   5.077   5.533  16.992 -0.4344  1.2514  1.5154
 6386TIP3    H240574   5.198   5.624  17.000 -0.5213  1.6783 -1.1103
 6387TIP3   OH240575   0.130   6.675   3.944 -0.4075 -0.0705  0.5779
 6387TIP3    H140576   0.160   6.585   3.932 -0.0434 -0.0428  1.2777
 6387TIP3    H240577   0.120   6.685   4.038  0.6950  0.9894  0.5993
 6388TIP3   OH240578   2.367   3.808  13.147  0.0995 -0.0126  0.6121
 6388TIP3    H140579   2.412   3.887  13.119 -0.3876  0.0006 -0.1852
 6388TIP3    H240580   2.275   3.834  13.155 -0.4327 -0.9329 -1.6653
 6389TIP3   OH240581   3.696   1.867   0.967  0.2198  0.2360  0.0842
 6389TIP3    H140582   3.630   1.906   0.910 -0.0906 -0.1253  0.1895
 6389TIP3    H240583   3.663   1.882   1.055  1.1018  1.5227  0.2265
 6390TIP3   OH240584   3.177   3.908   3.786  0.1878  0.0493  0.2418
 6390TIP3    H140585   3.233   3.983   3.768 -0.0389 -0.2108 -1.8640
 6390TIP3    H240586   3.223   3.834   3.748 -1.0642 -0.3314 -0.6149
 6391TIP3   OH240587   1.172   6.667  14.455  0.3454  0.0011 -0.4758
 6391TIP3    H140588   1.182   6.752  14.412 -3.1283  0.4928 -0.6074
 6391TIP3    H240589   1.171   6.688  14.548 -1.6067  0.3452 -0.5337
 6392TIP3   OH240590   0.218   4.907  15.236  0.6016 -0.8174  0.1696
 6392TIP3    H140591   0.123   4.914  15.238  0.5209 -1.9661  1.6607
 6392TIP3    H240592   0.249   4.967  15.303  0.9009 -0.7694 -0.0086
 6393TIP3   OH240593   2.272   4.779  16.783  0.1788  0.2349  0.3522
 6393TIP3    H140594   2.216   4.848  16.745 -2.7752 -0.9004  2.2562
 6393TIP3    H240595   2.244   4.699  16.739  2.4585 -0.0677 -0.6890
 6394TIP3   OH240596   5.422   5.998   2.201 -0.0814  0.5005  0.0410
 6394TIP3    H140597   5.408   6.091   2.186 -0.4976  0.3947 -0.2547
 6394TIP3    H240598   5.347   5.970   2.254  0.1021  0.3571  0.2284
 6395TIP3   OH240599   0.009   0.472  11.068 -0.3870  0.1537 -0.3302
 6395TIP3    H140600  -0.058   0.506  11.008 -0.6407  0.5983  0.1902
 6395TIP3    H240601  -0.005   0.377  11.068 -1.3428  0.2788  0.1369
 6396TIP3   OH240602   0.562   2.194  14.585  0.3265 -0.3028 -0.1259
 6396TIP3    H140603   0.522   2.133  14.523 -1.4448  0.3256  0.3338
 6396TIP3    H240604   0.498   2.203  14.655  1.8276 -0.1787  1.3033
 6397TIP3   OH240605   1.978   5.784  12.298  0.0866 -0.5385 -0.0517
 6397TIP3    H140606   2.018   5.870  12.302  2.2169 -1.4895  0.9297
 6397TIP3    H240607   2.026   5.738  12.229  0.3660 -1.5362  0.7663
 6398TIP3   OH240608   0.562   3.014   5.491 -0.5269 -0.1786 -0.4234
 6398TIP3    H140609   0.578   3.084   5.554  0.1265 -0.2704 -0.4797
 6398TIP3    H240610   0.537   2.939   5.546  1.5164 -0.6944 -0.1234
 6399TIP3   OH240611   2.380   2.355   4.735  0.4283  0.8759  0.3075
 6399TIP3    H140612   2.345   2.326   4.819 -1.5695  0.9802 -0.4314
 6399TIP3    H240613   2.303   2.370   4.681  1.4844  3.7444 -0.6007
 6400TIP3   OH240614   3.064   4.506  15.112 -0.2847  0.0227  0.2080
 6400TIP3    H140615   3.041   4.459  15.032 -1.5047  0.6818  0.1543
 6400TIP3    H240616   3.056   4.440  15.181 -1.5676  0.0281  0.0843
 6401TIP3   OH240617   3.394   2.811  11.639  0.1780  0.4014 -0.2041
 6401TIP3    H140618   3.395   2.840  11.730  0.2378  1.9040 -0.6433
 6401TIP3    H240619   3.331   2.869  11.596  0.7413  0.2524 -1.2715
 6402TIP3   OH240620   6.293   5.350   6.157 -0.0951  0.0563  0.0771
 6402TIP3    H140621   6.276   5.423   6.097  2.4440  0.3101 -0.4386
 6402TIP3    H240622   6.263   5.382   6.242  0.9173  1.7397 -0.1455
 6403TIP3   OH240623   0.113   4.589   3.011 -0.5012 -0.0277  0.6702
 6403TIP3    H140624   0.056   4.584   2.934  0.4402 -0.8085 -0.0043
 6403TIP3    H240625   0.188   4.641   2.982 -0.0584 -0.4708  0.9914
 6404TIP3   OH240626   1.054   2.713  13.229 -0.0537  0.0199 -0.2423
 6404TIP3    H140627   1.049   2.800  13.270  2.7242  0.4948 -0.7692
 6404TIP3    H240628   1.144   2.685  13.242 -1.4633 -4.1899  2.5539
 6405TIP3   OH240629   3.488   6.169   3.510 -0.6027  0.1887 -0.2045
 6405TIP3    H140630   3.420   6.236   3.507  0.6901  1.5634  0.1586
 6405TIP3    H240631   3.544   6.196   3.583 -0.4501 -1.7010  0.4268
 6406TIP3   OH240632   0.426   5.994  15.864 -0.6538 -0.2687 -0.0686
 6406TIP3    H140633   0.387   5.974  15.779  2.2925 -0.1173 -1.5727
 6406TIP3    H240634   0.454   6.085  15.857 -0.8021 -0.0890  1.2881
 6407TIP3   OH240635   1.873   3.480   1.500 -0.1965  0.3448 -0.0771
 6407TIP3    H140636   1.889   3.392   1.534 -0.6796  0.3770  0.2554
 6407TIP3    H240637   1.798   3.511   1.551  1.2271  1.7406  1.2601
 6408TIP3   OH240638   0.053   4.414  17.372 -0.0166 -0.5196  0.1358
 6408TIP3    H140639  -0.029   4.421  17.323  1.3182  1.6077 -2.0174
 6408TIP3    H240640   0.093   4.501  17.365  1.7414 -1.0622  2.4112
 6409TIP3   OH240641   0.338   6.271   3.246  0.1515  0.1504  0.3331
 6409TIP3    H140642   0.259   6.324   3.235 -0.0292 -0.1029  0.4217
 6409TIP3    H240643   0.354   6.234   3.159 -0.2484 -0.3935  0.4876
 6410TIP3   OH240644   6.167   2.233  17.153  0.3494  0.4665  0.3609
 6410TIP3    H140645   6.095   2.181  17.117  0.3616  0.2455  0.6527
 6410TIP3    H240646   6.202   2.281  17.077  0.0082  0.4430  0.1852
 6411TIP3   OH240647   1.653   4.449   4.458 -0.4474 -0.5845  0.0350
 6411TIP3    H140648   1.723   4.513   4.469 -1.3271  0.4483 -0.2707
 6411TIP3    H240649   1.598   4.485   4.389 -3.0638  0.2613  2.3989
 6412TIP3   OH240650   2.340   5.937  10.946 -0.3654 -0.3415 -0.0417
 6412TIP3    H140651   2.425   5.917  10.984 -0.3277  1.3984  0.8436
 6412TIP3    H240652   2.360   5.989  10.868 -0.6196  0.7429  0.5997
 6413TIP3   OH240653   2.474   0.561  15.169  0.4798 -0.4727  0.1544
 6413TIP3    H140654   2.496   0.647  15.135 -1.7785  0.1358  0.0819
 6413TIP3    H240655   2.430   0.517  15.096 -2.1246 -0.0984  1.3836
 6414TIP3   OH240656   2.459   3.696   6.262 -0.3741  0.3779 -0.0219
 6414TIP3    H140657   2.438   3.603   6.272  0.9681 -0.4166 -3.4343
 6414TIP3    H240658   2.546   3.705   6.300 -0.9698  0.5600  1.3628
 6415TIP3   OH240659   2.559   3.089   1.065  0.1892 -0.6773 -0.4091
 6415TIP3    H140660   2.567   3.128   1.153  1.8692 -0.1401 -0.7594
 6415TIP3    H240661   2.522   3.160   1.012  0.4298 -0.5445 -0.4045
 6416TIP3   OH240662   5.473   0.886   5.744  0.1371 -0.0710 -0.0662
 6416TIP3    H140663   5.503   0.977   5.749 -2.0244  0.7309 -0.8044
 6416TIP3    H240664   5.436   0.878   5.656  0.0840 -1.6296  0.0731
 6417TIP3   OH240665   0.721   3.636  15.533 -0.1418 -0.0091 -0.2352
 6417TIP3    H140666   0.687   3.548  15.513  0.6579 -0.3735 -0.0473
 6417TIP3    H240667   0.655   3.696  15.499 -0.2269 -0.6718 -1.2949
 6418TIP3   OH240668   0.821   5.968  12.764 -0.0586 -0.4185 -0.1037
 6418TIP3    H140669   0.806   5.876  12.784 -0.9940 -0.3693 -0.5451
 6418TIP3    H240670   0.871   6.001  12.839  0.3012 -1.2757  0.0494
 6419TIP3   OH240671   3.187   6.158  16.288  0.1288 -0.2321  0.0758
 6419TIP3    H140672   3.202   6.184  16.380  0.0807  0.0123  0.0159
 6419TIP3    H240673   3.268   6.184  16.244  0.2425 -0.5600  0.0928
 6420TIP3   OH240674   2.745   6.244   3.363  0.0854  0.0282  0.2351
 6420TIP3    H140675   2.740   6.166   3.418  1.6989 -0.1188  0.2169
 6420TIP3    H240676   2.839   6.260   3.353 -0.1767  0.5498 -1.7928
 6421TIP3   OH240677   4.616   6.515  16.368 -0.7195 -0.6555  0.2931
 6421TIP3    H140678   4.635   6.425  16.340  2.3817 -0.4805  1.4844
 6421TIP3    H240679   4.649   6.570  16.297  2.4739 -0.3936  1.8005
 6422TIP3   OH240680   6.135   3.238   2.147 -0.5836  0.2162  0.0989
 6422TIP3    H140681   6.173   3.325   2.162 -2.5480  0.7293  3.1217
 6422TIP3    H240682   6.070   3.251   2.079 -1.1420  1.2602  0.8016
 6423TIP3   OH240683   5.423   2.876   0.923 -0.3716  0.2140  0.2012
 6423TIP3    H140684   5.469   2.830   0.992  0.8218 -0.1406 -0.7991
 6423TIP3    H240685   5.365   2.938   0.969  1.2200  0.7959  1.4957
 6424TIP3   OH240686   3.941   3.852   5.500  0.8009 -0.1347 -0.1926
 6424TIP3    H140687   3.903   3.938   5.521  0.4941 -0.3103 -0.0261
 6424TIP3    H240688   3.896   3.826   5.419  0.2403 -0.5430  0.2452
 6425TIP3   OH240689   1.087   4.547  16.864 -0.0595  0.3776  0.3189
 6425TIP3    H140690   1.120   4.607  16.798 -0.7408  0.0378 -0.3517
 6425TIP3    H240691   0.996   4.531  16.839  0.1192 -0.9729  0.4362
 6426TIP3   OH240692   4.231   2.499  14.495 -0.3320 -0.5100 -0.6481
 6426TIP3    H140693   4.276   2.584  14.487 -0.0259 -0.8293 -2.7983
 6426TIP3    H240694   4.238   2.478  14.588  0.3498  1.4050 -0.2075
 6427TIP3   OH240695   5.976   4.254   3.038 -0.4387 -0.5389 -0.1346
 6427TIP3    H140696   6.049   4.192   3.025  0.9209  0.4245  2.3242
 6427TIP3    H240697   5.992   4.292   3.124 -0.6432  3.9526 -1.8297
 6428TIP3   OH240698   2.392   0.250   3.925 -0.4427  0.3484 -0.0073
 6428TIP3    H140699   2.335   0.249   3.848 -0.9518  0.2383  0.3662
 6428TIP3    H240700   2.374   0.167   3.969 -1.4513  1.1403  1.1545
 6429TIP3   OH240701   3.779   4.979  15.042 -0.3167  0.1727  0.1907
 6429TIP3    H140702   3.813   4.960  14.954 -3.9774  0.1887 -1.4144
 6429TIP3    H240703   3.774   4.893  15.084  2.6602  0.2935  1.0089
 6430TIP3   OH240704   1.583   4.756   2.639  0.0175 -0.2675 -0.2494
 6430TIP3    H140705   1.608   4.744   2.547  0.3613 -0.6284 -0.1098
 6430TIP3    H240706   1.650   4.709   2.689 -1.0976 -1.5220  0.1261
 6431TIP3   OH240707   6.600   4.769  15.392 -0.2480  0.2111  0.3646
 6431TIP3    H140708   6.587   4.736  15.303  2.0345 -1.7436  0.6417
 6431TIP3    H240709   6.628   4.860  15.380 -0.7034  0.2098 -0.8494
 6432TIP3   OH240710   5.463   6.745  16.806 -0.7487  0.4411 -0.0542
 6432TIP3    H140711   5.417   6.823  16.837  0.3490  0.8227  0.6568
 6432TIP3    H240712   5.440   6.676  16.869 -2.5761 -0.1326 -1.2714
 6433TIP3   OH240713   3.448   6.188   2.636 -0.3869  0.5319 -0.0080
 6433TIP3    H140714   3.399   6.198   2.718 -1.1361 -0.3670 -0.3259
 6433TIP3    H240715   3.459   6.094   2.627 -2.2642  0.4340 -2.0287
 6434TIP3   OH240716   1.770   0.667  16.825 -0.7555 -0.2831  1.0625
 6434TIP3    H140717   1.736   0.743  16.872 -0.2510  0.9257 -0.4253
 6434TIP3    H240718   1.736   0.677  16.736  0.6345 -0.9157  0.4218
 6435TIP3   OH240719   0.025   6.725  15.673 -0.4230  0.2986  0.2483
 6435TIP3    H140720   0.051   6.643  15.716 -1.3718  0.2054  0.6574
 6435TIP3    H240721  -0.020   6.696  15.594 -1.4800  0.3943  0.8005
 6436TIP3   OH240722   0.674   6.230  15.202 -0.3209  0.0445  0.6181
 6436TIP3    H140723   0.674   6.222  15.107 -1.4467 -1.5670  0.7048
 6436TIP3    H240724   0.737   6.163  15.231  0.1887  0.6808  1.0226
 6437TIP3   OH240725   2.655   0.520  16.572 -0.6078  0.0472 -0.2672
 6437TIP3    H140726   2.739   0.476  16.575 -1.0858 -0.8107  1.2101
 6437TIP3    H240727   2.645   0.545  16.480  1.0631 -0.1737 -0.5435
 6438TIP3   OH240728   0.993   3.436  12.047 -0.1776  0.0921 -0.0675
 6438TIP3    H140729   1.059   3.444  11.978 -1.0443 -1.6798 -1.1885
 6438TIP3    H240730   0.947   3.520  12.047 -0.2235  0.0873 -1.7240
 6439TIP3   OH240731   3.150   2.134  17.172 -0.1314 -0.5914 -0.3705
 6439TIP3    H140732   3.215   2.105  17.107  0.5885 -1.3782  0.6732
 6439TIP3    H240733   3.069   2.144  17.122  0.1046 -2.3698 -1.1919
 6440TIP3   OH240734   4.618   3.347  14.115 -0.2622  0.3427 -0.3813
 6440TIP3    H140735   4.597   3.440  14.127 -1.7074  0.1236 -0.9252
 6440TIP3    H240736   4.532   3.305  14.103  0.4376 -0.8689 -1.3860
 6441TIP3   OH240737   5.956   2.535  14.432  0.0764 -0.1157  0.3905
 6441TIP3    H140738   5.983   2.563  14.519  0.3215 -0.9106  0.5842
 6441TIP3    H240739   5.861   2.542  14.433 -0.1655 -2.4926  1.6231
 6442TIP3   OH240740   5.021   6.434   4.105  0.2744  0.5886 -0.0114
 6442TIP3    H140741   5.064   6.349   4.096  1.7411  1.4293 -1.4780
 6442TIP3    H240742   5.071   6.479   4.174  1.1757  1.2060 -1.0456
 6443TIP3   OH240743   1.987   1.566  16.295 -0.7407 -0.1200  0.2782
 6443TIP3    H140744   1.910   1.588  16.243  0.5519  1.5007 -1.0443
 6443TIP3    H240745   2.053   1.539  16.231  0.5065  0.7226  1.1556
 6444TIP3   OH240746   6.651   2.488  14.275 -0.0772 -0.1072  0.4170
 6444TIP3    H140747   6.734   2.513  14.235 -0.5689  1.7525  0.5047
 6444TIP3    H240748   6.596   2.462  14.201 -0.3349  1.4232  0.0407
 6445TIP3   OH240749   3.151   1.919  14.370  0.2002 -0.0215  0.1706
 6445TIP3    H140750   3.108   1.993  14.327  0.4065  0.0379  0.0667
 6445TIP3    H240751   3.208   1.881  14.303 -1.2300 -1.3901 -0.3385
 6446TIP3   OH240752   6.382   2.704  13.527 -0.2687 -0.5311  0.2220
 6446TIP3    H140753   6.395   2.713  13.621  1.6793 -2.6067  0.2372
 6446TIP3    H240754   6.401   2.790  13.491 -0.3881  0.1188  1.6712
 6447TIP3   OH240755   5.390   2.487  13.915  0.3766 -0.5926  0.5949
 6447TIP3    H140756   5.397   2.581  13.932  1.1517 -0.7654  1.3283
 6447TIP3    H240757   5.479   2.454  13.929  0.3181 -1.3035 -0.5579
 6448TIP3   OH240758   0.194   0.106   2.814 -0.3519  0.2510 -0.5657
 6448TIP3    H140759   0.129   0.119   2.884 -0.0275  0.4585 -0.2976
 6448TIP3    H240760   0.173   0.174   2.750 -1.1206 -0.4076 -1.0384
 6449TIP3   OH240761   6.511   1.773  14.848  0.3949  0.3478 -0.1019
 6449TIP3    H140762   6.562   1.699  14.814  0.1246  0.1794 -0.1408
 6449TIP3    H240763   6.460   1.803  14.773 -0.4716 -0.2498  0.2422
 6450TIP3   OH240764   4.832   1.590  14.923 -0.0130  0.7013 -0.4017
 6450TIP3    H140765   4.740   1.589  14.897 -0.0831  1.5929 -0.2291
 6450TIP3    H240766   4.833   1.550  15.010 -0.2234  0.5926 -0.4495
 6451TIP3   OH240767   0.571   0.491   2.474 -0.2328 -0.1103  0.5137
 6451TIP3    H140768   0.627   0.453   2.541  1.3808  0.3728 -0.4985
 6451TIP3    H240769   0.602   0.581   2.466  0.9948 -0.6740 -2.2061
 6452TIP3   OH240770   5.612   5.538   2.883 -0.3398 -0.3135  0.3225
 6452TIP3    H140771   5.573   5.477   2.945 -2.6158  0.6431 -0.0874
 6452TIP3    H240772   5.621   5.620   2.932  0.3142 -0.2639  0.1317
 6453TIP3   OH240773   5.682   2.725   2.862 -0.3877  0.1548 -0.0783
 6453TIP3    H140774   5.772   2.696   2.849 -0.0933  0.5120  1.1065
 6453TIP3    H240775   5.632   2.644   2.874 -0.3072 -0.0642 -1.1454
 6454TIP3   OH240776   4.590   1.091   3.019  0.5275  0.1284  0.6576
 6454TIP3    H140777   4.642   1.013   3.003 -0.5342 -0.4157 -0.3417
 6454TIP3    H240778   4.503   1.057   3.043  0.3467  1.0036  1.2973
 6455TIP3   OH240779   4.195   2.251   4.732  0.0182 -0.2527 -0.0388
 6455TIP3    H140780   4.232   2.336   4.754  0.6859 -0.5666  0.1032
 6455TIP3    H240781   4.139   2.229   4.807 -0.7970  0.4030 -0.4332
 6456TIP3   OH240782   1.138   0.745  12.829 -0.1240 -0.1854  0.0823
 6456TIP3    H140783   1.145   0.781  12.741  0.3992 -1.7033 -0.5372
 6456TIP3    H240784   1.057   0.783  12.864 -0.0028  0.9310 -0.7998
 6457TIP3   OH240785   5.402   2.384  16.870  0.4873  0.7952  0.4614
 6457TIP3    H140786   5.353   2.448  16.818 -1.2840 -1.3262 -0.6568
 6457TIP3    H240787   5.435   2.321  16.807  1.3883  0.0862  1.5972
 6458TIP3   OH240788   3.958   0.533   0.718 -0.0165 -0.4904 -0.0338
 6458TIP3    H140789   4.008   0.453   0.736  1.3751 -0.0994 -1.8915
 6458TIP3    H240790   3.950   0.576   0.803  0.5197 -1.8616  0.7382
 6459TIP3   OH240791   0.292   1.238  16.133  0.7844  0.3127  0.2075
 6459TIP3    H140792   0.294   1.146  16.159  2.2960  0.4939  0.8169
 6459TIP3    H240793   0.205   1.269  16.160 -0.1861 -1.1961 -1.0470
 6460TIP3   OH240794   4.524   1.199   1.936 -0.5626  0.3608 -0.1570
 6460TIP3    H140795   4.587   1.271   1.947 -1.5051  1.0379  1.0552
 6460TIP3    H240796   4.442   1.243   1.913 -0.8502 -0.4307 -0.6568
 6461TIP3   OH240797   1.377   5.824  12.022 -0.7845  0.3670  0.4413
 6461TIP3    H140798   1.321   5.785  11.955  1.8693 -0.0774 -1.6957
 6461TIP3    H240799   1.422   5.750  12.062 -0.0915  0.8157  0.5164
 6462TIP3   OH240800   1.766   0.156  12.765 -0.1985  0.2896  0.2249
 6462TIP3    H140801   1.798   0.070  12.739  2.0237  1.2081 -0.4086
 6462TIP3    H240802   1.694   0.175  12.706 -1.5129 -1.5760  1.1495
 6463TIP3   OH240803   3.888   3.770   3.067 -0.0231 -0.0204 -0.4066
 6463TIP3    H140804   3.825   3.778   3.139  1.6252 -0.9359  1.2094
 6463TIP3    H240805   3.917   3.679   3.070  1.1659  0.3032 -1.2864
 6464TIP3   OH240806   4.316   1.398   5.853  0.0818  0.3412  0.6988
 6464TIP3    H140807   4.386   1.396   5.919  1.4970 -0.7893 -0.7506
 6464TIP3    H240808   4.319   1.487   5.818 -1.5633  1.3873  2.9502
 6465TIP3   OH240809   1.337   3.965   2.324 -0.3881  0.1789 -0.3933
 6465TIP3    H140810   1.369   3.928   2.242 -1.9421 -0.1416 -0.8930
 6465TIP3    H240811   1.399   4.033   2.345  1.9806 -1.9499 -0.0154
 6466TIP3   OH240812   1.535   5.787   4.424 -0.4070  0.0998 -0.4327
 6466TIP3    H140813   1.568   5.708   4.467 -1.2062 -0.5575 -0.9898
 6466TIP3    H240814   1.459   5.757   4.374 -0.5750  1.1809 -0.8530
 6467TIP3   OH240815   1.026   2.334   2.826 -0.3247  0.2997  0.0965
 6467TIP3    H140816   0.946   2.295   2.859 -0.8983  2.0322  0.8599
 6467TIP3    H240817   1.060   2.269   2.764 -1.2481 -1.3395  1.2035
 6468TIP3   OH240818   1.402   1.218  13.865 -0.2410  0.3360 -0.5943
 6468TIP3    H140819   1.419   1.262  13.949 -1.9802 -0.3294  0.1417
 6468TIP3    H240820   1.454   1.138  13.869  1.8543  1.5785 -1.3596
 6469TIP3   OH240821   3.084   4.969  11.479  0.1606  0.3338  0.2702
 6469TIP3    H140822   3.070   5.061  11.503  0.1234  0.3353  0.2421
 6469TIP3    H240823   3.056   4.919  11.555 -4.0466  0.0700 -1.1755
 6470TIP3   OH240824   3.269   1.169  16.410  0.5573  0.5607 -0.5954
 6470TIP3    H140825   3.305   1.100  16.355  2.3695  0.5916  0.4773
 6470TIP3    H240826   3.238   1.236  16.349  1.2687  0.0103 -1.5820
 6471TIP3   OH240827   4.742   1.700  12.096 -0.2816 -0.5744 -0.7307
 6471TIP3    H140828   4.795   1.776  12.117  2.7419 -1.9893 -2.5204
 6471TIP3    H240829   4.694   1.725  12.017 -2.6152  0.7833  1.0102
 6472TIP3   OH240830   6.535   3.178  10.644 -0.3734  0.2365  0.3043
 6472TIP3    H140831   6.485   3.101  10.616  0.4720  0.0452 -0.7256
 6472TIP3    H240832   6.506   3.194  10.734  0.6565 -2.3455  1.2039
 6473TIP3   OH240833   0.560   6.060  17.071  0.3065  0.5406 -0.1953
 6473TIP3    H140834   0.598   6.136  17.026  2.5672 -0.3504  0.0505
 6473TIP3    H240835   0.577   6.076  17.164  0.7439 -0.2177 -0.1383
 6474TIP3   OH240836   0.738   3.462  11.119 -0.2967  0.6229 -0.2147
 6474TIP3    H140837   0.691   3.399  11.066  0.9824  0.0403 -0.7052
 6474TIP3    H240838   0.797   3.506  11.058 -0.1323  1.2564  0.3849
 6475TIP3   OH240839   3.168   2.946   6.932  0.3095  0.3589  0.2190
 6475TIP3    H140840   3.116   3.025   6.914 -0.5315 -0.1115  0.5126
 6475TIP3    H240841   3.109   2.874   6.911  0.6784 -0.1925  1.0168
 6476TIP3   OH240842   6.308   0.797   4.732 -0.2097 -0.2332 -0.5171
 6476TIP3    H140843   6.303   0.882   4.688 -0.9622  1.3969  2.4019
 6476TIP3    H240844   6.253   0.739   4.679 -1.8030  1.8185 -1.2626
 6477TIP3   OH240845   0.831   1.131   1.941 -0.7686 -0.0320 -0.2762
 6477TIP3    H140846   0.897   1.106   2.005 -0.8849 -0.0288 -0.1550
 6477TIP3    H240847   0.748   1.117   1.985 -0.8252  1.6301  0.2153
 6478TIP3   OH240848   3.577   3.115   3.806  0.1081  0.2785 -0.4097
 6478TIP3    H140849   3.600   3.034   3.760  0.5630  0.9733 -1.4165
 6478TIP3    H240850   3.624   3.184   3.760  0.3370  1.0421  0.9079
 6479TIP3   OH240851   0.753   5.131   3.689 -0.2388  0.3928 -0.2711
 6479TIP3    H140852   0.748   5.037   3.672 -0.3455  0.2745  0.3882
 6479TIP3    H240853   0.663   5.158   3.705 -0.0561  0.3362  0.9141
 6480TIP3   OH240854   0.063   3.950   5.997 -0.3217  0.0496  0.4822
 6480TIP3    H140855   0.068   3.864   6.038  2.8838  0.3169  0.9054
 6480TIP3    H240856   0.067   4.012   6.071  0.8434  0.5259  0.0430
 6481TIP3   OH240857   1.924   3.372   6.130 -1.0398  0.1128  0.7157
 6481TIP3    H140858   1.995   3.412   6.179 -1.1545 -0.4934  1.3810
 6481TIP3    H240859   1.877   3.318   6.193 -1.5659 -0.1910  0.0880
 6482TIP3   OH240860   6.441   3.338   1.253  0.3950  0.4590 -0.7789
 6482TIP3    H140861   6.492   3.352   1.174  0.7161  0.5488 -0.5554
 6482TIP3    H240862   6.434   3.242   1.261 -1.1222  0.4476 -1.8653
 6483TIP3   OH240863   3.221   0.004  11.601  0.1389  0.3746 -0.1012
 6483TIP3    H140864   3.199  -0.079  11.643  0.4795  0.2408 -0.1865
 6483TIP3    H240865   3.297  -0.016  11.546 -1.2472  0.1346 -2.0652
 6484TIP3   OH240866   2.440   1.830  11.556 -0.0493  0.2678  0.3065
 6484TIP3    H140867   2.462   1.737  11.565 -0.2103  0.3686  2.3917
 6484TIP3    H240868   2.383   1.847  11.631  1.0607  2.3543  0.7291
 6485TIP3   OH240869   6.636   5.419  14.504  1.0062 -0.1875 -0.2061
 6485TIP3    H140870   6.636   5.474  14.582 -0.0881 -1.6582  0.9008
 6485TIP3    H240871   6.728   5.397  14.489  1.1616 -0.5589  1.1953
 6486TIP3   OH240872   1.826   6.462   3.318  0.3482  0.5245  0.3187
 6486TIP3    H140873   1.766   6.495   3.385 -0.1275  1.6013 -0.6094
 6486TIP3    H240874   1.843   6.537   3.261 -0.0559 -0.5798 -1.3421
 6487TIP3   OH240875   0.184   2.950   1.482  0.2776  0.4145 -0.0787
 6487TIP3    H140876   0.238   2.874   1.459 -0.4191 -0.3450  0.7102
 6487TIP3    H240877   0.102   2.912   1.512 -0.3170  1.5192 -0.2804
 6488TIP3   OH240878   5.212   2.929  11.344 -0.6594 -0.0523  0.0669
 6488TIP3    H140879   5.203   2.902  11.253 -0.7170  0.9262 -0.2294
 6488TIP3    H240880   5.280   2.997  11.343 -1.5902  0.9092  0.5488
 6489TIP3   OH240881   4.115   1.731   5.313 -0.1000 -0.4466  0.5552
 6489TIP3    H140882   4.116   1.640   5.343  0.8849  0.2687  3.0223
 6489TIP3    H240883   4.038   1.738   5.258 -0.4804 -2.6472  0.7190
 6490TIP3   OH240884   6.228   2.912   2.236 -0.6341 -0.0867  0.1500
 6490TIP3    H140885   6.211   2.937   2.327 -0.7671 -2.7336  0.9354
 6490TIP3    H240886   6.151   2.942   2.188 -0.3302  1.8182  0.7481
 6491TIP3   OH240887   0.613   4.812   2.071  0.1500 -0.1776  0.6585
 6491TIP3    H140888   0.644   4.758   1.999  1.9650 -1.1254  2.0610
 6491TIP3    H240889   0.593   4.897   2.031  0.5463 -0.8487 -1.0288
 6492TIP3   OH240890   0.438   1.314  15.209  0.0000  0.0210 -0.3252
 6492TIP3    H140891   0.411   1.246  15.271  1.2231  0.1852  0.4192
 6492TIP3    H240892   0.490   1.375  15.261  2.2526 -0.5702 -1.7557
 6493TIP3   OH240893   1.935   0.736  17.133  0.5787  0.4570 -0.7754
 6493TIP3    H140894   1.924   0.691  17.217  1.1620  0.3117 -0.7663
 6493TIP3    H240895   1.926   0.666  17.068  0.3469  0.5288 -0.8175
 6494TIP3   OH240896   3.940   6.692   5.846  0.3822  0.3436 -0.2817
 6494TIP3    H140897   3.988   6.643   5.779 -1.2565 -0.0529 -1.2335
 6494TIP3    H240898   3.932   6.780   5.811  1.2360  0.6705  0.3225
 6495TIP3   OH240899   6.099   3.239  13.391  0.3900 -0.4656 -0.2865
 6495TIP3    H140900   6.107   3.278  13.478  0.9850  0.0383 -0.5580
 6495TIP3    H240901   6.090   3.313  13.331 -2.6775 -0.8621 -0.4515
 6496TIP3   OH240902   0.151   0.417  15.264 -0.4304  0.2465  0.2014
 6496TIP3    H140903   0.228   0.463  15.230  0.0424 -1.1189 -0.6862
 6496TIP3    H240904   0.081   0.481  15.259  0.2596  0.9632 -0.7368
 6497TIP3   OH240905   6.071   1.092   6.124  0.0328  0.4107 -0.6453
 6497TIP3    H140906   6.033   1.121   6.207  1.4727  1.4176 -0.2928
 6497TIP3    H240907   6.122   1.014   6.147 -1.0694 -0.4275 -0.9584
 6498TIP3   OH240908   3.296   3.669   2.907 -0.8247  0.5632 -0.4800
 6498TIP3    H140909   3.287   3.665   2.812  2.3135  1.1474 -0.9086
 6498TIP3    H240910   3.245   3.745   2.933 -0.9981  0.9334 -1.8161
 6499TIP3   OH240911   0.680   0.320  14.490 -0.2799  0.0423  0.0530
 6499TIP3    H140912   0.683   0.399  14.545 -2.0671  2.9622 -3.5383
 6499TIP3    H240913   0.756   0.328  14.432 -0.7934 -0.5569 -0.7225
 6500TIP3   OH240914   3.488   4.427   3.810 -0.2855 -0.7202  1.0164
 6500TIP3    H140915   3.401   4.440   3.847  0.3292 -0.2029  2.2981
 6500TIP3    H240916   3.474   4.431   3.715 -1.3248  1.5601  1.2153
 6501TIP3   OH240917   1.356   0.382  13.799  0.3058 -0.1237 -0.9065
 6501TIP3    H140918   1.376   0.428  13.880 -1.1729  1.4788 -1.3739
 6501TIP3    H240919   1.395   0.435  13.730  1.0029 -1.1223 -1.3069
 6502TIP3   OH240920   2.708   3.663  14.395  0.4388  0.4100  0.0124
 6502TIP3    H140921   2.631   3.607  14.403 -0.5359  1.5471 -0.9339
 6502TIP3    H240922   2.737   3.679  14.485 -0.1401 -0.4223  0.3525
 6503TIP3   OH240923   4.585   1.712  12.707 -0.3241 -0.1682 -0.2377
 6503TIP3    H140924   4.557   1.638  12.762 -0.9728  0.3863  0.1998
 6503TIP3    H240925   4.536   1.701  12.625  2.5052 -2.4299 -1.8155
 6504TIP3   OH240926   1.293   4.238  10.891  0.5254 -0.1320 -0.1084
 6504TIP3    H140927   1.197   4.239  10.881  0.5663  1.3661 -0.5821
 6504TIP3    H240928   1.308   4.195  10.975 -0.5797 -0.2701  0.0323
 6505TIP3   OH240929   1.742   6.657  16.736 -0.2885  0.2722  0.6044
 6505TIP3    H140930   1.726   6.719  16.665 -1.0300 -0.8509 -0.2394
 6505TIP3    H240931   1.703   6.698  16.813 -1.1050  0.6882 -0.0174
 6506TIP3   OH240932   2.615   4.709   5.649  1.0222 -0.2861 -0.0739
 6506TIP3    H140933   2.665   4.630   5.628  1.9009  0.1849  0.1636
 6506TIP3    H240934   2.682   4.773   5.674  0.2288  0.0594  1.2732
 6507TIP3   OH240935   3.580   0.093   3.699  0.5516 -0.1232  0.2317
 6507TIP3    H140936   3.618   0.060   3.617  0.7099 -0.4995  0.4528
 6507TIP3    H240937   3.505   0.035   3.715  0.5891 -0.1221  0.4103
 6508TIP3   OH240938   3.854   0.379  13.107  0.1835  0.0657  0.2163
 6508TIP3    H140939   3.819   0.300  13.065 -0.2904  1.1212 -1.4798
 6508TIP3    H240940   3.946   0.381  13.080  0.0076  0.4708 -0.3745
 6509TIP3   OH240941   1.520   5.023   5.440  0.1901 -0.5577  0.3697
 6509TIP3    H140942   1.470   5.074   5.376  1.1834 -1.6010 -1.3223
 6509TIP3    H240943   1.463   5.017   5.516 -0.7132  1.4446 -0.0684
 6510TIP3   OH240944   2.610   1.964  16.908  0.2569  0.4972  0.3239
 6510TIP3    H140945   2.684   1.989  16.854 -0.6460  1.3543 -0.5640
 6510TIP3    H240946   2.548   1.924  16.847 -0.3848  0.6032  0.8886
 6511TIP3   OH240947   2.783   0.268  12.560 -0.1847  0.2903  0.6006
 6511TIP3    H140948   2.697   0.277  12.600  0.4826  0.9219  1.9564
 6511TIP3    H240949   2.792   0.174  12.543 -1.5768  0.3498 -0.6201
 6512TIP3   OH240950   0.998   5.301  15.108  0.1274  0.7258 -0.5022
 6512TIP3    H140951   1.009   5.247  15.030 -0.1639  0.4568 -0.3628
 6512TIP3    H240952   0.934   5.367  15.082  0.0094  0.6195 -0.4834
 6513TIP3   OH240953   2.689   0.353   4.425  0.1200 -0.4404  0.1167
 6513TIP3    H140954   2.631   0.429   4.427  1.1627  0.4061 -0.3024
 6513TIP3    H240955   2.697   0.326   4.517  0.5193  0.5973  0.4000
 6514TIP3   OH240956   4.782   0.315   3.090  0.4316 -0.2064 -0.5284
 6514TIP3    H140957   4.841   0.255   3.134  0.2140 -0.0878 -0.0621
 6514TIP3    H240958   4.705   0.262   3.068  0.2216 -0.0956 -0.0792
 6515TIP3   OH240959   2.733   3.469  12.433  0.3442  0.2758 -0.2942
 6515TIP3    H140960   2.661   3.412  12.407  0.8157  0.2295 -1.5688
 6515TIP3    H240961   2.698   3.558  12.422 -0.5922  0.2914  2.2691
 6516TIP3   OH240962   0.301   2.988  12.440 -0.4196  0.1870 -0.2507
 6516TIP3    H140963   0.223   2.962  12.488 -0.5219  0.8369 -0.0659
 6516TIP3    H240964   0.308   2.923  12.369 -0.8168 -0.1904  0.0521
 6517TIP3   OH240965   3.313   1.057  11.193 -0.8216 -0.1636 -0.2411
 6517TIP3    H140966   3.336   0.997  11.264 -2.3314 -1.3843 -0.7361
 6517TIP3    H240967   3.362   1.026  11.117 -1.8642 -1.0292 -0.5848
 6518TIP3   OH240968   0.250   6.308   4.266  0.0061  0.2394  0.6689
 6518TIP3    H140969   0.345   6.311   4.278 -0.0464 -0.2276  1.2572
 6518TIP3    H240970   0.215   6.341   4.349 -0.3425  2.3879 -0.2672
 6519TIP3   OH240971   5.573   1.809   5.218 -0.2287 -0.1152  0.3673
 6519TIP3    H140972   5.645   1.811   5.282 -0.4997 -1.7424  0.7720
 6519TIP3    H240973   5.609   1.852   5.140  0.2291  1.5681  1.4602
 6520TIP3   OH240974   1.510   4.193   4.097  0.0003 -0.2145  0.3264
 6520TIP3    H140975   1.522   4.132   4.169  1.5427 -0.8542 -0.4279
 6520TIP3    H240976   1.590   4.186   4.046 -0.4926  1.2209 -0.7097
 6521TIP3   OH240977   5.634   5.811   5.837 -0.0922  0.2610 -0.0911
 6521TIP3    H140978   5.673   5.724   5.840 -1.5814 -0.4976 -1.2181
 6521TIP3    H240979   5.708   5.871   5.845  1.0820 -1.1064 -0.3435
 6522TIP3   OH240980   2.847   5.869   2.339  0.0999  0.3626  0.2030
 6522TIP3    H140981   2.895   5.922   2.276 -1.9383  0.1050 -1.6951
 6522TIP3    H240982   2.835   5.785   2.295 -0.0512 -0.3865  1.6043
 6523TIP3   OH240983   4.125   6.515  13.054 -0.6870  0.0017 -0.1363
 6523TIP3    H140984   4.110   6.522  13.148  0.4934 -2.8612  0.3790
 6523TIP3    H240985   4.207   6.466  13.046 -0.7823  0.1154 -2.6531
 6524TIP3   OH240986   1.992   3.839   3.241  1.0040  0.3610  0.2346
 6524TIP3    H140987   2.047   3.786   3.298  2.7248 -0.3450 -1.9286
 6524TIP3    H240988   2.050   3.864   3.168 -1.4161 -0.0942 -1.9870
 6525TIP3   OH240989   4.032   3.139   3.940 -0.3141 -0.0311  0.0567
 6525TIP3    H140990   4.020   3.119   3.847 -0.8680 -0.9613  0.3160
 6525TIP3    H240991   3.969   3.082   3.984  0.9426 -0.6399  1.1006
 6526TIP3   OH240992   5.919   5.349  11.920  0.1786 -0.1957  0.4116
 6526TIP3    H140993   5.844   5.323  11.973 -0.8291 -0.5437 -1.1082
 6526TIP3    H240994   5.945   5.434  11.955  0.0709 -0.7636  1.9491
 6527TIP3   OH240995   3.132   4.783   4.012 -0.0847 -0.0021 -0.0177
 6527TIP3    H140996   3.101   4.724   4.080 -2.4531  0.9262 -0.1600
 6527TIP3    H240997   3.143   4.728   3.935 -1.5007 -0.4368  0.0575
 6528TIP3   OH240998   5.247   5.063   1.886 -0.2962  0.2696  0.1633
 6528TIP3    H140999   5.238   5.157   1.898  1.1212  0.3917  0.4070
 6528TIP3    H241000   5.267   5.052   1.793  1.4138  0.3862  0.4926
 6529TIP3   OH241001   3.257   1.251   4.297  0.6251 -0.0016 -0.3694
 6529TIP3    H141002   3.190   1.191   4.263 -0.4725  0.7268  0.4147
 6529TIP3    H241003   3.207   1.325   4.332  1.6496 -0.5025  2.4711
 6530TIP3   OH241004   5.326   5.525  11.285  0.1558 -0.2323 -0.1857
 6530TIP3    H141005   5.392   5.459  11.306 -0.1045 -1.4997 -2.9098
 6530TIP3    H241006   5.351   5.558  11.199 -2.8617 -1.0234 -1.5048
 6531TIP3   OH241007   0.114   1.415   4.227  0.2137 -0.2330 -0.2480
 6531TIP3    H141008   0.095   1.336   4.177  0.5811  0.5063 -1.5959
 6531TIP3    H241009   0.041   1.473   4.208  0.0740 -0.1451  0.5325
 6532TIP3   OH241010   6.521   4.725  13.100  0.2653 -0.6965  0.5424
 6532TIP3    H141011   6.545   4.817  13.093 -0.7499 -0.4950 -0.4090
 6532TIP3    H241012   6.596   4.678  13.063  0.2522 -0.2005 -0.1166
 6533TIP3   OH241013   3.212   5.402  15.477 -0.5726 -0.0588 -0.2924
 6533TIP3    H141014   3.191   5.465  15.546  0.9897  0.7957 -0.5449
 6533TIP3    H241015   3.307   5.411  15.464  0.0589 -3.6217  0.7508
 6534TIP3   OH241016   6.491   6.256   3.028 -0.1537 -0.1837 -0.8735
 6534TIP3    H141017   6.452   6.344   3.033 -1.4033 -0.6036 -2.3838
 6534TIP3    H241018   6.545   6.259   2.948  0.1758 -0.6541 -0.6712
 6535TIP3   OH241019   0.191   1.199  15.890 -0.0857  0.8003  0.0718
 6535TIP3    H141020   0.236   1.194  15.806  0.0318 -2.0328  0.2113
 6535TIP3    H241021   0.261   1.209  15.955  0.2887 -1.5876  0.1251
 6536TIP3   OH241022   3.287   1.166   6.368  0.1685 -0.3264 -0.3918
 6536TIP3    H141023   3.212   1.212   6.407  1.2912 -0.2877  1.9471
 6536TIP3    H241024   3.341   1.143   6.444  3.2596  0.9459 -2.0583
 6537TIP3   OH241025   2.844   3.852   4.851  0.0686  0.1012  0.7771
 6537TIP3    H141026   2.773   3.811   4.899  0.4753 -1.3704  0.1933
 6537TIP3    H241027   2.811   3.862   4.762 -0.2416  1.6479  1.0516
 6538TIP3   OH241028   5.224   6.329   4.583  0.2624  0.0162  1.0154
 6538TIP3    H141029   5.238   6.411   4.536 -2.6458 -0.1053 -0.2645
 6538TIP3    H241030   5.263   6.262   4.527  0.1246  0.2638  0.6157
 6539TIP3   OH241031   3.789   0.859  13.645  0.2137  0.7412 -0.7532
 6539TIP3    H141032   3.816   0.866  13.737 -0.5247 -1.0368 -0.3503
 6539TIP3    H241033   3.869   0.832  13.599  0.0027 -1.1367 -0.1256
 6540TIP3   OH241034   1.168   3.190  14.787 -0.4808 -0.3923  0.4191
 6540TIP3    H141035   1.138   3.257  14.849 -1.4444 -0.7649  0.3707
 6540TIP3    H241036   1.135   3.221  14.702  0.6493  0.0053  0.1003
 6541TIP3   OH241037   1.894   0.217  13.824 -0.1426 -0.4829 -0.0123
 6541TIP3    H141038   1.939   0.284  13.773  1.3540 -1.8920 -0.6782
 6541TIP3    H241039   1.897   0.139  13.769 -1.6828 -1.1548  0.7881
 6542TIP3   OH241040   3.147   2.098  14.881 -0.0100 -0.0837  0.2674
 6542TIP3    H141041   3.184   2.066  14.799  1.0598 -0.2978  0.8144
 6542TIP3    H241042   3.058   2.125  14.858  0.1871 -0.3636 -0.9046
 6543TIP3   OH241043   2.850   4.573   0.021  0.2721 -0.3975 -0.0098
 6543TIP3    H141044   2.835   4.494   0.072 -0.1042  0.3382  1.0545
 6543TIP3    H241045   2.942   4.568  -0.004 -0.2124 -2.1392 -1.6984
 6544TIP3   OH241046   6.315   0.082  12.480 -0.3558 -0.2261  1.0008
 6544TIP3    H141047   6.255   0.125  12.418 -0.2932  0.0747  1.1465
 6544TIP3    H241048   6.361   0.154  12.523  1.4894 -0.4732 -0.4414
 6545TIP3   OH241049   5.360   4.086   2.139 -0.2611  0.1424 -0.2991
 6545TIP3    H141050   5.356   3.992   2.120 -1.1348 -0.0997  0.9581
 6545TIP3    H241051   5.454   4.104   2.148  0.0149 -0.2972 -1.8715
 6546TIP3   OH241052   0.495   2.578   2.893 -0.3749  0.0627 -0.1649
 6546TIP3    H141053   0.412   2.561   2.848  0.7586 -0.7733 -2.0422
 6546TIP3    H241054   0.537   2.646   2.840  0.0204  0.7505  0.9846
 6547TIP3   OH241055   6.653   1.222  16.487  0.6135  0.2011  0.0492
 6547TIP3    H141056   6.606   1.306  16.481 -1.0212 -0.6703  0.2731
 6547TIP3    H241057   6.644   1.196  16.578 -0.1711 -0.9055 -0.3214
 6548TIP3   OH241058   5.521   3.844   1.094  0.0781 -0.3181  0.0007
 6548TIP3    H141059   5.531   3.885   1.008 -0.2477 -0.0692  0.0778
 6548TIP3    H241060   5.437   3.799   1.090 -1.6344  2.4923  1.2803
 6549TIP3   OH241061   5.951   5.845  11.936 -0.1847  0.2686 -0.3725
 6549TIP3    H141062   6.025   5.785  11.925 -0.5317 -0.2511  0.0391
 6549TIP3    H241063   5.990   5.932  11.940  0.4261 -0.0243  0.1224
 6550TIP3   OH241064   2.489   1.625  16.562  0.3101 -0.1500 -0.3281
 6550TIP3    H141065   2.412   1.682  16.560  1.0452  0.8755 -0.1042
 6550TIP3    H241066   2.459   1.546  16.608 -0.1398  0.9593  1.3821
 6551TIP3   OH241067   2.081   1.182   4.503 -0.6183 -0.0491 -0.0325
 6551TIP3    H141068   2.150   1.173   4.569 -0.3291  1.7713 -0.0520
 6551TIP3    H241069   2.129   1.198   4.421 -1.0272 -0.7183 -0.4127
 6552TIP3   OH241070   4.649   6.497  12.108 -0.1022 -0.1572  0.2601
 6552TIP3    H141071   4.613   6.578  12.144 -2.6877  0.1160 -2.4888
 6552TIP3    H241072   4.675   6.446  12.184  0.0037  2.5388  2.1516
 6553TIP3   OH241073   2.177   3.407   3.832 -0.6643  0.1772  0.1105
 6553TIP3    H141074   2.122   3.407   3.911  0.0052  0.7238  0.5923
 6553TIP3    H241075   2.254   3.457   3.857 -1.1110  1.7016 -1.3726
 6554TIP3   OH241076   3.850   2.516  11.589  0.1475 -0.3439 -0.0753
 6554TIP3    H141077   3.760   2.547  11.580  0.1379  0.4773  2.2244
 6554TIP3    H241078   3.842   2.421  11.596 -0.7135 -0.1810  1.5384
 6555TIP3   OH241079   4.356   6.582   1.289  0.6774  0.3583  0.1599
 6555TIP3    H141080   4.333   6.674   1.282  0.9807  0.5477  1.4441
 6555TIP3    H241081   4.385   6.558   1.201  0.0318  1.3221 -0.3286
 6556TIP3   OH241082   3.549   4.214  11.130  0.7080  0.3396  0.4780
 6556TIP3    H141083   3.465   4.235  11.171  0.3331  0.7878 -0.4675
 6556TIP3    H241084   3.612   4.270  11.174  0.3190  0.8121  0.4480
 6557TIP3   OH241085   1.681   2.920   3.185 -0.4050 -0.2484 -0.6174
 6557TIP3    H141086   1.620   2.877   3.245 -2.0893  0.3593 -1.8154
 6557TIP3    H241087   1.741   2.850   3.159 -0.3025 -0.7767  0.8890
 6558TIP3   OH241088   3.090   0.788  11.625 -0.2376  0.2558 -0.3658
 6558TIP3    H141089   3.168   0.843  11.620  0.8219 -0.8649  2.0840
 6558TIP3    H241090   3.053   0.805  11.711 -0.1648 -2.3804  0.2954
 6559TIP3   OH241091   4.365   0.364  15.568 -0.0080 -0.2430 -0.4349
 6559TIP3    H141092   4.406   0.450  15.563  0.1974 -0.1676  1.5601
 6559TIP3    H241093   4.438   0.304  15.585 -0.4395 -0.3945  1.0092
 6560TIP3   OH241094   0.167   0.686  13.419 -0.3024 -0.0176 -0.6377
 6560TIP3    H141095   0.164   0.648  13.331 -0.1894  2.1445 -1.6572
 6560TIP3    H241096   0.099   0.754  13.418  0.5983  0.9593  0.4558
 6561TIP3   OH241097   6.648   2.890   1.557 -0.3275 -0.5698 -0.2291
 6561TIP3    H141098   6.592   2.966   1.543  0.0547 -0.5018 -1.6041
 6561TIP3    H241099   6.687   2.904   1.643 -2.2608 -0.5350  0.6814
 6562TIP3   OH241100   5.334   3.297  10.785 -0.2492  0.4100  0.3084
 6562TIP3    H141101   5.394   3.297  10.710 -0.1586 -0.3802  0.3731
 6562TIP3    H241102   5.246   3.297  10.745 -0.2378  2.1242  0.2111
 6563TIP3   OH241103   2.533   3.251  11.819 -0.0036 -0.1801  0.2760
 6563TIP3    H141104   2.445   3.213  11.825  0.6771 -1.6145  2.2342
 6563TIP3    H241105   2.543   3.299  11.901  0.7852  0.5962 -0.2643
 6564TIP3   OH241106   2.300   5.291  13.692  0.1128 -0.2569 -0.4006
 6564TIP3    H141107   2.322   5.207  13.732  0.4200  0.2298  0.4826
 6564TIP3    H241108   2.382   5.324  13.656  0.1117 -0.0782 -0.2440
 6565TIP3   OH241109   5.748   1.098   1.123  0.4838 -0.2568  0.2653
 6565TIP3    H141110   5.835   1.060   1.135  0.9025  0.8454  0.8979
 6565TIP3    H241111   5.765   1.184   1.084 -0.3689 -0.2662 -0.1647
 6566TIP3   OH241112   0.220   4.518  12.576 -0.4873 -0.4055 -0.3848
 6566TIP3    H141113   0.260   4.561  12.500  0.9134  0.6147  0.8527
 6566TIP3    H241114   0.252   4.569  12.651 -0.4681 -2.3693  1.0057
 6567TIP3   OH241115   4.322   0.516  16.570  0.1524 -0.1617 -0.1052
 6567TIP3    H141116   4.286   0.435  16.607 -0.4846  0.1628 -0.0095
 6567TIP3    H241117   4.348   0.568  16.646  3.1443 -1.3799 -0.1582
 6568TIP3   OH241118   1.758   5.173  14.730  0.4834  0.2122  0.2654
 6568TIP3    H141119   1.743   5.096  14.785 -1.0528 -0.9100 -1.5960
 6568TIP3    H241120   1.673   5.215  14.723  0.6961  0.4775 -0.9893
 6569TIP3   OH241121   4.375   4.141  14.971 -0.4313 -0.1908 -0.7691
 6569TIP3    H141122   4.374   4.111  15.062  0.2159 -0.0781 -0.7169
 6569TIP3    H241123   4.289   4.118  14.937 -1.9096  2.5321  0.7721
 6570TIP3   OH241124   5.152   2.447   2.183 -0.0131  0.2262 -0.0628
 6570TIP3    H141125   5.091   2.450   2.109  0.0060  0.7523 -0.0603
 6570TIP3    H241126   5.228   2.399   2.150 -0.5710 -0.7741  0.0480
 6571TIP3   OH241127   3.468   2.829   3.996  0.3010 -0.4825  0.3004
 6571TIP3    H141128   3.453   2.871   4.081 -1.4977 -2.3285  0.9934
 6571TIP3    H241129   3.542   2.771   4.011  1.9115  1.3360 -0.2822
 6572TIP3   OH241130   1.203   0.979  16.620  0.5312 -0.3332 -0.2050
 6572TIP3    H141131   1.145   0.903  16.621 -0.1155  0.1115 -1.6454
 6572TIP3    H241132   1.216   0.998  16.527  0.4696  1.4679  0.1294
 6573TIP3   OH241133   1.391   6.029  16.811 -0.5636 -0.4048  0.6327
 6573TIP3    H141134   1.305   6.029  16.852 -1.3998  1.2328 -0.9716
 6573TIP3    H241135   1.412   6.122  16.800  0.2177 -0.7765 -1.3702
 6574TIP3   OH241136   3.787   4.661   6.791 -0.4018  0.3826  0.2813
 6574TIP3    H141137   3.718   4.610   6.749  1.4927 -1.4499 -0.7464
 6574TIP3    H241138   3.842   4.693   6.720  1.9004 -1.3556  1.1262
 6575TIP3   OH241139   0.684   3.199  11.416  0.1282 -0.1233  0.2149
 6575TIP3    H141140   0.766   3.172  11.457  1.3142 -0.5644 -2.2591
 6575TIP3    H241141   0.707   3.279  11.369 -0.7921 -0.3452 -0.6409
 6576TIP3   OH241142   4.510   1.141   2.317  0.2032  0.9134 -0.0023
 6576TIP3    H141143   4.463   1.218   2.349  1.8218  1.6350  0.8034
 6576TIP3    H241144   4.502   1.076   2.386 -1.4505  0.1916 -0.8273
 6577TIP3   OH241145   6.576   5.332   1.642  0.2415 -0.0344 -0.4008
 6577TIP3    H141146   6.560   5.380   1.561  2.3699 -0.1151 -0.9328
 6577TIP3    H241147   6.546   5.243   1.623  0.8245 -0.0817 -1.1608
 6578TIP3   OH241148   1.323   4.449   6.374  0.0769 -0.9043 -0.0271
 6578TIP3    H141149   1.319   4.381   6.308  1.7643 -0.9645 -0.1090
 6578TIP3    H241150   1.233   4.456   6.407 -0.4307 -2.0734 -1.0885
 6579TIP3   OH241151   2.363   0.749  12.187 -0.3525  0.0175  0.1062
 6579TIP3    H141152   2.329   0.829  12.147 -0.6361 -0.1773 -0.0449
 6579TIP3    H241153   2.390   0.695  12.113  0.6856  0.3405  0.2381
 6580TIP3   OH241154   5.864   5.850  14.823  0.5692 -0.5609  0.4619
 6580TIP3    H141155   5.866   5.928  14.768 -2.1994 -0.2427  0.6578
 6580TIP3    H241156   5.955   5.838  14.852  1.4165  1.3870 -1.1775
 6581TIP3   OH241157   4.677   5.568   0.523 -0.8330  0.0049 -0.5417
 6581TIP3    H141158   4.590   5.559   0.485 -1.8672 -0.1023  1.6716
 6581TIP3    H241159   4.720   5.636   0.472 -2.7824  1.1261 -0.7447
 6582TIP3   OH241160   1.727   0.157   6.465 -0.7342 -0.0791  0.2979
 6582TIP3    H141161   1.772   0.227   6.418  2.5377 -0.3966  2.6782
 6582TIP3    H241162   1.645   0.197   6.494  1.0974  2.9612  1.7595
 6583TIP3   OH241163   1.357   4.630  11.490  0.1288 -0.0304 -0.3950
 6583TIP3    H141164   1.361   4.620  11.395 -1.8576  0.2832 -0.5620
 6583TIP3    H241165   1.365   4.725  11.505  3.6875 -0.2596  0.0649
 6584TIP3   OH241166   4.063   4.487  16.275  0.0500  0.5219  0.3315
 6584TIP3    H141167   4.019   4.420  16.223  1.3485 -0.8084  0.8971
 6584TIP3    H241168   4.056   4.566  16.222 -1.4962 -0.0318 -0.3644
 6585TIP3   OH241169   5.929   2.899  14.437  0.2887  0.1057 -0.0192
 6585TIP3    H141170   5.910   2.975  14.382 -0.3502 -0.2301 -0.2732
 6585TIP3    H241171   6.022   2.881  14.422  0.3870  0.6860 -0.1373
 6586TIP3   OH241172   1.232   3.856  13.452  0.6581 -0.1063  0.0380
 6586TIP3    H141173   1.212   3.903  13.371 -0.5865 -2.1600 -0.9384
 6586TIP3    H241174   1.322   3.827  13.441 -0.2164 -2.4414 -1.8165
 6587TIP3   OH241175   4.950   6.509   5.191 -0.1638 -0.1107  0.3642
 6587TIP3    H141176   4.859   6.481   5.198  0.3804 -2.1359  0.2127
 6587TIP3    H241177   4.962   6.572   5.261 -1.5505 -0.1992  0.7089
 6588TIP3   OH241178   5.679   5.300  16.242  0.0820 -0.8250 -0.3275
 6588TIP3    H141179   5.645   5.223  16.197 -0.3638  1.0237 -3.4991
 6588TIP3    H241180   5.609   5.325  16.303 -0.5018 -1.9314 -0.5186
 6589TIP3   OH241181   6.630   1.175   3.312  0.3351 -1.0098 -0.2642
 6589TIP3    H141182   6.601   1.089   3.282  1.2058 -1.0174 -1.1312
 6589TIP3    H241183   6.551   1.229   3.313  0.2588 -1.0022 -2.6180
 6590TIP3   OH241184   6.652   3.390  14.728  0.2692 -0.0041 -0.0873
 6590TIP3    H141185   6.656   3.412  14.821 -0.0192  1.3478 -0.3846
 6590TIP3    H241186   6.703   3.458  14.685  2.9980 -2.2505 -0.7078
 6591TIP3   OH241187   5.306   1.888   4.515  0.7103  0.1464 -0.3070
 6591TIP3    H141188   5.278   1.798   4.501  0.2926  0.2942 -0.4411
 6591TIP3    H241189   5.391   1.880   4.558  1.4941 -0.3212 -1.8641
 6592TIP3   OH241190   0.153   3.554   5.036 -0.3768  0.9028  0.3617
 6592TIP3    H141191   0.227   3.496   5.051 -0.2741  1.0026  0.2467
 6592TIP3    H241192   0.085   3.498   4.999 -0.3686  0.8064  0.4922
 6593TIP3   OH241193   0.059   2.712   2.090  0.3902  0.4674 -0.1401
 6593TIP3    H141194   0.024   2.694   2.177 -0.0390  0.1260 -0.3779
 6593TIP3    H241195   0.095   2.629   2.060  1.8220  0.9078  0.2682
 6594TIP3   OH241196   6.135   0.830   3.598  0.4118 -0.4825  0.1470
 6594TIP3    H141197   6.185   0.899   3.553 -2.0557  1.5536  0.3198
 6594TIP3    H241198   6.142   0.851   3.691 -0.0927 -0.6495  0.2276
 6595TIP3   OH241199   4.779   0.580  11.006  0.1345  0.4102 -0.1769
 6595TIP3    H141200   4.812   0.607  10.920  0.3693 -1.4447 -0.7183
 6595TIP3    H241201   4.749   0.490  10.993  0.4345 -0.0152  1.7567
 6596TIP3   OH241202   1.167   3.890   5.895  0.3233  0.1588  0.5921
 6596TIP3    H141203   1.205   3.978   5.903  0.4569  0.1583  0.0534
 6596TIP3    H241204   1.127   3.873   5.980 -0.5283  1.1328  0.4083
 6597TIP3   OH241205   5.787   1.852   3.314 -0.3233  0.6347 -0.0610
 6597TIP3    H141206   5.755   1.927   3.365 -1.4304  0.5927 -0.6662
 6597TIP3    H241207   5.792   1.884   3.225  1.0307  0.5280 -0.0378
 6598TIP3   OH241208   4.310   2.567   0.764 -0.4133 -0.4280 -0.0323
 6598TIP3    H141209   4.381   2.592   0.824  0.9024 -2.2189 -0.7317
 6598TIP3    H241210   4.336   2.606   0.680  0.2484 -1.8000 -0.4935
 6599TIP3   OH241211   3.538   3.273  10.994  0.5826 -0.9709  0.1356
 6599TIP3    H141212   3.567   3.183  10.976  1.9279 -0.2486 -1.6299
 6599TIP3    H241213   3.551   3.319  10.911  1.8020  1.3245  1.5171
 6600TIP3   OH241214   4.395   5.273   3.442  0.2497 -0.7306  0.4645
 6600TIP3    H141215   4.305   5.299   3.422  0.4461  0.0471  0.5870
 6600TIP3    H241216   4.449   5.346   3.412  1.0710 -2.1938 -1.8749
 6601TIP3   OH241217   2.401   0.625  11.971 -0.1553 -0.1664  0.0509
 6601TIP3    H141218   2.466   0.651  11.906  0.9340 -0.1662  1.0997
 6601TIP3    H241219   2.381   0.533  11.949  0.6995 -0.3732  0.1138
 6602TIP3   OH241220   5.421   6.412   1.753 -0.2862 -0.1850  0.1093
 6602TIP3    H141221   5.507   6.377   1.728 -0.1832 -1.0314  1.5503
 6602TIP3    H241222   5.361   6.338   1.742 -0.7661  0.2997 -0.5373
 6603TIP3   OH241223   4.830   6.186   4.726  0.1393 -0.4440 -0.2807
 6603TIP3    H141224   4.769   6.175   4.654 -0.0179 -0.9228 -0.0843
 6603TIP3    H241225   4.907   6.134   4.700 -0.5993 -2.0973  0.6494
 6604TIP3   OH241226   3.744   4.884  14.091  0.0983  0.4792  0.0705
 6604TIP3    H141227   3.757   4.801  14.045  0.8883  0.4782  0.2871
 6604TIP3    H241228   3.765   4.864  14.182  0.0704  0.8690  0.1636
 6605TIP3   OH241229   2.132   4.736  12.678  0.2895 -0.6272  0.3943
 6605TIP3    H141230   2.093   4.666  12.731  0.4655 -0.2626  1.0209
 6605TIP3    H241231   2.176   4.691  12.607 -1.8159 -1.0433 -0.7425
 6606TIP3   OH241232   2.862   6.263  11.072 -0.3536 -0.2700 -0.7093
 6606TIP3    H141233   2.903   6.209  11.006 -0.6259 -0.6274 -0.5868
 6606TIP3    H241234   2.769   6.240  11.069 -0.5063  0.3187 -0.7818
 6607TIP3   OH241235   2.555   3.980  13.063 -0.3720  0.2556  0.1132
 6607TIP3    H141236   2.649   3.983  13.081 -0.0584 -0.8771 -1.1902
 6607TIP3    H241237   2.541   4.049  12.998 -0.3974  0.2315  0.0932
 6608TIP3   OH241238   2.659   1.973   3.416 -0.5384 -0.2621  0.0315
 6608TIP3    H141239   2.682   2.057   3.455  0.4325 -0.4974  0.0029
 6608TIP3    H241240   2.611   1.926   3.485 -0.7424  0.1580  0.1786
 6609TIP3   OH241241   6.244   2.060   4.801  0.3194  0.1119  0.2692
 6609TIP3    H141242   6.261   1.969   4.824  0.5641 -0.3120 -1.4513
 6609TIP3    H241243   6.189   2.093   4.871 -2.7687 -2.3817 -0.7645
 6610TIP3   OH241244   5.159   0.608  11.618 -0.3608 -0.5321  0.2272
 6610TIP3    H141245   5.132   0.603  11.526  0.6564  1.6135 -0.2491
 6610TIP3    H241246   5.087   0.655  11.661 -0.5696 -1.0188  0.4131
 6611TIP3   OH241247   0.510   1.544  15.378  0.3812  0.5405  0.5921
 6611TIP3    H141248   0.579   1.565  15.315  0.3781  0.2367  0.4848
 6611TIP3    H241249   0.506   1.620  15.436  1.5029  0.1366  1.2215
 6612TIP3   OH241250   2.232   6.669   0.774 -0.1748 -0.1902 -0.0724
 6612TIP3    H141251   2.272   6.625   0.699  0.4800  1.8582 -0.9882
 6612TIP3    H241252   2.164   6.725   0.736  0.2495  0.9794  0.8295
 6613TIP3   OH241253   4.645   0.380   4.267 -0.4046 -0.1805 -0.0133
 6613TIP3    H141254   4.622   0.397   4.359 -0.1405  0.0693  0.0092
 6613TIP3    H241255   4.567   0.404   4.218 -0.8700 -1.1847  0.2193
 6614TIP3   OH241256   0.657   6.489   0.480  0.6796  0.2992 -0.0803
 6614TIP3    H141257   0.724   6.503   0.547  1.2679 -3.8799  0.5142
 6614TIP3    H241258   0.589   6.438   0.524 -2.3608  3.1584 -1.0623
 6615TIP3   OH241259   3.699   3.835   3.318  0.0432 -0.2747  0.3187
 6615TIP3    H141260   3.623   3.860   3.266  2.8761  1.8529 -3.3380
 6615TIP3    H241261   3.736   3.919   3.347  1.4749 -1.1917  1.2873
 6616TIP3   OH241262   6.745   4.592  12.303 -0.4070  0.6310 -0.0291
 6616TIP3    H141263   6.706   4.567  12.219 -0.2567  1.1170 -0.2514
 6616TIP3    H241264   6.835   4.560  12.298 -0.3897  0.6847 -0.0674
 6617TIP3   OH241265   5.846   4.833  14.704 -0.1181  0.2772  0.1805
 6617TIP3    H141266   5.846   4.756  14.762  1.4856  1.6013  2.1087
 6617TIP3    H241267   5.935   4.868  14.712 -0.4937  1.7276 -1.4958
 6618TIP3   OH241268   4.859   0.022  14.771 -0.0779  0.1000 -0.5789
 6618TIP3    H141269   4.800   0.010  14.846  1.0236  0.9246  0.4646
 6618TIP3    H241270   4.847   0.114  14.746  1.9941  0.8110  0.7933
 6619TIP3   OH241271   1.601   2.880   3.679  0.0567  0.2036 -0.3202
 6619TIP3    H141272   1.577   2.802   3.729 -1.4632  1.2999  0.7607
 6619TIP3    H241273   1.643   2.938   3.743 -0.3828  0.9611 -0.7046
 6620TIP3   OH241274   0.116   5.908   4.977 -0.5945  0.3541  0.4449
 6620TIP3    H141275   0.054   5.850   5.021 -1.3620  0.8517  0.0496
 6620TIP3    H241276   0.061   5.964   4.921  0.0669  1.7728  1.1550
 6621TIP3   OH241277   6.442   2.658   3.919  0.4861  0.0979  0.6748
 6621TIP3    H141278   6.360   2.609   3.920  0.5750 -0.0692  2.5378
 6621TIP3    H241279   6.510   2.590   3.916  0.5949  0.2336 -0.7573
 6622TIP3   OH241280   1.881   5.828  13.139 -0.7251 -0.1313  0.8471
 6622TIP3    H141281   1.851   5.902  13.191 -0.7153 -0.9737  2.1001
 6622TIP3    H241282   1.803   5.798  13.092 -0.7704  0.5348  0.4877
 6623TIP3   OH241283   2.543   2.710  15.157  0.4015  1.0306 -0.0337
 6623TIP3    H141284   2.549   2.614  15.159 -0.7303  0.9556  0.6035
 6623TIP3    H241285   2.587   2.735  15.076  0.3633 -0.0578 -0.4119
 6624TIP3   OH241286   1.713   5.404  12.394  0.7192  0.3161  0.2212
 6624TIP3    H141287   1.659   5.477  12.424 -0.0658 -0.5288  0.8932
 6624TIP3    H241288   1.680   5.384  12.307  1.8235  1.6061 -0.5415
 6625TIP3   OH241289   3.030   2.557   2.680 -0.2386  0.0717  0.2277
 6625TIP3    H141290   3.042   2.652   2.688 -3.2576  0.4377  2.3333
 6625TIP3    H241291   3.050   2.524   2.768 -0.0052 -1.1527 -0.2717
 6626TIP3   OH241292   2.942   0.501  13.954 -0.3007  0.5562  0.4166
 6626TIP3    H141293   2.916   0.565  13.888  0.0002  0.3351  0.0832
 6626TIP3    H241294   3.037   0.508  13.959 -0.2836  0.2721  0.5207
 6627TIP3   OH241295   1.386   3.313   3.012  0.2391  0.4322 -0.0185
 6627TIP3    H141296   1.443   3.237   3.025  0.0159  0.2355 -0.1802
 6627TIP3    H241297   1.355   3.334   3.100  1.7892  1.5174  0.3006
 6628TIP3   OH241298   1.315   4.921  14.489 -0.1429  0.3780  0.1418
 6628TIP3    H141299   1.337   4.849  14.429  0.7300  1.4098 -0.8223
 6628TIP3    H241300   1.366   4.995  14.457 -1.5315  1.6191  0.6983
 6629TIP3   OH241301   2.023   0.165  16.702 -0.3235  0.3535  0.2958
 6629TIP3    H141302   1.937   0.189  16.736 -0.3136  0.8165 -0.0064
 6629TIP3    H241303   2.044   0.233  16.638  0.1860  0.1442  0.2334
 6630TIP3   OH241304   2.238   5.329  12.425  0.3612  0.2178  0.6534
 6630TIP3    H141305   2.246   5.270  12.350 -0.0865  1.3151 -0.2878
 6630TIP3    H241306   2.149   5.363  12.418  0.8077  1.4468  0.8376
 6631TIP3   OH241307   1.669   2.709  11.980 -0.4314  0.3456 -0.1371
 6631TIP3    H141308   1.690   2.703  12.074 -0.6773  1.0538 -0.0273
 6631TIP3    H241309   1.728   2.776  11.947  0.3145 -0.5692 -0.7003
 6632TIP3   OH241310   3.988   4.843   2.271 -0.4543 -0.2400 -0.1776
 6632TIP3    H141311   3.927   4.872   2.204  1.1345  0.4433 -1.3856
 6632TIP3    H241312   4.041   4.920   2.291  0.2891 -0.9176  0.5441
 6633TIP3   OH241313   4.566   5.084   0.733  0.0813  0.3496  0.0563
 6633TIP3    H141314   4.501   5.018   0.708  1.5575 -1.0223 -0.2913
 6633TIP3    H241315   4.588   5.128   0.650 -1.8277  2.2438  0.4615
 6634TIP3   OH241316   1.826   2.563   2.408 -0.1594 -0.1829 -0.3367
 6634TIP3    H141317   1.802   2.610   2.328 -0.0530 -0.2720 -0.4227
 6634TIP3    H241318   1.883   2.625   2.455  1.2728 -0.7834 -1.1891
 6635TIP3   OH241319   1.766   4.558   5.993 -0.1515 -0.5474  0.5355
 6635TIP3    H141320   1.850   4.601   6.010  0.0114 -1.3147  1.8120
 6635TIP3    H241321   1.757   4.559   5.898  1.5267 -0.8477  0.3493
 6636TIP3   OH241322   4.710   2.335  12.426 -0.2547  0.1225 -0.0540
 6636TIP3    H141323   4.729   2.269  12.492  1.6157 -1.0495 -1.6703
 6636TIP3    H241324   4.614   2.334  12.417 -0.4695 -0.2758  1.9840
 6637TIP3   OH241325   6.355   0.750   5.577 -0.7244 -0.1367 -0.0631
 6637TIP3    H141326   6.373   0.698   5.498 -1.5136  1.1992 -1.1831
 6637TIP3    H241327   6.423   0.817   5.577 -0.4118 -0.4455  0.7056
 6638TIP3   OH241328   1.689   6.476  17.022  0.2453  0.4509 -0.1611
 6638TIP3    H141329   1.779   6.509  17.015  0.5764 -0.2309  0.6442
 6638TIP3    H241330   1.684   6.406  16.957  0.3978  0.2936 -0.0057
 6639TIP3   OH241331   5.060   4.170  17.127 -0.4695 -0.0820 -0.1889
 6639TIP3    H141332   5.101   4.132  17.204  0.3039  0.4551 -0.3125
 6639TIP3    H241333   5.134   4.196  17.071 -0.9542  1.2223 -0.2754
 6640TIP3   OH241334   0.243   3.039   5.752  0.2589  0.1538 -0.5291
 6640TIP3    H141335   0.160   3.087   5.746  0.3042  0.0930 -1.7884
 6640TIP3    H241336   0.228   2.973   5.820  0.1384  1.8020  1.1411
 6641TIP3   OH241337   1.114   0.664   1.951  0.3966 -0.3796  0.2156
 6641TIP3    H141338   1.103   0.726   1.879 -0.4993  0.5331  1.1125
 6641TIP3    H241339   1.203   0.679   1.982  1.0060 -1.1921 -1.0491
 6642TIP3   OH241340   1.291   4.551  12.347 -0.1340 -0.0269  0.0582
 6642TIP3    H141341   1.278   4.456  12.337 -1.5289 -0.1589  2.2416
 6642TIP3    H241342   1.236   4.590  12.279 -2.4020 -0.8366  1.2839
 6643TIP3   OH241343   1.309   0.029   1.986 -0.1657 -0.4365 -0.2543
 6643TIP3    H141344   1.218   0.009   2.006 -0.2815  0.1441 -0.1750
 6643TIP3    H241345   1.354  -0.055   1.993 -0.5889 -0.6246  0.3146
 6644TIP3   OH241346   1.924   0.584  12.426 -0.0899 -0.3368 -0.1687
 6644TIP3    H141347   1.964   0.523  12.487  0.1766  3.6437  4.1540
 6644TIP3    H241348   1.998   0.624  12.380  0.0942 -0.0075  0.4152
 6645TIP3   OH241349   6.002   6.333   2.405  0.2688  0.3105  0.2126
 6645TIP3    H141350   6.018   6.375   2.321  0.0185 -0.7017 -0.3536
 6645TIP3    H241351   6.061   6.258   2.406  0.1627  0.2271  0.8845
 6646TIP3   OH241352   4.640   4.123  15.460  0.5438  0.2126  0.1796
 6646TIP3    H141353   4.633   4.036  15.498  1.0160 -0.0135 -0.2386
 6646TIP3    H241354   4.605   4.181  15.528 -3.0369 -0.5469 -0.8348
 6647TIP3   OH241355   2.151   4.145   6.002  0.2856 -0.6157 -0.0734
 6647TIP3    H141356   2.095   4.077   6.038 -0.8735  0.2670 -0.1777
 6647TIP3    H241357   2.197   4.102   5.929 -1.4405 -0.9309 -1.0119
 6648TIP3   OH241358   4.442   4.166  15.250  0.2767  0.3318 -0.3386
 6648TIP3    H141359   4.406   4.252  15.272  2.9370  2.0641 -2.1893
 6648TIP3    H241360   4.511   4.152  15.314 -1.0719 -1.2041  0.8617
 6649TIP3   OH241361   1.833   1.886  13.201  0.3254 -0.0826  0.0164
 6649TIP3    H141362   1.837   1.915  13.292  0.3840  2.1961 -0.6495
 6649TIP3    H241363   1.923   1.864  13.178  0.2413 -1.1081  0.6132
 6650TIP3   OH241364   4.312   5.188  13.181 -0.0624 -0.1968  0.0752
 6650TIP3    H141365   4.292   5.242  13.104 -0.5960  0.3552  0.5850
 6650TIP3    H241366   4.403   5.208  13.201  0.6809 -1.7822 -1.5286
 6651TIP3   OH241367   6.650   6.254  14.655  0.0537  0.3175 -0.5344
 6651TIP3    H141368   6.589   6.210  14.715  0.3048  0.0092 -0.5022
 6651TIP3    H241369   6.593   6.299  14.593 -0.2102 -0.0109 -0.5344
 6652TIP3   OH241370   6.014   1.161   3.453 -0.0521  0.3090 -0.0506
 6652TIP3    H141371   5.986   1.177   3.543 -0.6298 -2.5862  0.3921
 6652TIP3    H241372   6.103   1.126   3.462 -0.5948 -1.2512 -0.4288
 6653TIP3   OH241373   4.398   0.192   3.751  0.3790 -0.3652 -0.1930
 6653TIP3    H141374   4.445   0.109   3.745  1.2380  0.2291 -3.3921
 6653TIP3    H241375   4.466   0.259   3.739 -0.8264  0.6108 -1.9806
 6654TIP3   OH241376   2.247   3.627  15.660 -0.7385  0.3036  0.3768
 6654TIP3    H141377   2.342   3.617  15.651 -0.5933  0.2247  1.7936
 6654TIP3    H241378   2.212   3.598  15.576  0.4868  0.2173 -0.1228
 6655TIP3   OH241379   5.863   4.360   0.746 -0.3175  0.4925 -0.1906
 6655TIP3    H141380   5.878   4.450   0.717 -0.7823  1.2255  1.7055
 6655TIP3    H241381   5.925   4.346   0.817 -0.4888 -0.5649 -0.2292
 6656TIP3   OH241382   0.488   3.720  15.404  0.2191  0.1313 -0.1921
 6656TIP3    H141383   0.482   3.798  15.348  0.1063 -0.2576 -0.7344
 6656TIP3    H241384   0.405   3.717  15.450  0.4477  0.6503  0.2638
 6657TIP3   OH241385   0.332   3.408  16.701  0.1225  0.2224  0.4481
 6657TIP3    H141386   0.426   3.394  16.690  0.1490  0.2895  0.5819
 6657TIP3    H241387   0.292   3.358  16.630  0.2077 -0.6646  1.0022
 6658TIP3   OH241388   3.481   4.087  14.224  0.7287  0.0655  0.1699
 6658TIP3    H141389   3.467   4.170  14.177 -2.6154 -0.2710  0.3203
 6658TIP3    H241390   3.408   4.032  14.197  0.9146 -1.5835  2.7123
 6659TIP3   OH241391   0.739   4.940  16.092 -0.0362 -0.2319 -0.0398
 6659TIP3    H141392   0.775   4.964  16.007 -0.1117  0.8734  0.2190
 6659TIP3    H241393   0.680   5.013  16.114  0.1695 -0.3859  1.0601
 6660TIP3   OH241394   2.305   5.552   1.682 -0.6239 -0.1828 -0.2391
 6660TIP3    H141395   2.313   5.499   1.603 -0.7840 -0.1627 -0.2687
 6660TIP3    H241396   2.214   5.581   1.683 -0.7228 -0.4825  0.1417
 6661TIP3   OH241397   2.116   1.900   0.523  0.4543 -0.2084  0.0813
 6661TIP3    H141398   2.045   1.909   0.586 -0.9811  0.1210 -1.5137
 6661TIP3    H241399   2.165   1.982   0.530  1.2130 -0.7551  1.7498
 6662TIP3   OH241400   6.108   6.270  10.975  0.1772 -0.1018  0.0864
 6662TIP3    H141401   6.114   6.194  10.917  0.4953  1.2230 -1.6948
 6662TIP3    H241402   6.198   6.289  11.000  0.2928  0.6948 -0.8762
 6663TIP3   OH241403   0.208   6.453   2.961  0.1130  0.2303 -0.1818
 6663TIP3    H141404   0.229   6.506   2.884 -0.0942  0.2722 -0.2103
 6663TIP3    H241405   0.252   6.497   3.034 -0.2961  0.6041 -0.1597
 6664TIP3   OH241406   2.227   5.052   2.262 -0.2323 -0.1661 -0.5991
 6664TIP3    H141407   2.266   5.057   2.349 -0.1872 -0.1320 -0.6212
 6664TIP3    H241408   2.237   5.140   2.226 -0.5888 -0.0794 -0.4925
 6665TIP3   OH241409   6.689   4.553   2.808  0.1421 -0.3461 -0.4187
 6665TIP3    H141410   6.671   4.628   2.752  2.2088  0.6730  0.1769
 6665TIP3    H241411   6.606   4.534   2.850 -0.2982  2.0819 -0.0552
 6666TIP3   OH241412   4.695   1.655   3.960  0.2779  0.0974  0.2593
 6666TIP3    H141413   4.723   1.729   3.905 -2.9154  0.7255 -0.7246
 6666TIP3    H241414   4.631   1.692   4.020  0.5270 -1.4219  1.5229
 6667TIP3   OH241415   5.052   6.168  12.070 -0.4993  0.1096  0.6773
 6667TIP3    H141416   5.117   6.129  12.011 -0.2141 -1.4983  1.9838
 6667TIP3    H241417   5.094   6.248  12.102 -0.0310  0.1877 -0.1097
 6668TIP3   OH241418   2.106   2.322  10.766  0.8224 -0.1218 -0.0045
 6668TIP3    H141419   2.037   2.269  10.726  1.7929 -1.1976 -0.2916
 6668TIP3    H241420   2.187   2.276  10.745  1.5731  0.7167  0.9661
 6669TIP3   OH241421   2.940   1.523   1.207  0.1561  0.6671  0.2216
 6669TIP3    H141422   2.986   1.607   1.200  1.3402 -0.0177 -0.5815
 6669TIP3    H241423   2.849   1.544   1.187  0.4391  1.7612  0.0299
 6670TIP3   OH241424   4.900   4.964  14.794  0.5839  0.8194  0.3771
 6670TIP3    H141425   4.925   5.056  14.786  2.7868  0.3850  1.4759
 6670TIP3    H241426   4.978   4.915  14.767 -1.0085 -0.8163 -1.6830
 6671TIP3   OH241427   0.168   1.325  14.137 -0.7575 -0.0757  0.1172
 6671TIP3    H141428   0.232   1.388  14.171  0.6061 -1.0237 -0.5924
 6671TIP3    H241429   0.218   1.245  14.123 -2.1188 -0.8696 -0.4562
 6672TIP3   OH241430   5.774   4.777  17.217  0.2529  0.0996  0.7303
 6672TIP3    H141431   5.802   4.847  17.157  1.0110 -1.6231 -1.0484
 6672TIP3    H241432   5.679   4.785  17.221  0.3852  1.6939  1.2020
 6673TIP3   OH241433   4.584   1.269   5.678 -0.4909  0.3201 -0.5243
 6673TIP3    H141434   4.506   1.323   5.671 -1.0466 -0.3984 -0.0213
 6673TIP3    H241435   4.570   1.216   5.757 -0.6587 -1.6109 -1.7649
 6674TIP3   OH241436   1.964   2.824   1.798 -0.5436 -0.0603  0.0933
 6674TIP3    H141437   1.994   2.844   1.709 -0.2374  0.4045  0.2971
 6674TIP3    H241438   1.881   2.779   1.786 -0.2555 -0.4584 -0.4499
 6675TIP3   OH241439   6.042   5.680   2.079  0.0600 -0.3386 -0.0316
 6675TIP3    H141440   6.069   5.766   2.110 -0.7012  0.0297 -0.3716
 6675TIP3    H241441   5.959   5.664   2.122  0.3807 -1.0770  0.3255
 6676TIP3   OH241442   3.501   5.595  16.811 -0.0717  0.3989  0.5742
 6676TIP3    H141443   3.555   5.608  16.734 -1.6029 -0.6047 -0.7468
 6676TIP3    H241444   3.452   5.515  16.793 -2.0658  1.3030  1.6207
 6677TIP3   OH241445   5.265   1.038  14.720 -0.2234 -0.0573  0.0576
 6677TIP3    H141446   5.296   1.109  14.664 -0.8107 -1.3006 -1.9319
 6677TIP3    H241447   5.234   1.082  14.800  1.1567  1.7099 -0.3265
 6678TIP3   OH241448   2.801   1.635   2.172 -0.1675 -0.2825 -0.0426
 6678TIP3    H141449   2.775   1.547   2.143 -0.6034 -0.8652  1.9302
 6678TIP3    H241450   2.773   1.639   2.263  0.9726  1.4677  0.2797
 6679TIP3   OH241451   1.964   1.148   0.068 -0.1740  0.5082  0.9976
 6679TIP3    H141452   1.896   1.091   0.031  1.6406 -1.1186  0.0275
 6679TIP3    H241453   1.930   1.172   0.154 -1.4486 -1.2430  1.0335
 6680TIP3   OH241454   3.995   1.436   0.925 -0.0188 -0.6409  0.0432
 6680TIP3    H141455   3.938   1.439   1.002 -0.8157 -0.4917 -0.5396
 6680TIP3    H241456   4.032   1.524   0.919  0.2525 -0.7286  0.4054
 6681TIP3   OH241457   5.606   4.336   4.211 -0.2322 -0.6507  0.3997
 6681TIP3    H141458   5.569   4.275   4.147  1.9376 -0.4573 -1.1407
 6681TIP3    H241459   5.693   4.301   4.229 -0.7928 -0.7300  3.3810
 6682TIP3   OH241460   6.338   1.021   3.774  0.5087  0.2136 -0.2210
 6682TIP3    H141461   6.397   0.964   3.724  0.4241  0.0298 -0.1151
 6682TIP3    H241462   6.371   1.016   3.863 -0.1494 -0.5394 -0.0070
 6683TIP3   OH241463   6.426   5.907   2.699  0.5643  0.0702 -0.2600
 6683TIP3    H141464   6.467   5.851   2.633  2.0055 -0.0732  0.7300
 6683TIP3    H241465   6.339   5.926   2.662  1.2918 -0.0452 -2.1688
 6684TIP3   OH241466   1.228   5.589   3.218  0.4867  0.0560 -0.0081
 6684TIP3    H141467   1.292   5.529   3.256  1.1370  0.1199 -0.9833
 6684TIP3    H241468   1.242   5.583   3.124 -0.7985  0.2386 -0.2290
 6685TIP3   OH241469   1.329   0.808  15.638  0.0911 -0.2943 -0.1733
 6685TIP3    H141470   1.356   0.720  15.612  0.7795  0.1618 -1.0773
 6685TIP3    H241471   1.396   0.836  15.700  0.8447  0.2164 -1.1786
 6686TIP3   OH241472   1.353   3.364  15.786  0.1698  0.3930  1.0106
 6686TIP3    H141473   1.319   3.411  15.710 -1.1511 -0.9072  0.7671
 6686TIP3    H241474   1.404   3.292  15.750 -0.5904 -0.3229  1.3458
 6687TIP3   OH241475   1.550   3.523   1.079 -0.1387 -0.3090 -0.1610
 6687TIP3    H141476   1.609   3.537   1.153  2.5932  2.5471 -2.6048
 6687TIP3    H241477   1.608   3.511   1.004 -2.7711 -3.3520 -1.9562
 6688TIP3   OH241478   2.462   5.634  15.049 -1.0661  0.0135  0.0470
 6688TIP3    H141479   2.458   5.541  15.026  0.3204  0.0992 -0.6682
 6688TIP3    H241480   2.528   5.638  15.119 -0.1685  0.5955 -0.8078
 6689TIP3   OH241481   3.282   3.433   2.599 -0.1926  0.1767 -0.0103
 6689TIP3    H141482   3.228   3.394   2.667 -2.2466  0.0511 -1.6206
 6689TIP3    H241483   3.225   3.437   2.522  1.3100  2.3595 -1.1246
 6690TIP3   OH241484   0.688   2.327  13.384  0.0945 -0.9190  0.1828
 6690TIP3    H141485   0.719   2.351  13.471 -1.5827 -1.2163  0.9067
 6690TIP3    H241486   0.725   2.393  13.326  1.8618 -1.1463  0.9791
 6691TIP3   OH241487   5.071   3.844  17.280  0.1701  0.0915 -0.0760
 6691TIP3    H141488   5.069   3.771  17.219  2.1835 -0.0025 -0.0997
 6691TIP3    H241489   4.985   3.845  17.321 -0.0604 -1.9585 -0.4534
 6692TIP3   OH241490   0.263   4.731   4.977 -0.0518 -0.3305 -0.1469
 6692TIP3    H141491   0.327   4.742   4.907 -0.6965  1.5739 -0.4896
 6692TIP3    H241492   0.302   4.776   5.052 -0.6147  0.1331 -0.1251
 6693TIP3   OH241493   2.500   5.314   2.048 -0.0617  0.5299  0.3002
 6693TIP3    H141494   2.504   5.395   1.997 -2.7847 -0.3232 -1.5333
 6693TIP3    H241495   2.561   5.255   2.004 -1.2902  0.2812 -1.1670
 6694TIP3   OH241496   6.362   5.877  15.772  0.7502 -0.3067 -0.0131
 6694TIP3    H141497   6.446   5.838  15.797  0.8185  0.7423  1.5408
 6694TIP3    H241498   6.383   5.938  15.702  1.3710  0.2919  0.6874
 6695TIP3   OH241499   1.933   0.616  14.455 -0.4378  0.1296  0.2149
 6695TIP3    H141500   1.952   0.571  14.373 -1.4736  0.7253 -0.3686
 6695TIP3    H241501   2.013   0.606  14.506  0.4311  0.2361 -1.0779
 6696TIP3   OH241502   2.666   6.738   4.149  0.5761 -0.1010 -0.7579
 6696TIP3    H141503   2.712   6.778   4.222  1.4228  0.5262 -1.6039
 6696TIP3    H241504   2.708   6.653   4.138  1.1544  0.2305 -1.1577
 6697TIP3   OH241505   4.740   1.938  13.544 -0.2992 -0.5808 -0.2180
 6697TIP3    H141506   4.757   1.851  13.510  0.6630 -0.1573 -0.8744
 6697TIP3    H241507   4.826   1.979  13.551 -0.7018  0.2106  0.3816
 6698TIP3   OH241508   0.865   4.323   4.223 -0.0718 -0.1062  0.2883
 6698TIP3    H141509   0.899   4.273   4.148 -1.9793  0.3357 -0.9447
 6698TIP3    H241510   0.847   4.257   4.290 -0.9285 -0.8771 -0.6739
 6699TIP3   OH241511   1.894   5.438   3.354  0.4600  0.2803 -0.0755
 6699TIP3    H141512   1.974   5.481   3.385  0.5660 -0.4170  0.6380
 6699TIP3    H241513   1.920   5.347   3.339  0.2438  0.4421 -1.6063
 6700TIP3   OH241514   0.086   0.843  12.370 -0.0936 -0.0764  0.2592
 6700TIP3    H141515   0.102   0.934  12.393  0.6391  0.2007 -1.1862
 6700TIP3    H241516   0.150   0.824  12.301 -0.5996 -1.5172  0.1443
 6701TIP3   OH241517   5.631   3.239   1.908 -0.0613 -0.0186  0.0484
 6701TIP3    H141518   5.614   3.324   1.866  0.7296 -0.3061 -0.8806
 6701TIP3    H241519   5.547   3.193   1.902 -0.1257  0.1746 -0.6995
 6702TIP3   OH241520   5.520   3.720   3.648 -0.9279  0.0287  0.3531
 6702TIP3    H141521   5.502   3.798   3.596  1.4543  0.6263  0.3136
 6702TIP3    H241522   5.448   3.660   3.628 -0.9031  0.8031 -2.4731
 6703TIP3   OH241523   4.559   1.591  15.911 -0.0308  0.0063  0.1215
 6703TIP3    H141524   4.512   1.516  15.875  0.0858  0.1941 -0.4173
 6703TIP3    H241525   4.546   1.583  16.006 -2.6300  1.0149 -0.0769
 6704TIP3   OH241526   4.795   5.105   0.310 -0.2566 -0.1393 -0.2942
 6704TIP3    H141527   4.830   5.162   0.379  0.7792  0.1943 -1.0640
 6704TIP3    H241528   4.798   5.158   0.231  0.5032 -1.1722 -0.9883
 6705TIP3   OH241529   3.669   5.415   4.215  0.0996 -0.0032  0.2615
 6705TIP3    H141530   3.754   5.430   4.257 -0.5780  0.2490  1.5811
 6705TIP3    H241531   3.650   5.497   4.170  0.2481  0.1818  0.5323
 6706TIP3   OH241532   0.134   1.841  13.879  0.2111 -0.7585  0.1104
 6706TIP3    H141533   0.045   1.867  13.905  0.7156 -0.9865  2.2789
 6706TIP3    H241534   0.189   1.914  13.905  0.8570 -1.3536  0.4470
 6707TIP3   OH241535   0.358   2.511  14.931 -0.0408  0.2932 -0.6910
 6707TIP3    H141536   0.285   2.448  14.940 -0.3052  0.6982  0.0772
 6707TIP3    H241537   0.316   2.592  14.902 -0.3339  1.3004  2.1761
 6708TIP3   OH241538   3.295   3.595  12.031 -0.3486  0.6885  0.4760
 6708TIP3    H141539   3.216   3.586  11.978 -0.1960 -0.6783  0.4501
 6708TIP3    H241540   3.327   3.505  12.043  1.8715  1.2722 -0.5198
 6709TIP3   OH241541   5.808   2.572  16.105  0.1002 -0.1667  0.7404
 6709TIP3    H141542   5.835   2.503  16.045  0.7696  0.6377  0.0970
 6709TIP3    H241543   5.776   2.642  16.049 -0.0789  0.2609  1.3642
 6710TIP3   OH241544   5.590   2.281  13.091 -0.4033  0.4499 -0.5077
 6710TIP3    H141545   5.679   2.249  13.106 -0.5782  0.8703  1.7963
 6710TIP3    H241546   5.598   2.337  13.014  1.6695  1.6419  0.4712
 6711TIP3   OH241547   0.720   2.552   4.378  0.1227  0.4611 -0.0280
 6711TIP3    H141548   0.694   2.488   4.444  0.9562 -1.7245 -1.6846
 6711TIP3    H241549   0.779   2.612   4.424  0.6217 -0.9502  1.2577
 6712TIP3   OH241550   3.547   4.718   4.476  0.0505  0.0075  0.2863
 6712TIP3    H141551   3.591   4.742   4.394 -1.0026  1.9458  0.2465
 6712TIP3    H241552   3.484   4.651   4.450 -0.5866  0.9180 -0.6009
 6713TIP3   OH241553   4.425   4.224  12.129  0.1018 -0.3337 -0.9229
 6713TIP3    H141554   4.340   4.181  12.138  0.0529 -0.2536 -1.0033
 6713TIP3    H241555   4.412   4.290  12.061  0.0101  0.2373 -0.3581
 6714TIP3   OH241556   4.166   0.334   5.434 -0.6088 -0.2230 -0.5286
 6714TIP3    H141557   4.081   0.301   5.404 -0.0344 -0.4483 -2.0025
 6714TIP3    H241558   4.191   0.398   5.368  0.8288 -0.9041 -0.6825
 6715TIP3   OH241559   3.112   0.631  12.586 -0.1069 -0.0238  0.6475
 6715TIP3    H141560   3.177   0.562  12.598  0.6434 -0.1221 -2.9020
 6715TIP3    H241561   3.038   0.603  12.640  0.9504 -2.5009  0.9751
 6716TIP3   OH241562   1.581   2.095  14.864  0.5113  0.7435  0.2967
 6716TIP3    H141563   1.655   2.088  14.925 -0.2865 -0.1047  1.2086
 6716TIP3    H241564   1.554   2.004  14.849  0.6290  0.9289 -1.2847
 6717TIP3   OH241565   2.895   1.115  14.526 -0.8621 -0.0464  0.3275
 6717TIP3    H141566   2.818   1.057  14.524 -1.1380  0.2891 -2.3051
 6717TIP3    H241567   2.954   1.073  14.588 -2.6565 -0.9742  1.5206
 6718TIP3   OH241568   0.417   4.848  13.616 -0.0523  0.2147 -0.2066
 6718TIP3    H141569   0.339   4.891  13.580 -0.9820 -0.5720  0.7921
 6718TIP3    H241570   0.433   4.775  13.556  0.6537  1.0641 -1.0812
 6719TIP3   OH241571   3.586   5.700  16.284  0.5059 -0.1893 -0.2420
 6719TIP3    H141572   3.634   5.670  16.207  1.8222 -0.1353  0.5286
 6719TIP3    H241573   3.570   5.620  16.335  2.1023  0.0917  0.7583
 6720TIP3   OH241574   5.026   3.804   4.735  0.1746  0.0300  0.2110
 6720TIP3    H141575   5.002   3.895   4.754  2.9364  0.5694  1.7418
 6720TIP3    H241576   5.098   3.812   4.672  0.7624 -1.0598  0.7317
 6721TIP3   OH241577   4.770   3.272  12.256 -0.7497  0.7594  0.5196
 6721TIP3    H141578   4.770   3.239  12.345  1.8720 -0.0443  0.3093
 6721TIP3    H241579   4.839   3.223  12.211 -1.0584  2.0736 -1.5814
 6722TIP3   OH241580   4.858   1.194   5.642  0.5626  0.5029  0.0331
 6722TIP3    H141581   4.887   1.273   5.596 -0.1043  0.4461 -0.4893
 6722TIP3    H241582   4.763   1.199   5.642  0.4942 -0.5595 -0.4650
 6723TIP3   OH241583   0.358   4.428  13.310 -0.0596 -0.4066  0.4968
 6723TIP3    H141584   0.424   4.382  13.257 -0.3795 -0.5624  0.2305
 6723TIP3    H241585   0.281   4.370  13.307  0.5646 -1.4961  2.8749
 6724TIP3   OH241586   1.715   3.029   0.516  0.0894 -0.0957 -0.4127
 6724TIP3    H141587   1.719   2.946   0.470  0.2133 -0.5538  0.4019
 6724TIP3    H241588   1.631   3.027   0.563  1.3527 -1.0801  1.9811
 6725TIP3   OH241589   1.838   3.519   3.007  0.1700  0.3115  0.2838
 6725TIP3    H141590   1.749   3.556   3.006 -0.4593 -0.7548  3.6078
 6725TIP3    H241591   1.844   3.468   2.927 -2.7900 -0.6947  0.5720
 6726TIP3   OH241592   5.135   2.183   6.088  0.1241  0.1510 -0.1041
 6726TIP3    H141593   5.140   2.201   6.181 -0.7382 -0.4937  0.0869
 6726TIP3    H241594   5.076   2.250   6.054  0.1999  0.2032 -0.1330
 6727TIP3   OH241595   1.290   0.740   1.714  0.0871 -0.1044 -0.3431
 6727TIP3    H141596   1.273   0.706   1.626 -1.2236  2.3581 -1.1269
 6727TIP3    H241597   1.384   0.732   1.725  0.0907 -1.9171 -1.3144
 6728TIP3   OH241598   2.230   6.375  12.718 -0.4324 -0.0936 -0.2066
 6728TIP3    H141599   2.213   6.294  12.766  0.2215 -0.5086 -0.6623
 6728TIP3    H241600   2.310   6.410  12.756  0.5174 -0.8137 -1.4532
 6729TIP3   OH241601   2.132   1.796  16.389  0.0104 -0.1550 -0.4007
 6729TIP3    H141602   2.196   1.767  16.323 -0.2127 -0.6581 -0.4022
 6729TIP3    H241603   2.067   1.726  16.392 -0.3217  0.1604 -0.0979
 6730TIP3   OH241604   3.531   0.090  17.013 -0.0060  0.3500 -0.1696
 6730TIP3    H141605   3.480   0.040  17.076  0.2881  0.2077 -0.0387
 6730TIP3    H241606   3.592   0.140  17.067 -0.8932  1.5476 -0.2422
 6731TIP3   OH241607   5.513   2.783  11.799  0.1024  0.0604  0.2641
 6731TIP3    H141608   5.568   2.713  11.836 -0.7044 -0.3360  0.7541
 6731TIP3    H241609   5.454   2.738  11.740  0.1642  0.4553 -0.0988
 6732TIP3   OH241610   5.356   3.765   1.732 -0.0028 -0.1798 -0.2174
 6732TIP3    H141611   5.282   3.718   1.695  1.1305 -1.7158 -0.6301
 6732TIP3    H241612   5.412   3.786   1.657  0.8372 -0.6136  0.2666
 6733TIP3   OH241613   2.587   0.095  14.500  0.2804 -0.2385 -0.0741
 6733TIP3    H141614   2.612   0.108  14.409 -0.7199  0.8938 -0.2036
 6733TIP3    H241615   2.567   0.001  14.506  4.5233 -1.3748  0.0835
 6734TIP3   OH241616   1.027   3.250   4.449 -0.3802 -0.1102  0.0348
 6734TIP3    H141617   1.087   3.302   4.502 -0.1388  1.0526 -1.3411
 6734TIP3    H241618   1.080   3.220   4.375 -1.1508 -0.2129 -0.4846
 6735TIP3   OH241619   4.667   4.525  15.254 -0.0885  0.1866  0.0837
 6735TIP3    H141620   4.723   4.453  15.283  1.7847  1.7934  0.6722
 6735TIP3    H241621   4.657   4.581  15.331 -1.4286  0.6473 -0.3833
 6736TIP3   OH241622   3.805   6.181  16.585  0.1035 -0.5711 -0.3458
 6736TIP3    H141623   3.740   6.140  16.527  0.6323 -0.0997 -1.2936
 6736TIP3    H241624   3.755   6.243  16.637 -0.4565 -1.3236  0.0348
 6737TIP3   OH241625   2.244   3.965   1.654 -0.1246  0.5761 -0.2385
 6737TIP3    H141626   2.216   3.921   1.574  1.5596 -2.5521  0.7297
 6737TIP3    H241627   2.304   4.034   1.625 -0.5982  0.3964 -1.7006
 6738TIP3   OH241628   4.732   6.428   1.658 -0.0933 -0.1118  0.4613
 6738TIP3    H141629   4.697   6.428   1.569  0.7720 -0.1152  0.1062
 6738TIP3    H241630   4.792   6.503   1.660  1.3370 -1.1987  0.4346
 6739TIP3   OH241631   5.596   0.444   3.392 -0.5030 -0.4382  0.2131
 6739TIP3    H141632   5.518   0.396   3.418 -0.0813 -1.7813 -0.8331
 6739TIP3    H241633   5.632   0.478   3.474 -2.4020  0.5994  0.6543
 6740TIP3   OH241634   5.478   0.744   3.457  0.1120 -0.0685  0.1188
 6740TIP3    H141635   5.442   0.820   3.504 -0.4754  0.2532 -0.8264
 6740TIP3    H241636   5.403   0.686   3.446  0.5631 -0.8039  0.8491
 6741TIP3   OH241637   2.659   4.346   3.925  0.0265 -0.0937  0.0951
 6741TIP3    H141638   2.627   4.412   3.988  0.3937  1.5691 -1.3722
 6741TIP3    H241639   2.640   4.384   3.840  3.6304 -0.1108 -0.8785
 6742TIP3   OH241640   3.234   4.281  15.002  0.0641 -0.5202  0.0256
 6742TIP3    H141641   3.260   4.242  15.085  3.4722 -1.0645 -1.1269
 6742TIP3    H241642   3.202   4.208  14.949 -0.9048 -0.3817  0.3995
 6743TIP3   OH241643   1.139   1.759   0.829 -0.2980 -0.2843 -0.6207
 6743TIP3    H141644   1.226   1.721   0.839 -0.7653 -1.6874 -1.5949
 6743TIP3    H241645   1.147   1.819   0.755 -0.3658 -1.1750 -1.3771
 6744TIP3   OH241646   6.379   2.059  14.529 -0.0711 -0.2385  0.4301
 6744TIP3    H141647   6.305   2.003  14.553 -0.4529  0.0549 -0.0551
 6744TIP3    H241648   6.342   2.123  14.468  0.7876 -0.6737 -0.5710
 6745TIP3   OH241649   4.060   0.287   0.794 -0.5121  0.2830 -0.4576
 6745TIP3    H141650   4.134   0.283   0.855 -0.4854 -0.4687 -0.5319
 6745TIP3    H241651   4.076   0.215   0.733 -1.2914  0.1394 -0.4955
 6746TIP3   OH241652   4.992   4.903  11.904  0.1545  0.2790 -0.4641
 6746TIP3    H141653   4.918   4.944  11.949 -1.3650 -0.6879 -1.9589
 6746TIP3    H241654   4.994   4.814  11.939  2.6206  1.0779  1.8027
 6747TIP3   OH241655   5.414   4.266   0.858  0.2364 -0.1810 -0.4486
 6747TIP3    H141656   5.361   4.286   0.935 -0.6851 -2.0419 -0.5363
 6747TIP3    H241657   5.469   4.343   0.845 -0.7512  0.8215  1.0917
 6748TIP3   OH241658   0.069   3.711   1.043  0.6397  0.0984  0.6419
 6748TIP3    H141659   0.131   3.638   1.049 -1.4850 -1.8264  0.7561
 6748TIP3    H241660  -0.004   3.684   1.100 -0.2137  2.3595  0.7018
 6749TIP3   OH241661   5.140   2.840   3.730 -0.2501  0.0999  0.9111
 6749TIP3    H141662   5.089   2.911   3.692 -1.1959 -1.0887 -0.1547
 6749TIP3    H241663   5.230   2.871   3.730 -0.3256  0.4825 -1.6015
 6750TIP3   OH241664   0.678   6.053   1.846  0.4252  0.5702  0.3096
 6750TIP3    H141665   0.685   6.035   1.939 -0.9815 -1.2916  0.0987
 6750TIP3    H241666   0.661   6.147   1.841  0.1660  0.6335  1.9424
 6751TIP3   OH241667   3.704   1.641   0.797 -0.3928  0.3638  0.1908
 6751TIP3    H141668   3.731   1.712   0.856  1.0188  0.1190 -0.1266
 6751TIP3    H241669   3.777   1.632   0.736 -1.4882  0.0812 -1.1179
 6752TIP3   OH241670   4.398   2.940   3.261 -0.5632 -0.6261  0.3994
 6752TIP3    H141671   4.392   2.866   3.322 -2.1773 -0.7923  0.0922
 6752TIP3    H241672   4.427   2.900   3.179  1.5766 -0.4080  0.9943
 6753TIP3   OH241673   1.813   2.103  13.386  0.5664  0.7609 -0.5302
 6753TIP3    H141674   1.865   2.128  13.310  0.8829 -0.5507 -0.7611
 6753TIP3    H241675   1.761   2.182  13.406  1.8004  1.7262 -0.9762
 6754TIP3   OH241676   2.018   0.623  11.786  0.2710  0.1692 -0.2193
 6754TIP3    H141677   2.080   0.679  11.741 -0.7571 -0.0895 -2.0398
 6754TIP3    H241678   1.964   0.683  11.838  1.2969  0.4966  0.4843
 6755TIP3   OH241679   4.269   5.507  12.617  0.2983 -0.3344 -0.3330
 6755TIP3    H141680   4.253   5.423  12.574  0.2286 -0.2032 -0.5656
 6755TIP3    H241681   4.210   5.508  12.692  0.7712 -0.7798  0.0588
 6756TIP3   OH241682   6.620   6.487   5.661 -0.1897 -0.1171  0.4855
 6756TIP3    H141683   6.538   6.522   5.696  0.1416  2.9069 -1.3481
 6756TIP3    H241684   6.608   6.487   5.566  0.9006 -2.6477  0.2661
 6757TIP3   OH241685   4.768   2.009   4.573  0.5659  0.3944  0.6170
 6757TIP3    H141686   4.813   2.092   4.554  0.5312  0.4060  0.5874
 6757TIP3    H241687   4.710   1.995   4.498  0.7702  0.2067  0.4918
 6758TIP3   OH241688   3.113   2.788   0.069 -0.2302 -0.1476 -0.1836
 6758TIP3    H141689   3.175   2.775   0.140 -0.1646 -1.0671 -0.3974
 6758TIP3    H241690   3.155   2.748  -0.007 -1.1288 -0.8718 -0.3089
 6759TIP3   OH241691   1.030   1.671  13.737 -0.1789 -0.2318  0.0169
 6759TIP3    H141692   0.993   1.698  13.653 -0.3851 -1.6395 -0.3630
 6759TIP3    H241693   1.107   1.619  13.714 -0.4434 -0.9406  0.6755
 6760TIP3   OH241694   1.318   0.924  13.325 -0.4413  0.3442  0.0123
 6760TIP3    H141695   1.263   0.867  13.272 -0.9689  0.5017  0.3914
 6760TIP3    H241696   1.366   0.865  13.383  0.9552  0.0657 -1.3504
 6761TIP3   OH241697   5.343   6.683  17.117 -0.4778 -0.2839  0.0062
 6761TIP3    H141698   5.248   6.688  17.108 -0.4473  0.4058  0.0757
 6761TIP3    H241699   5.371   6.773  17.129 -0.0211 -0.6599  2.1528
 6762TIP3   OH241700   4.738   2.692  12.167 -0.2714 -0.1098 -0.2458
 6762TIP3    H141701   4.695   2.777  12.173 -0.0098  0.0244 -0.2734
 6762TIP3    H241702   4.719   2.661  12.078  3.1483  1.8299 -1.8660
 6763TIP3   OH241703   3.351   5.088   0.141  0.4271 -0.1697 -0.4645
 6763TIP3    H141704   3.413   5.099   0.213 -1.7459  1.2433  1.3230
 6763TIP3    H241705   3.399   5.116   0.063  1.9322  1.1985  0.8894
 6764TIP3   OH241706   0.301   3.152  14.381  0.1557  0.3727 -0.0577
 6764TIP3    H141707   0.342   3.238  14.375 -1.4343  1.2300  0.5424
 6764TIP3    H241708   0.226   3.166  14.439 -0.2348 -1.3920 -0.0790
 6765TIP3   OH241709   1.025   4.311   1.458 -0.8354 -0.7010  0.6069
 6765TIP3    H141710   1.076   4.322   1.538  0.5288  1.4602 -0.4585
 6765TIP3    H241711   0.939   4.347   1.479 -0.8390 -1.1558  1.4024
 6766TIP3   OH241712   5.134   4.629  15.535  0.1364  0.0054 -0.3079
 6766TIP3    H141713   5.169   4.618  15.447 -1.6445 -1.2763 -0.9095
 6766TIP3    H241714   5.176   4.560  15.586  0.5600  0.2431 -0.3230
 6767TIP3   OH241715   3.643   2.450  16.644  0.3864  0.3998  0.5454
 6767TIP3    H141716   3.590   2.464  16.723 -1.6980  1.8085 -1.0115
 6767TIP3    H241717   3.609   2.369  16.607  0.4666  0.4345  0.3973
 6768TIP3   OH241718   2.390   1.238   3.083  0.5565  0.3090  0.4038
 6768TIP3    H141719   2.343   1.313   3.119 -0.4206 -0.0080 -0.1878
 6768TIP3    H241720   2.481   1.267   3.077 -0.0638  2.0384 -1.3952
 6769TIP3   OH241721   6.065   5.865   1.154 -0.2739 -0.3204 -0.0000
 6769TIP3    H141722   6.104   5.858   1.067  0.5745  3.8146 -0.1830
 6769TIP3    H241723   6.139   5.867   1.214 -0.5313  0.8833  0.3260
 6770TIP3   OH241724   0.517   4.136   1.961 -0.2833  0.6575  0.3576
 6770TIP3    H141725   0.611   4.140   1.981 -0.1028 -0.5974 -0.1283
 6770TIP3    H241726   0.510   4.070   1.892 -1.3625  1.8190 -0.6864
 6771TIP3   OH241727   5.009   5.211   6.322 -0.0756 -0.1944 -0.1631
 6771TIP3    H141728   4.970   5.234   6.406  0.2636  0.2938 -0.1303
 6771TIP3    H241729   5.044   5.123   6.335 -0.8320 -0.4926 -0.0837
 6772TIP3   OH241730   2.162   3.454  12.354  0.0108  0.0815  0.3984
 6772TIP3    H141731   2.072   3.448  12.384 -0.9514 -0.2798 -2.2966
 6772TIP3    H241732   2.170   3.542  12.318 -0.3021 -0.8259 -2.1207
 6773TIP3   OH241733   4.143   2.523   2.782  0.4600 -0.3741 -0.6372
 6773TIP3    H141734   4.225   2.506   2.829 -0.1182 -1.3619  0.0455
 6773TIP3    H241735   4.087   2.450   2.805 -0.0890 -0.5227 -2.3660
 6774TIP3   OH241736   3.673   6.139  11.964 -0.3035 -0.2722 -0.1184
 6774TIP3    H141737   3.716   6.225  11.970  0.8148 -0.8958  1.4220
 6774TIP3    H241738   3.656   6.115  12.055 -3.1292 -0.4968 -0.6305
 6775TIP3   OH241739   6.684   1.027  17.115 -0.3686  0.4044 -0.4453
 6775TIP3    H141740   6.772   1.042  17.080  0.6774 -0.6052  1.5725
 6775TIP3    H241741   6.679   1.084  17.191 -0.2968 -1.6378  1.1675
 6776TIP3   OH241742   1.784   1.453  13.925  0.3727 -0.3360 -0.6914
 6776TIP3    H141743   1.847   1.465  13.996  0.3502 -0.6843 -0.6092
 6776TIP3    H241744   1.791   1.360  13.902 -2.4182 -1.2855  1.5928
 6777TIP3   OH241745   6.171   5.462  13.290 -0.1919  0.2224  0.0508
 6777TIP3    H141746   6.126   5.378  13.304  1.8682 -1.0238 -0.3764
 6777TIP3    H241747   6.246   5.458  13.349  1.6160  0.4139 -2.1156
 6778TIP3   OH241748   5.807   6.417  14.117 -0.1412 -0.2892  0.1448
 6778TIP3    H141749   5.828   6.433  14.025 -2.4370  0.1877 -0.3598
 6778TIP3    H241750   5.860   6.341  14.140  0.9302 -0.0648 -1.3863
 6779TIP3   OH241751   2.958   3.304   2.678 -0.2255  0.1426 -0.3451
 6779TIP3    H141752   2.996   3.362   2.745 -2.0279  0.1199  0.7813
 6779TIP3    H241753   3.033   3.270   2.630  1.3063 -0.9260  2.5534
 6780TIP3   OH241754   0.527   1.039  17.299 -0.5098 -0.5136  0.0315
 6780TIP3    H141755   0.538   1.132  17.322 -1.6962 -0.9089  2.5231
 6780TIP3    H241756   0.437   1.033  17.268 -0.5489 -0.8710  0.2091
 6781TIP3   OH241757   6.187   3.204  11.897 -0.0176 -0.3000 -0.1590
 6781TIP3    H141758   6.231   3.148  11.961 -2.0000  0.2593  1.8248
 6781TIP3    H241759   6.153   3.143  11.831 -0.4573 -1.2375  0.9080
 6782TIP3   OH241760   1.456   6.414   4.193  0.0208 -0.6688  0.5626
 6782TIP3    H141761   1.529   6.384   4.249 -0.0381  1.7336  2.1004
 6782TIP3    H241762   1.476   6.507   4.177 -2.2246 -0.1876  0.2750
 6783TIP3   OH241763   6.536   3.959  11.681 -0.1329  0.4189 -0.5180
 6783TIP3    H141764   6.594   3.903  11.629  1.6390  2.0969 -0.4352
 6783TIP3    H241765   6.463   3.980  11.622  0.2036 -0.3094 -1.2132
 6784TIP3   OH241766   3.479   5.215  11.790 -0.2576 -0.3997 -0.1246
 6784TIP3    H141767   3.491   5.154  11.862 -1.7904  0.0669  0.5556
 6784TIP3    H241768   3.474   5.160  11.712  1.6728 -0.8907  0.0533
 6785TIP3   OH241769   2.149   4.521  12.253 -0.1259  0.0771  0.3008
 6785TIP3    H141770   2.095   4.553  12.325 -0.2890 -2.8709  1.6393
 6785TIP3    H241771   2.101   4.447  12.217  1.3803 -0.4202 -0.8243
 6786TIP3   OH241772   4.381   4.395  14.387  0.0882  0.2685 -0.4693
 6786TIP3    H141773   4.379   4.312  14.435 -2.1900 -0.6041 -1.9086
 6786TIP3    H241774   4.345   4.459  14.449  2.2273  0.3480  0.7913
 6787TIP3   OH241775   3.455   0.175   1.196  0.7270  0.3585 -0.2001
 6787TIP3    H141776   3.442   0.262   1.160  1.3748  0.9803  0.9985
 6787TIP3    H241777   3.400   0.172   1.275  0.1098 -0.6022 -0.6474
 6788TIP3   OH241778   4.476   6.416  11.594  0.0222  0.5732 -0.1640
 6788TIP3    H141779   4.396   6.428  11.543 -0.2210  0.5533  0.2086
 6788TIP3    H241780   4.447   6.371  11.674  0.3619  0.8008  0.0914
 6789TIP3   OH241781   6.375   5.817  13.184  0.1335  0.7856  0.3713
 6789TIP3    H141782   6.373   5.819  13.280  0.5980  2.0233  0.3680
 6789TIP3    H241783   6.357   5.725  13.162 -3.1918  1.0094  1.5354
 6790TIP3   OH241784   2.526   3.445   3.484  0.0870  0.1979  0.2057
 6790TIP3    H141785   2.498   3.531   3.454 -1.6931 -0.0586  1.0058
 6790TIP3    H241786   2.446   3.403   3.516  0.6343 -2.2696 -1.3689
 6791TIP3   OH241787   0.040   1.239   5.316  0.2176  0.7103 -0.2585
 6791TIP3    H141788  -0.031   1.238   5.252  0.3726  0.6823 -0.4315
 6791TIP3    H241789   0.003   1.282   5.393 -0.0110  0.6210 -0.3188
 6792TIP3   OH241790   3.226   1.396  15.070 -0.7931  0.3985  1.0881
 6792TIP3    H141791   3.270   1.420  15.151 -0.6842 -0.0662  1.1638
 6792TIP3    H241792   3.230   1.476  15.017  1.1724  0.0327  0.6173
 6793TIP3   OH241793   6.038   1.401  16.586 -0.1502 -0.1671 -0.1910
 6793TIP3    H141794   5.988   1.319  16.582 -0.3428 -0.0071 -1.4518
 6793TIP3    H241795   6.126   1.375  16.613 -0.8955 -0.4372  2.2566
 6794TIP3   OH241796   4.066   4.849  13.383 -0.1981 -0.4162  0.3364
 6794TIP3    H141797   4.001   4.904  13.426 -0.2536 -0.9329  0.9243
 6794TIP3    H241798   4.083   4.893  13.299  1.9418  2.1494  1.9637
 6795TIP3   OH241799   0.098   2.255   0.967 -0.5483 -0.1778 -0.2278
 6795TIP3    H141800   0.177   2.299   0.935  0.6397 -1.7628  0.3876
 6795TIP3    H241801   0.101   2.168   0.927 -1.1470 -0.7956  1.0161
 6796TIP3   OH241802   6.310   0.974  16.541  0.1981  0.0521  0.6578
 6796TIP3    H141803   6.392   0.939  16.506 -0.7820 -0.8630 -0.8389
 6796TIP3    H241804   6.308   0.945  16.633  1.7712  0.5496  0.8711
 6797TIP3   OH241805   3.217   4.736   3.114 -0.1619  0.0654 -0.9457
 6797TIP3    H141806   3.293   4.720   3.171  0.9215  2.2566 -1.6500
 6797TIP3    H241807   3.154   4.669   3.139  0.8681 -0.0366  1.7364
 6798TIP3   OH241808   1.651   4.558  14.861  0.3508 -0.1016  0.0097
 6798TIP3    H141809   1.596   4.590  14.789 -1.2571 -0.5142  1.0054
 6798TIP3    H241810   1.722   4.622  14.867  1.9882 -1.3661 -3.5136
 6799TIP3   OH241811   4.309   5.104   4.586 -0.1194  0.0581 -0.5224
 6799TIP3    H141812   4.245   5.057   4.640 -0.0429  0.2374 -0.2738
 6799TIP3    H241813   4.373   5.037   4.562 -0.7676 -0.2747 -1.3503
 6800TIP3   OH241814   3.552   1.287   3.279 -0.3567  0.4205 -0.1264
 6800TIP3    H141815   3.628   1.284   3.337 -0.0156  1.2091 -0.5209
 6800TIP3    H241816   3.541   1.197   3.249 -1.4469 -0.3560  2.2852
 6801TIP3   OH241817   5.257   0.978   6.352  0.1898  0.8913  0.0916
 6801TIP3    H141818   5.180   1.014   6.395 -1.4811 -0.8366 -1.3089
 6801TIP3    H241819   5.265   0.889   6.386  1.3727  0.9115 -0.0735
 6802TIP3   OH241820   5.347   1.170   5.983 -0.4092  0.0057 -0.2662
 6802TIP3    H141821   5.427   1.196   5.938 -1.9644  3.1196 -1.5838
 6802TIP3    H241822   5.294   1.129   5.915 -1.2666  1.2172 -0.3617
 6803TIP3   OH241823   2.356   5.017   5.220 -0.1977 -1.0028  0.4091
 6803TIP3    H141824   2.343   5.090   5.159  1.9995 -1.2638 -0.4628
 6803TIP3    H241825   2.419   5.051   5.284 -0.9556 -1.3975  1.3931
 6804TIP3   OH241826   1.024   2.758   1.442 -0.2608  0.2258  0.6634
 6804TIP3    H141827   1.060   2.753   1.530  0.5758 -0.5736  0.2892
 6804TIP3    H241828   0.935   2.793   1.454  0.0384  0.6496  1.7542
 6805TIP3   OH241829   5.466   1.369  13.396  0.2079  0.3640  0.3480
 6805TIP3    H141830   5.414   1.427  13.340  1.5221  0.1615 -1.1534
 6805TIP3    H241831   5.459   1.407  13.483 -1.0523  1.2927 -0.1230
 6806TIP3   OH241832   4.341   4.446   5.277 -0.0455 -0.0653  0.0323
 6806TIP3    H141833   4.364   4.386   5.348  1.6525  0.0036 -0.4132
 6806TIP3    H241834   4.367   4.399   5.197 -2.1288 -0.2414 -0.6113
 6807TIP3   OH241835   5.221   0.700  13.155  0.3668 -0.1513 -0.1325
 6807TIP3    H141836   5.155   0.766  13.135  0.1283 -0.3618 -0.0526
 6807TIP3    H241837   5.297   0.725  13.103  0.3712  0.3386  0.1114
 6808TIP3   OH241838   1.048   2.245  16.834 -0.0154  0.4264 -0.5654
 6808TIP3    H141839   1.059   2.150  16.837  1.9143  0.5975 -0.8410
 6808TIP3    H241840   1.034   2.271  16.925  1.5193  0.0403 -0.1831
 6809TIP3   OH241841   2.510   1.791   2.240 -0.0219 -0.2019 -0.0745
 6809TIP3    H141842   2.585   1.811   2.296  0.4246 -2.9610  0.4836
 6809TIP3    H241843   2.444   1.758   2.300 -1.2586  1.0307 -0.7160
 6810TIP3   OH241844   4.355   4.302  16.097 -0.0157  0.2860  0.2458
 6810TIP3    H141845   4.438   4.254  16.096  0.6766  1.4493 -0.8875
 6810TIP3    H241846   4.377   4.387  16.135 -0.6015  0.7304 -0.3777
 6811TIP3   OH241847   0.725   0.571   0.476 -0.6270 -0.2429 -0.1349
 6811TIP3    H141848   0.773   0.499   0.434 -0.5226 -0.0205 -0.3940
 6811TIP3    H241849   0.793   0.633   0.502 -0.6879 -0.3921  0.3903
 6812TIP3   OH241850   3.834   2.899   5.009  0.1162 -0.1776 -0.5820
 6812TIP3    H141851   3.858   2.991   5.022  0.6797 -0.2675 -0.9229
 6812TIP3    H241852   3.888   2.851   5.072 -0.6236 -0.2307  0.0205
 6813TIP3   OH241853   2.374   5.489  16.080 -0.5287  0.3218 -0.2622
 6813TIP3    H141854   2.362   5.570  16.029  0.4615  0.8508  0.3173
 6813TIP3    H241855   2.459   5.500  16.122 -0.6318 -0.7980  0.2622
 6814TIP3   OH241856   1.055   4.667   4.163  0.4664 -0.0430  0.1042
 6814TIP3    H141857   0.995   4.639   4.093  0.7153  1.6521 -0.8465
 6814TIP3    H241858   1.127   4.709   4.117  1.0164  0.4234  1.3596
 6815TIP3   OH241859   3.406   1.259   6.116  0.4612 -0.0213  0.1481
 6815TIP3    H141860   3.370   1.226   6.198 -0.9113  1.4020  0.1797
 6815TIP3    H241861   3.412   1.354   6.128  0.0454  0.2521 -1.4324
 6816TIP3   OH241862   2.000   5.420   2.828  0.1898  0.6492  0.0710
 6816TIP3    H141863   2.063   5.493   2.832 -0.1402  0.9676 -0.4708
 6816TIP3    H241864   1.916   5.461   2.846 -0.1341  0.5864 -1.1993
 6817TIP3   OH241865   1.846   4.097   4.702 -0.0130  0.1549 -0.2880
 6817TIP3    H141866   1.762   4.090   4.746 -0.1299  0.4944 -0.4521
 6817TIP3    H241867   1.860   4.191   4.691  0.8238  0.1469  0.5594
 6818TIP3   OH241868   0.638   3.365  10.820  0.3290  0.5535 -0.4403
 6818TIP3    H141869   0.729   3.387  10.842  0.5470  0.9325 -1.6573
 6818TIP3    H241870   0.620   3.413  10.739 -1.2908  1.2846  0.3008
 6819TIP3   OH241871   1.320   3.760   0.292 -0.4560  0.1834  0.6408
 6819TIP3    H141872   1.347   3.721   0.375 -0.8274  1.8812  1.6068
 6819TIP3    H241873   1.396   3.812   0.264 -0.7179  0.4761  0.4691
 6820TIP3   OH241874   1.137   4.586  14.160  1.3827  0.3660 -0.6692
 6820TIP3    H141875   1.168   4.575  14.070 -0.3228  0.1431 -1.2595
 6820TIP3    H241876   1.060   4.643  14.152  1.3049  0.4862  0.6775
 6821TIP3   OH241877   0.088   1.886   2.374 -0.0760  0.5213 -0.5102
 6821TIP3    H141878   0.107   1.976   2.347 -0.5819  0.4032 -1.2779
 6821TIP3    H241879   0.125   1.879   2.462  1.7334  0.8737 -1.2036
 6822TIP3   OH241880   2.043   2.705   2.486  0.1358 -0.0146  0.1758
 6822TIP3    H141881   2.046   2.761   2.408  0.8024 -1.8208 -1.1674
 6822TIP3    H241882   2.120   2.731   2.537  0.0137  0.7941 -0.0274
 6823TIP3   OH241883   5.226   2.837   4.218  0.4336 -0.2578 -0.5904
 6823TIP3    H141884   5.256   2.918   4.178 -0.2898  0.9138  1.1523
 6823TIP3    H241885   5.132   2.849   4.231  0.8885  0.2550  3.1376
 6824TIP3   OH241886   1.718   4.416   1.150  0.3054 -0.3765 -0.0800
 6824TIP3    H141887   1.733   4.337   1.203  2.6606  0.8917  1.2882
 6824TIP3    H241888   1.733   4.387   1.060  1.0113 -1.5306  0.3832
 6825TIP3   OH241889   5.793   0.980  12.385  0.0953 -0.0284 -0.0831
 6825TIP3    H141890   5.826   0.898  12.421  0.0154 -1.0654 -2.2567
 6825TIP3    H241891   5.709   0.957  12.345 -1.0422  1.6105  1.2103
 6826TIP3   OH241892   5.876   6.430  12.299 -0.5279 -0.1031  0.2108
 6826TIP3    H141893   5.819   6.356  12.278 -1.5022  1.0185 -1.3378
 6826TIP3    H241894   5.829   6.479  12.366 -0.4903 -0.1936  0.3032
 6827TIP3   OH241895   4.682   1.669  17.137 -0.1224  0.6743  0.4374
 6827TIP3    H141896   4.614   1.666  17.070  0.0301  1.2887  0.2511
 6827TIP3    H241897   4.645   1.724  17.206 -0.1429  0.3266  0.7054
 6828TIP3   OH241898   0.385   0.629  13.676  0.7279  0.1110 -0.0873
 6828TIP3    H141899   0.463   0.601  13.630  1.3264  2.5341 -0.7032
 6828TIP3    H241900   0.381   0.724  13.662 -2.8999 -0.0069 -1.0194
 6829TIP3   OH241901   6.143   4.079   0.431  0.7674 -0.2421 -0.5295
 6829TIP3    H141902   6.201   4.128   0.490 -0.0003 -1.0709  0.9638
 6829TIP3    H241903   6.056   4.117   0.445  0.3940 -1.1497 -0.3346
 6830TIP3   OH241904   1.941   1.239   5.372 -0.2009  0.1970  0.2006
 6830TIP3    H141905   2.026   1.196   5.365 -0.6658 -0.9446  1.2200
 6830TIP3    H241906   1.877   1.168   5.368 -0.9364  0.5192  3.2418
 6831TIP3   OH241907   2.714   4.832   4.820  0.2841 -0.2151  0.5960
 6831TIP3    H141908   2.644   4.896   4.810  0.0631 -0.3606  1.1568
 6831TIP3    H241909   2.684   4.774   4.890  0.9336 -0.3179  0.8033
 6832TIP3   OH241910   6.516   3.247  17.285  0.1154  0.1825  0.1464
 6832TIP3    H141911   6.595   3.228  17.235  0.2616  0.1881  0.3720
 6832TIP3    H241912   6.471   3.163  17.293  0.1983  0.1413  0.1848
 6833TIP3   OH241913   3.796   6.121   0.373  0.1392 -0.3202  0.2943
 6833TIP3    H141914   3.795   6.060   0.299 -1.7080  0.6622 -0.5667
 6833TIP3    H241915   3.888   6.134   0.392  0.6291 -1.6663 -0.9313
 6834TIP3   OH241916   0.060   4.705  14.121 -0.2760 -0.1470  0.2732
 6834TIP3    H141917   0.104   4.658  14.050 -2.2110 -2.6603  0.5919
 6834TIP3    H241918   0.123   4.772  14.148  0.8775  0.4207 -3.2059
 6835TIP3   OH241919   0.883   6.379  15.665 -0.1972 -0.4373 -0.4215
 6835TIP3    H141920   0.849   6.391  15.576 -1.2905 -0.6000 -0.0375
 6835TIP3    H241921   0.841   6.298  15.695 -1.2707  0.5794  0.9009
 6836TIP3   OH241922   2.613   2.434   3.732  0.1832 -0.0859 -0.0914
 6836TIP3    H141923   2.569   2.510   3.770  0.3402  0.2618 -0.5891
 6836TIP3    H241924   2.586   2.360   3.786 -1.6513 -0.0069 -0.8274
 6837TIP3   OH241925   5.607   0.982   2.212  0.0414 -0.3928  0.1113
 6837TIP3    H141926   5.606   0.891   2.182 -0.0785 -0.8226  1.3739
 6837TIP3    H241927   5.514   1.007   2.217  0.0239 -0.5952  0.8944
 6838TIP3   OH241928   2.142   3.202  16.135  0.6552  0.0452  0.1319
 6838TIP3    H141929   2.125   3.161  16.050 -1.1451 -1.4248  1.1215
 6838TIP3    H241930   2.074   3.269  16.142  1.4289  0.8627  0.0205
 6839TIP3   OH241931   6.217   2.044  11.262 -0.5719 -0.3679 -0.0952
 6839TIP3    H141932   6.300   2.071  11.300 -0.3055 -0.4243 -0.6413
 6839TIP3    H241933   6.220   1.948  11.264 -0.5973 -0.3701 -0.1818
 6840TIP3   OH241934   2.154   2.052   0.251 -0.4484  0.0464  0.5707
 6840TIP3    H141935   2.144   2.089   0.339  0.3874  2.0724 -0.1392
 6840TIP3    H241936   2.072   2.075   0.207 -0.4790 -0.1635  0.5141
 6841TIP3   OH241937   5.019   0.464  14.264 -1.4930  0.1478  0.1409
 6841TIP3    H141938   5.039   0.406  14.190 -0.3375 -0.9056  1.2380
 6841TIP3    H241939   4.994   0.547  14.223 -1.2667 -0.5243 -1.4387
 6842TIP3   OH241940   6.697   0.480  11.635 -0.3204  0.0333  0.1412
 6842TIP3    H141941   6.676   0.395  11.674 -0.2641  0.6289  1.5262
 6842TIP3    H241942   6.656   0.478  11.549 -2.4174 -0.4625  1.1044
 6843TIP3   OH241943   0.428   4.778   3.488 -0.1300  0.0530  0.0847
 6843TIP3    H141944   0.345   4.754   3.446 -0.8286  0.6491  1.1018
 6843TIP3    H241945   0.412   4.863   3.527  1.2232  0.5496 -0.3748
 6844TIP3   OH241946   3.270   4.388   2.888 -0.2356 -0.0917  0.4758
 6844TIP3    H141947   3.277   4.478   2.859  2.0796 -0.8847 -1.7268
 6844TIP3    H241948   3.320   4.385   2.970  0.6804  0.3989 -0.0536
 6845TIP3   OH241949   0.032   3.913   3.529  0.4483 -0.1802 -0.2494
 6845TIP3    H141950  -0.061   3.937   3.522  0.2732 -0.0688  1.8669
 6845TIP3    H241951   0.040   3.836   3.472 -1.4030 -1.3417  0.9451
 6846TIP3   OH241952   3.438   5.352  13.473  0.4501 -0.1552  0.4826
 6846TIP3    H141953   3.379   5.382  13.404 -0.4932  1.9938  2.0714
 6846TIP3    H241954   3.522   5.392  13.451  0.9795 -1.9430 -0.9517
 6847TIP3   OH241955   4.976   0.695   3.956 -0.1860 -0.2609  0.4525
 6847TIP3    H141956   4.893   0.655   3.983  0.2625 -0.6515  1.2846
 6847TIP3    H241957   5.040   0.660   4.018  0.1564  2.1410  1.5419
 6848TIP3   OH241958   0.059   6.297   1.120 -0.4722  0.3448 -0.2767
 6848TIP3    H141959  -0.008   6.271   1.057 -0.6271  1.4605 -0.5995
 6848TIP3    H241960   0.065   6.223   1.181 -0.7779 -0.4761 -1.2169
 6849TIP3   OH241961   5.401   0.119  15.959 -0.5503 -0.3221 -0.3772
 6849TIP3    H141962   5.373   0.028  15.966 -2.1024  0.1421 -0.2623
 6849TIP3    H241963   5.321   0.170  15.968  0.4317  1.1089  0.7942
 6850TIP3   OH241964   2.427   4.138  16.157 -0.4218 -0.3655 -0.1720
 6850TIP3    H141965   2.396   4.229  16.151  1.2252  0.2360 -0.3319
 6850TIP3    H241966   2.477   4.136  16.239  1.9031 -0.3028 -1.5069
 6851TIP3   OH241967   6.318   3.741  16.339  0.9852 -0.0117  0.2761
 6851TIP3    H141968   6.324   3.818  16.283 -0.7988 -1.6061 -2.3590
 6851TIP3    H241969   6.396   3.689  16.318  0.8205 -0.1449 -0.0178
 6852TIP3   OH241970   5.579   5.727   3.093  0.2092 -0.4082  0.1869
 6852TIP3    H141971   5.654   5.785   3.102  2.2664 -2.6475 -1.2628
 6852TIP3    H241972   5.587   5.666   3.167 -0.4213 -0.4200  0.2519
 6853TIP3   OH241973   1.342   3.511  12.570 -0.7665 -0.5466  0.5412
 6853TIP3    H141974   1.255   3.472  12.567  0.0253 -2.3703 -1.0129
 6853TIP3    H241975   1.393   3.460  12.507  1.2136  1.0118  0.7832
 6854TIP3   OH241976   0.887   2.171  12.123  0.3818 -0.4211 -0.5235
 6854TIP3    H141977   0.877   2.077  12.135 -0.2657 -0.3025 -0.0753
 6854TIP3    H241978   0.858   2.188  12.034 -0.6707 -0.4928 -0.2113
 6855TIP3   OH241979   2.934   5.502   6.587  0.2839 -0.0932 -0.3073
 6855TIP3    H141980   2.966   5.549   6.510 -0.7052 -0.9137 -1.2357
 6855TIP3    H241981   2.972   5.415   6.580 -1.0434 -0.6698 -0.7355
 6856TIP3   OH241982   3.715   0.066   4.239  0.3617 -0.2779 -0.1689
 6856TIP3    H141983   3.721  -0.007   4.301 -0.6477 -1.0789 -0.9740
 6856TIP3    H241984   3.632   0.109   4.261  0.6985  0.3126 -0.0414
 6857TIP3   OH241985   0.098   4.521  15.701 -0.0289  0.5674 -0.2303
 6857TIP3    H141986   0.062   4.446  15.749  0.8019  0.8145  0.8251
 6857TIP3    H241987   0.124   4.484  15.616 -0.8628 -0.0407 -0.2350
 6858TIP3   OH241988   3.492   4.622  12.634 -0.8521  0.1956 -0.2651
 6858TIP3    H141989   3.525   4.634  12.723  1.5215 -0.9043 -0.8926
 6858TIP3    H241990   3.404   4.659  12.635 -0.2353  1.8190  2.0569
 6859TIP3   OH241991   5.355   1.747   1.832 -0.4928  0.0167 -0.4412
 6859TIP3    H141992   5.303   1.719   1.908  0.0232  1.8777  0.6676
 6859TIP3    H241993   5.430   1.688   1.832  0.1262  0.7161  1.2967
 6860TIP3   OH241994   2.464   4.996  12.846  0.0303  0.2173  0.2322
 6860TIP3    H141995   2.388   5.031  12.799 -0.7497 -0.3343  1.0561
 6860TIP3    H241996   2.485   4.915  12.799 -0.2835  0.0538  0.3669
 6861TIP3   OH241997   2.961   0.169   4.898 -0.0728  0.2710  0.0800
 6861TIP3    H141998   2.938   0.246   4.949  1.1831  0.7942 -0.1155
 6861TIP3    H241999   2.921   0.183   4.813  0.8134  1.0885 -0.2077
 6862TIP3   OH242000   6.384   4.579  13.750 -0.5096 -0.0812  0.4399
 6862TIP3    H142001   6.394   4.642  13.679 -0.6277 -0.9701 -0.3890
 6862TIP3    H242002   6.388   4.493  13.707 -1.3421 -0.6331  1.4025
 6863TIP3   OH242003   4.178   4.083  12.101  0.1296 -0.2470  0.1249
 6863TIP3    H142004   4.161   4.032  12.022  0.6607 -2.1485  1.1653
 6863TIP3    H242005   4.104   4.063  12.159 -0.8571  2.0182 -0.2462
 6864TIP3   OH242006   1.277   3.674  15.772  0.2251 -0.0630  0.1168
 6864TIP3    H142007   1.314   3.671  15.860  0.5492 -0.2805 -0.0202
 6864TIP3    H242008   1.183   3.660  15.784  0.1557  0.6827  0.4908
 6865TIP3   OH242009   3.656   0.315  16.808  0.4550 -0.4410  0.5819
 6865TIP3    H142010   3.574   0.290  16.852  0.3708 -0.3648  0.4666
 6865TIP3    H242011   3.659   0.259  16.731 -0.1429  0.4740 -0.1224
 6866TIP3   OH242012   6.224   0.372   5.182  0.7041  0.0442  0.2858
 6866TIP3    H142013   6.231   0.278   5.197  1.2953 -0.0077 -0.2470
 6866TIP3    H242014   6.302   0.394   5.130  0.1258  0.6691 -0.3473
 6867TIP3   OH242015   6.510   6.058   0.493 -0.1561 -0.0003  0.2996
 6867TIP3    H142016   6.501   6.097   0.406 -1.1193  1.4424  0.9963
 6867TIP3    H242017   6.563   6.120   0.542  0.2973 -0.7476  0.7759
 6868TIP3   OH242018   3.892   2.257  16.753 -0.4660  0.4935 -0.2439
 6868TIP3    H142019   3.877   2.267  16.659  0.3408 -3.3371 -0.9410
 6868TIP3    H242020   3.804   2.253  16.791 -0.7985  2.1007 -0.7823
 6869TIP3   OH242021   4.713   0.553  14.571  0.4049 -0.3776 -1.0274
 6869TIP3    H142022   4.719   0.559  14.476 -1.2944  0.3738 -1.1268
 6869TIP3    H242023   4.768   0.623  14.604  2.9825 -2.1282 -1.3258
 6870TIP3   OH242024   4.443   3.163  14.863  0.1494 -0.0402 -0.6823
 6870TIP3    H142025   4.387   3.207  14.927  0.2320 -1.1831  0.2002
 6870TIP3    H242026   4.386   3.099  14.821  0.1052  0.6715 -1.7518
 6871TIP3   OH242027   4.920   6.099   0.277  0.2567 -0.1559  0.2756
 6871TIP3    H142028   4.950   6.187   0.299 -0.5859  0.2633 -0.2224
 6871TIP3    H242029   4.859   6.076   0.347  0.1262 -0.1559  0.1631
 6872TIP3   OH242030   6.003   4.351   0.987  0.2074  0.0664 -0.2585
 6872TIP3    H142031   5.919   4.335   1.031  0.4091  1.4685  0.7287
 6872TIP3    H242032   6.014   4.446   0.992  2.3083 -0.1582  0.5050
 6873TIP3   OH242033   5.606   6.309  17.237  0.4501  0.5085  0.0810
 6873TIP3    H142034   5.560   6.392  17.251 -0.4579 -0.4384  3.6165
 6873TIP3    H242035   5.658   6.296  17.316  2.3900 -1.2639 -1.3531
 6874TIP3   OH242036   1.856   5.181   0.905  0.1434  0.2159  0.2498
 6874TIP3    H142037   1.837   5.202   0.813  0.7233  2.3822  0.5879
 6874TIP3    H242038   1.942   5.139   0.903 -0.1534 -0.3942 -0.2464
 6875TIP3   OH242039   0.903   0.401   0.015  0.8382 -0.2482 -0.0004
 6875TIP3    H142040   0.861   0.469  -0.037  0.9713  1.5865  2.1264
 6875TIP3    H242041   0.937   0.338  -0.049 -1.4011  0.3989 -1.9478
 6876TIP3   OH242042   6.107   4.166  16.575 -0.3805  0.2426  0.7783
 6876TIP3    H142043   6.150   4.080  16.575 -0.0005  0.4065 -0.7992
 6876TIP3    H242044   6.171   4.225  16.535 -1.4586  0.8028 -0.1761
 6877TIP3   OH242045   2.134   0.638   4.661  0.2467 -0.2933 -0.6299
 6877TIP3    H142046   2.049   0.682   4.668  1.2027  1.3987  1.2023
 6877TIP3    H242047   2.185   0.692   4.601  0.8157  0.0548  0.1628
 6878TIP3   OH242048   2.185   2.113   5.107 -0.4705 -0.1078 -0.1190
 6878TIP3    H142049   2.261   2.063   5.077  0.5492  1.5224 -0.3926
 6878TIP3    H242050   2.114   2.049   5.111  0.6658 -1.4723 -0.8463
 6879TIP3   OH242051   1.184   3.778   1.892 -0.1622  0.1911  0.3287
 6879TIP3    H142052   1.199   3.764   1.985  0.0428 -0.2138  0.2386
 6879TIP3    H242053   1.225   3.702   1.850  0.8418  0.9742 -0.1704
 6880TIP3   OH242054   2.830   2.564   0.793 -0.3444 -0.1217  0.2840
 6880TIP3    H142055   2.737   2.547   0.776 -0.4149  0.5131  0.0045
 6880TIP3    H242056   2.856   2.623   0.722  0.2429 -0.2104  0.4271
 6881TIP3   OH242057   0.466   0.465   3.094 -0.5215 -0.7736 -0.3104
 6881TIP3    H142058   0.536   0.530   3.090  0.0223 -1.4011 -1.1701
 6881TIP3    H242059   0.452   0.451   3.188 -0.0447 -0.0745 -0.1235
 6882TIP3   OH242060   1.499   4.279  12.008  0.3286 -0.2983 -0.0982
 6882TIP3    H142061   1.506   4.292  12.102  0.5260  0.0157 -0.1535
 6882TIP3    H242062   1.418   4.323  11.983  1.1535  1.1552 -0.3324
 6883TIP3   OH242063   3.945   5.630   3.103 -0.0529 -0.1350  0.3112
 6883TIP3    H142064   3.917   5.694   3.169 -0.5997  0.9205 -0.9112
 6883TIP3    H242065   3.866   5.579   3.084 -0.5405  1.1215 -1.2203
 6884TIP3   OH242066   6.292   6.204  15.875  0.6329 -0.1381  0.1211
 6884TIP3    H142067   6.352   6.278  15.888 -1.4551  1.6498  0.0793
 6884TIP3    H242068   6.209   6.245  15.851 -0.7420 -2.5019  0.6273
 6885TIP3   OH242069   0.712   4.533   0.526 -0.0821 -0.5960  0.0100
 6885TIP3    H142070   0.774   4.584   0.578  0.5999  0.1798 -1.5072
 6885TIP3    H242071   0.669   4.476   0.589 -1.3302  2.2483  1.9114
 6886TIP3   OH242072   5.129   5.576  11.710 -0.1624  0.2181  0.3308
 6886TIP3    H142073   5.208   5.558  11.762  1.4392  0.7646 -1.7767
 6886TIP3    H242074   5.104   5.491  11.674 -0.1583  0.1504  0.4862
 6887TIP3   OH242075   3.255   4.771  12.694 -0.4674 -0.3198 -0.1588
 6887TIP3    H142076   3.173   4.789  12.650  0.2794  1.6393 -0.8889
 6887TIP3    H242077   3.292   4.858  12.712  0.2715 -1.0896  2.4110
 6888TIP3   OH242078   5.027   5.532   0.658  0.1939  0.0156  0.0267
 6888TIP3    H142079   5.096   5.529   0.591 -0.9020 -0.8223 -1.1117
 6888TIP3    H242080   5.069   5.575   0.733  1.7305  0.1849 -0.8730
 6889TIP3   OH242081   1.657   0.370  15.005  0.4991  0.5852  0.5181
 6889TIP3    H142082   1.713   0.411  15.071  1.0659 -0.9774  1.0557
 6889TIP3    H242083   1.589   0.326  15.056  1.1562 -0.9566  0.1205
 6890TIP3   OH242084   1.037   5.654  17.330  0.3291 -0.2292  0.0875
 6890TIP3    H142085   1.058   5.600  17.254  0.7323  0.4087 -0.2626
 6890TIP3    H242086   0.996   5.732  17.293  1.4573  0.5490  0.4388
 6891TIP3   OH242087   3.684   4.323  12.300 -0.3678 -0.1242 -0.1194
 6891TIP3    H142088   3.659   4.252  12.360 -2.1940  1.0302  0.5447
 6891TIP3    H242089   3.717   4.392  12.357 -0.5692  0.3619 -0.5904
 6892TIP3   OH242090   3.868   4.634   0.795  0.0394  0.1206  0.2395
 6892TIP3    H142091   3.775   4.617   0.811 -0.0558  1.1089  0.8326
 6892TIP3    H242092   3.906   4.547   0.782 -1.1251 -0.2381 -0.9760
 6893TIP3   OH242093   4.492   0.783   3.672 -0.3474 -0.2341 -0.1226
 6893TIP3    H142094   4.542   0.707   3.642  2.3730  1.3409  0.0884
 6893TIP3    H242095   4.510   0.787   3.766 -0.2766  0.7715 -0.1733
 6894TIP3   OH242096   0.252   2.073  13.985 -0.6671  0.1509  0.4164
 6894TIP3    H142097   0.225   2.165  13.989  0.3571  0.4491  0.7889
 6894TIP3    H242098   0.347   2.076  13.981 -0.6721 -0.8188 -2.1870
 6895TIP3   OH242099   0.024   5.940   0.534 -1.1413 -0.2473  0.2824
 6895TIP3    H142100  -0.071   5.927   0.526 -0.9509 -0.4669 -2.7604
 6895TIP3    H242101   0.044   6.007   0.469  0.5768  1.3510  2.3335
 6896TIP3   OH242102   4.667   6.222   1.842  0.2571 -0.2777  0.5038
 6896TIP3    H142103   4.698   6.298   1.793  1.5064  0.0793  1.8005
 6896TIP3    H242104   4.571   6.229   1.838  0.3363  0.3120 -0.9614
 6897TIP3   OH242105   5.866   0.783   5.821  0.1283  0.3500 -0.3546
 6897TIP3    H142106   5.846   0.707   5.767  0.8150 -0.8788  1.0499
 6897TIP3    H242107   5.961   0.784   5.827  0.1923  1.8559 -1.0393
 6898TIP3   OH242108   4.701   6.332   5.392 -0.6579 -0.8559 -0.6425
 6898TIP3    H142109   4.677   6.355   5.482  2.3537  0.0427  0.0403
 6898TIP3    H242110   4.740   6.244   5.400  1.2246 -0.0736 -0.6872
 6899TIP3   OH242111   3.183   5.667   2.649  0.0787 -0.0818 -0.6161
 6899TIP3    H142112   3.090   5.669   2.671  0.5651  0.0580  1.7491
 6899TIP3    H242113   3.202   5.755   2.617 -0.2969  0.4509  0.5562
 6900TIP3   OH242114   4.597   2.138   3.958  0.5791 -0.3512 -0.1073
 6900TIP3    H142115   4.629   2.158   4.046  2.3756  0.5879 -0.9134
 6900TIP3    H242116   4.524   2.198   3.945  1.7279  1.0983 -0.0589
 6901TIP3   OH242117   1.487   4.613  15.309 -0.3978 -0.1219  0.6194
 6901TIP3    H142118   1.408   4.636  15.358  0.1729  0.3399  1.3569
 6901TIP3    H242119   1.530   4.697  15.292  0.0834 -0.3857  0.4972
 6902TIP3   OH242120   4.471   4.471  11.966  0.4193  0.2632  0.2752
 6902TIP3    H142121   4.494   4.439  11.879 -0.3020  2.4325 -0.7886
 6902TIP3    H242122   4.550   4.515  11.998  0.9228 -1.1495  1.0931
 6903TIP3   OH242123   2.198   6.013  13.841 -0.3521 -0.4258 -0.4863
 6903TIP3    H142124   2.217   6.053  13.756 -0.1798  1.9296  0.5924
 6903TIP3    H242125   2.284   6.003  13.883 -0.4561 -1.3623 -0.4844
 6904TIP3   OH242126   3.975   3.145  12.534  0.2304 -0.3247  0.2428
 6904TIP3    H142127   4.002   3.210  12.469 -0.3991 -0.0726  0.2322
 6904TIP3    H242128   4.005   3.180  12.618 -0.3801  0.1387  0.2757
 6905TIP3   OH242129   4.701   6.551  11.331  0.1509  0.0951  0.0451
 6905TIP3    H142130   4.705   6.544  11.426 -2.6304  1.0432  0.2972
 6905TIP3    H242131   4.751   6.630  11.311  4.4014 -2.2376  0.1509
 6906TIP3   OH242132   3.423   2.656   0.616 -0.7169 -0.4144 -0.1512
 6906TIP3    H142133   3.428   2.722   0.685 -1.2121  0.0281 -0.5306
 6906TIP3    H242134   3.444   2.703   0.536  0.5310 -1.0706 -0.2301
 6907TIP3   OH242135   0.698   4.097  13.651  0.3925  0.0479 -0.3579
 6907TIP3    H142136   0.706   4.192  13.643  3.0018 -0.1735 -1.3895
 6907TIP3    H242137   0.683   4.081  13.744 -0.8967  1.4557 -0.2834
 6908TIP3   OH242138   4.366   1.242   3.088  0.0038 -0.1561 -0.4269
 6908TIP3    H142139   4.287   1.222   3.137 -0.3657  0.1460 -0.8966
 6908TIP3    H242140   4.353   1.202   3.002 -0.4359  1.4244 -1.1256
 6909TIP3   OH242141   4.213   1.587  13.499 -0.1904 -0.9701 -0.0524
 6909TIP3    H142142   4.169   1.619  13.420  1.8927  1.2053 -0.4803
 6909TIP3    H242143   4.148   1.596  13.568 -1.0587  0.1801 -0.9732
 6910TIP3   OH242144   1.590   3.107  14.232  0.1661  0.3909 -0.1630
 6910TIP3    H142145   1.639   3.119  14.150 -0.9686 -0.3173 -0.9713
 6910TIP3    H242146   1.519   3.047  14.209 -0.0474  0.0097  1.4045
 6911TIP3   OH242147   4.129   2.736   6.516 -0.0578  0.2972  0.8382
 6911TIP3    H142148   4.207   2.713   6.567 -0.2651 -0.0146  1.0210
 6911TIP3    H242149   4.067   2.770   6.581  0.2466  1.4044  0.5733
 6912TIP3   OH242150   0.391   0.163   1.367  0.7484 -0.2881  0.3167
 6912TIP3    H142151   0.371   0.090   1.308  1.3731 -0.8492  0.7901
 6912TIP3    H242152   0.458   0.213   1.321 -0.9577  1.0507 -0.8365
 6913TIP3   OH242153   6.389   1.297  16.098 -0.2535 -0.2474 -0.2940
 6913TIP3    H142154   6.364   1.386  16.123  2.5923  0.9212 -1.1714
 6913TIP3    H242155   6.368   1.243  16.174 -0.4949  1.4872  0.9233
 6914TIP3   OH242156   6.469   0.033   4.840  0.3971 -1.0368 -0.7572
 6914TIP3    H142157   6.506   0.017   4.753 -0.6332  0.1170 -1.4464
 6914TIP3    H242158   6.421  -0.047   4.861  1.2125 -1.5823 -0.9509
 6915TIP3   OH242159   4.080   0.304   0.214 -0.3231 -0.3143 -0.0023
 6915TIP3    H142160   4.019   0.243   0.256  0.4688 -0.8925  0.3386
 6915TIP3    H242161   4.048   0.312   0.124 -1.8834  0.7238  0.6001
 6916TIP3   OH242162   4.312   4.559   1.899  0.1804  0.0117 -0.0599
 6916TIP3    H142163   4.330   4.615   1.823 -0.3366 -0.4447 -0.5285
 6916TIP3    H242164   4.226   4.588   1.930 -0.7847 -1.4656 -1.2066
 6917TIP3   OH242165   1.769   5.422  11.649  0.2483  0.2981  0.1677
 6917TIP3    H142166   1.769   5.381  11.736 -0.7315 -1.1935 -0.4931
 6917TIP3    H242167   1.728   5.507  11.662 -1.3291 -0.5385  0.9243
 6918TIP3   OH242168   1.458   1.180   1.977 -0.1929  0.8876  0.1276
 6918TIP3    H142169   1.485   1.138   1.895 -0.9530  0.1159  0.2526
 6918TIP3    H242170   1.365   1.198   1.965 -0.7706 -0.9134  1.4636
 6919TIP3   OH242171   3.169   0.326  15.297 -0.1544  0.4935 -0.2063
 6919TIP3    H142172   3.198   0.414  15.320 -0.0713 -0.1853  2.6302
 6919TIP3    H242173   3.089   0.312  15.348 -0.1319 -1.1216 -0.5346
 6920TIP3   OH242174   2.848   0.421  13.355  0.1391  0.2791  0.4722
 6920TIP3    H142175   2.856   0.513  13.381  2.0859  1.0145 -2.3082
 6920TIP3    H242176   2.785   0.421  13.283  0.3168 -0.5257  0.3006
 6921TIP3   OH242177   5.740   0.741  16.579 -0.2727  0.1405  0.3609
 6921TIP3    H142178   5.784   0.657  16.593  0.8024  0.2987 -1.7108
 6921TIP3    H242179   5.670   0.721  16.518  1.3764  1.0398 -1.9725
 6922TIP3   OH242180   0.231   2.869  16.308 -0.5474 -0.2412 -0.0105
 6922TIP3    H142181   0.154   2.921  16.286 -0.6770 -0.2841  0.3307
 6922TIP3    H242182   0.200   2.808  16.375 -0.2485 -0.3477  0.0326
 6923TIP3   OH242183   1.059   3.827  16.356  0.4561 -0.6478 -0.0150
 6923TIP3    H142184   1.011   3.828  16.439 -0.1438 -0.8357 -0.3525
 6923TIP3    H242185   1.045   3.914  16.319  1.2127 -0.3611  0.3466
 6924TIP3   OH242186   6.434   0.069  16.495 -0.0265 -0.2173  0.4824
 6924TIP3    H142187   6.372   0.037  16.429  0.5761 -2.6446  0.9964
 6924TIP3    H242188   6.517   0.077  16.449 -0.3155  1.4166  0.1909
 6925TIP3   OH242189   3.947   4.587   1.332  0.1193  0.0680  0.3146
 6925TIP3    H142190   4.009   4.531   1.286 -0.5181 -0.7685  0.4578
 6925TIP3    H242191   3.889   4.620   1.263 -0.6614 -0.9590  0.4708
 6926TIP3   OH242192   3.237   0.489  14.914  0.2420 -0.1048 -0.5324
 6926TIP3    H142193   3.279   0.565  14.873  1.1969 -1.0838 -1.4541
 6926TIP3    H242194   3.219   0.430  14.841 -0.8964 -0.5838  0.1126
 6927TIP3   OH242195   4.246   1.506   3.496  0.0544  0.5167 -0.0729
 6927TIP3    H142196   4.222   1.566   3.567  0.0627  0.3087  0.1077
 6927TIP3    H242197   4.331   1.471   3.522  0.3271  0.8731 -0.4672
 6928TIP3   OH242198   4.155   4.625  15.516 -0.4193 -0.6068 -0.7512
 6928TIP3    H142199   4.155   4.591  15.427  2.8856 -1.7400 -0.4537
 6928TIP3    H242200   4.147   4.720  15.506 -0.2214 -0.7286 -2.2660
 6929TIP3   OH242201   4.579   2.426   6.383 -0.4003 -0.1274  0.0618
 6929TIP3    H142202   4.546   2.372   6.455 -0.5293  0.0602  0.1441
 6929TIP3    H242203   4.673   2.407   6.379 -0.6884 -1.5369 -0.9058
 6930TIP3   OH242204   5.326   0.687   1.113  0.3757 -0.1471  0.1172
 6930TIP3    H142205   5.386   0.613   1.117 -2.8944 -3.1384 -1.4399
 6930TIP3    H242206   5.257   0.665   1.176 -0.5995  1.7078 -0.2320
 6931TIP3   OH242207   0.383   0.689   1.004 -0.3774 -0.1808  0.6658
 6931TIP3    H142208   0.390   0.752   0.932 -2.1462 -1.3419 -0.6204
 6931TIP3    H242209   0.461   0.634   0.994 -0.5346 -0.2545 -0.3082
 6932TIP3   OH242210   0.846   5.519  11.541  0.3742 -0.7698  0.2410
 6932TIP3    H142211   0.800   5.436  11.553  0.5222 -1.4496 -3.0845
 6932TIP3    H242212   0.781   5.577  11.502  0.9881 -0.1088  0.1831
 6933TIP3   OH242213   5.193   5.773  10.855  0.6417 -0.0483  0.1867
 6933TIP3    H142214   5.218   5.801  10.767  0.8198 -1.2946 -0.1646
 6933TIP3    H242215   5.105   5.809  10.867  0.6940  0.2928 -0.4081
 6934TIP3   OH242216   5.547   5.883  17.109 -0.3921  0.4433 -0.6007
 6934TIP3    H142217   5.610   5.825  17.152  1.5243  1.9901 -1.2081
 6934TIP3    H242218   5.465   5.867  17.156  0.5166 -1.3443  0.4958
 6935TIP3   OH242219   6.035   5.410   2.457 -0.0824  0.3572  0.2293
 6935TIP3    H142220   6.049   5.479   2.523 -0.3963  0.9678 -0.3274
 6935TIP3    H242221   6.097   5.342   2.480 -1.2601 -0.1749  2.1591
 6936TIP3   OH242222   3.780   6.143  15.422 -0.1232  0.6076 -0.1828
 6936TIP3    H142223   3.801   6.219  15.367 -0.3917  0.7983 -0.0182
 6936TIP3    H242224   3.685   6.137  15.422 -0.3387  2.3522  2.5959
 6937TIP3   OH242225   3.460   5.085  14.233 -0.3209 -0.4797 -0.1113
 6937TIP3    H142226   3.492   5.149  14.170 -0.7382  0.5135  0.6668
 6937TIP3    H242227   3.366   5.081  14.218 -0.4810  0.0331  0.6583
 6938TIP3   OH242228   5.749   1.219   0.035  0.1997 -0.3082 -0.4508
 6938TIP3    H142229   5.826   1.212   0.091 -0.7158 -2.4728  0.6382
 6938TIP3    H242230   5.721   1.129   0.020 -1.9467  0.3879 -1.0876
 6939TIP3   OH242231   6.478   3.090   1.548 -0.6015  0.1994 -0.2939
 6939TIP3    H142232   6.457   3.183   1.534 -0.9791 -0.0513 -1.5155
 6939TIP3    H242233   6.393   3.047   1.555 -0.4276 -0.1028 -0.0469
 6940TIP3   OH242234   1.359   6.215  11.356 -0.2275 -0.8070 -0.1948
 6940TIP3    H142235   1.389   6.255  11.274 -0.0821 -1.9525 -0.7165
 6940TIP3    H242236   1.391   6.125  11.352  0.1885 -0.7541  1.3456
 6941TIP3   OH242237   3.199   0.729  16.464 -0.0522  0.2280  0.3264
 6941TIP3    H142238   3.275   0.682  16.429 -0.8050 -0.2623 -0.6964
 6941TIP3    H242239   3.237   0.796  16.521  1.1544 -0.0042 -0.1618
 6942TIP3   OH242240   2.692   2.760   4.525 -0.6546  0.0229 -0.2140
 6942TIP3    H142241   2.717   2.852   4.534  0.9229 -0.3838 -0.2023
 6942TIP3    H242242   2.662   2.752   4.434  1.0032  0.1649 -0.8062
 6943TIP3   OH242243   3.519   3.290   5.161 -0.3975  0.0660  0.0213
 6943TIP3    H142244   3.497   3.348   5.089 -1.7971 -0.0848  0.3036
 6943TIP3    H242245   3.612   3.271   5.149 -0.5818  0.0983 -1.6899
 6944TIP3   OH242246   5.973   2.175   2.749  0.2360  0.1057  0.2699
 6944TIP3    H142247   6.026   2.220   2.683 -0.5632 -0.8004 -1.0349
 6944TIP3    H242248   5.884   2.178   2.715  0.0624 -1.9046  0.4047
 6945TIP3   OH242249   4.433   0.404  13.131  0.3671 -0.1742 -0.0991
 6945TIP3    H142250   4.475   0.322  13.157 -0.8832 -1.1680 -1.0491
 6945TIP3    H242251   4.456   0.414  13.039 -0.1705  0.0755 -0.2127
 6946TIP3   OH242252   2.889   2.387  12.020 -0.4696  0.4926 -0.1460
 6946TIP3    H142253   2.949   2.423  11.954  1.3837 -2.0791 -0.0115
 6946TIP3    H242254   2.934   2.402  12.103 -0.5622 -0.3999  0.0765
 6947TIP3   OH242255   1.169   2.728  15.849  1.0006 -0.5597  0.5711
 6947TIP3    H142256   1.088   2.774  15.827  0.9760 -0.7181  0.3258
 6947TIP3    H242257   1.159   2.705  15.941  1.3469  0.6190  0.9278
 6948TIP3   OH242258   1.337   0.636  10.918  0.2201 -0.4855 -0.6951
 6948TIP3    H142259   1.431   0.619  10.915  0.3567  0.2825 -0.9946
 6948TIP3    H242260   1.330   0.732  10.923 -0.5571 -0.5011 -1.3189
 6949TIP3   OH242261   2.778   5.723   5.978 -0.3415  0.0094 -0.2937
 6949TIP3    H142262   2.718   5.676   5.921  0.4962 -0.2913 -0.9596
 6949TIP3    H242263   2.776   5.813   5.946 -1.4769  0.3084  0.5826
 6950TIP3   OH242264   0.269   4.798  16.296  0.0518  0.1644 -0.7872
 6950TIP3    H142265   0.180   4.820  16.268 -0.3305  0.0570  0.3215
 6950TIP3    H242266   0.299   4.732  16.232 -0.4568  0.5869 -1.4716
 6951TIP3   OH242267   6.470   1.389  14.144 -0.4748  0.1821  0.2985
 6951TIP3    H142268   6.482   1.416  14.053 -1.2579 -0.3624  0.0253
 6951TIP3    H242269   6.380   1.416  14.165 -0.5665 -0.3990  0.6604
 6952TIP3   OH242270   1.039   3.002  14.442 -0.2664 -0.2864  0.2751
 6952TIP3    H142271   1.015   3.072  14.502 -0.1366 -0.0596  0.0635
 6952TIP3    H242272   1.012   3.034  14.356 -0.9500 -0.8359  0.2733
 6953TIP3   OH242273   4.324   6.280  17.079  0.0263 -0.0907  0.1259
 6953TIP3    H142274   4.254   6.334  17.115 -0.4829 -0.8510  0.2958
 6953TIP3    H242275   4.398   6.295  17.139 -0.4903 -0.5250  0.8925
 6954TIP3   OH242276   1.649   0.574  14.390 -0.1004 -0.2610 -0.1313
 6954TIP3    H142277   1.582   0.634  14.423  0.1183 -0.3181  0.4244
 6954TIP3    H242278   1.732   0.617  14.411  0.0806 -1.1261  1.0028
 6955TIP3   OH242279   5.204   3.983  15.009 -0.3489 -0.1688  0.0251
 6955TIP3    H142280   5.149   4.018  15.079 -1.4634 -0.2349 -0.7903
 6955TIP3    H242281   5.292   4.016  15.029 -1.1384  2.2113 -0.0947
 6956TIP3   OH242282   3.560   3.667  11.421  0.1273  0.0476 -0.4009
 6956TIP3    H142283   3.546   3.576  11.445 -0.3490  0.0734 -0.5807
 6956TIP3    H242284   3.540   3.717  11.500  2.7724 -0.1416  0.4999
 6957TIP3   OH242285   3.606   0.135  13.005  0.7837 -0.1182 -0.4193
 6957TIP3    H142286   3.524   0.085  12.998 -0.1204  1.5179 -2.6109
 6957TIP3    H242287   3.652   0.094  13.078 -0.3145 -3.5202 -1.4206
 6958TIP3   OH242288   3.213   6.475  13.024  0.0963 -0.3169 -0.0466
 6958TIP3    H142289   3.154   6.507  12.956 -0.2912  0.4290  0.6255
 6958TIP3    H242290   3.212   6.380  13.013 -1.5989 -0.3631  0.2274
 6959TIP3   OH242291   5.425   3.948   0.077 -0.0481  0.1861 -0.3921
 6959TIP3    H142292   5.508   3.933   0.033 -0.8461 -0.3966 -1.7519
 6959TIP3    H242293   5.371   3.872   0.053 -1.0953  0.7272  0.1796
 6960TIP3   OH242294   5.963   0.017  13.360 -0.4901  0.2006  0.3316
 6960TIP3    H142295   5.873   0.035  13.385 -0.5747  0.5092 -0.1974
 6960TIP3    H242296   5.956  -0.040  13.283 -0.2279 -1.2802  1.3643
 6961TIP3   OH242297   2.910   3.327   2.066  0.4499  0.4648  0.9156
 6961TIP3    H142298   2.835   3.384   2.051  1.6649  2.5251  2.1165
 6961TIP3    H242299   2.888   3.246   2.021 -0.3003  2.6952 -3.2150
 6962TIP3   OH242300   1.360   5.443  14.826  0.2758  0.0762 -0.0335
 6962TIP3    H142301   1.333   5.527  14.789 -0.7373  0.2733  1.1204
 6962TIP3    H242302   1.279   5.399  14.851  0.9054  0.1685  2.3992
 6963TIP3   OH242303   3.331   1.092  13.311  0.1079 -0.1484 -0.4573
 6963TIP3    H142304   3.266   1.158  13.336  0.8142  1.2308 -2.0253
 6963TIP3    H242305   3.410   1.118  13.359  0.0120 -0.7314  0.0271
 6964TIP3   OH242306   5.100   0.329   4.991  0.3336 -0.3824  0.1446
 6964TIP3    H142307   5.161   0.395   4.959  0.2028 -0.1831  0.3089
 6964TIP3    H242308   5.021   0.378   5.014 -0.3978 -0.7807 -1.3355
 6965TIP3   OH242309   1.013   0.292  14.638  0.2630  0.5922 -1.0171
 6965TIP3    H142310   1.011   0.354  14.564  1.1473  1.1545 -0.5884
 6965TIP3    H242311   1.105   0.288  14.663  0.1845 -0.7062 -0.8528
 6966TIP3   OH242312   2.256   6.007   6.409  0.0520  0.0499 -0.3369
 6966TIP3    H142313   2.334   5.979   6.361  0.7847  0.5951  0.4969
 6966TIP3    H242314   2.272   6.099   6.429 -0.8356  0.1801 -0.1999
 6967TIP3   OH242315   4.678   2.622  11.882  0.0250 -0.2711 -0.5156
 6967TIP3    H142316   4.610   2.555  11.874  0.6768 -0.8804 -1.1505
 6967TIP3    H242317   4.637   2.702  11.850 -0.4543 -0.5883 -0.7111
 6968TIP3   OH242318   4.069   0.371   4.737 -0.3851 -0.6919 -0.2078
 6968TIP3    H142319   4.112   0.293   4.773 -3.0443 -2.2408 -0.1597
 6968TIP3    H242320   4.068   0.356   4.643  1.3896  0.6075 -0.4915
 6969TIP3   OH242321   0.915   3.243   0.819  0.8349 -0.0007  0.5943
 6969TIP3    H142322   0.913   3.156   0.778 -2.7041  0.3050 -0.2186
 6969TIP3    H242323   0.940   3.302   0.748  2.5967 -0.2335  0.9849
 6970TIP3   OH242324   4.391   3.495  13.758 -0.5169  0.1927 -0.5683
 6970TIP3    H142325   4.379   3.492  13.663 -0.1894  0.3263 -0.6155
 6970TIP3    H242326   4.454   3.566  13.771 -1.2299  0.7644 -0.1857
 6971TIP3   OH242327   3.755   0.264   3.316 -0.4126  0.1633 -0.2160
 6971TIP3    H142328   3.828   0.240   3.259  0.8163  0.5875  1.0955
 6971TIP3    H242329   3.717   0.342   3.275 -0.2222 -0.1386 -0.9879
 6972TIP3   OH242330   4.453   0.796  11.517 -0.2933  0.0190  0.2281
 6972TIP3    H142331   4.448   0.847  11.436 -0.4238 -1.4215 -0.7031
 6972TIP3    H242332   4.371   0.748  11.520 -1.0048  1.2330  2.0764
 6973TIP3   OH242333   6.568   2.606  15.768 -0.1393 -0.2653 -0.0381
 6973TIP3    H142334   6.529   2.603  15.681 -0.1107 -1.4697 -0.0383
 6973TIP3    H242335   6.662   2.607  15.752 -0.0651 -2.4419 -0.0648
 6974TIP3   OH242336   5.718   3.910  11.311 -0.2571  0.2555  0.5956
 6974TIP3    H142337   5.670   3.828  11.309  0.4130 -0.1303 -0.5630
 6974TIP3    H242338   5.792   3.896  11.252 -0.6220  1.9798 -0.3367
 6975TIP3   OH242339   4.854   1.875   3.882  0.2533 -0.2427 -0.8360
 6975TIP3    H142340   4.839   1.909   3.970  0.0250 -2.2922 -0.0320
 6975TIP3    H242341   4.932   1.921   3.852  2.1822 -1.5903  1.6734
 6976TIP3   OH242342   5.437   5.980  13.784  0.4825 -0.0950 -0.4146
 6976TIP3    H142343   5.440   6.075  13.774  1.5825 -0.1351 -0.6477
 6976TIP3    H242344   5.374   5.950  13.718 -1.1589  0.5798  0.7748
 6977TIP3   OH242345   5.273   5.540  14.048  0.0689  0.0325 -0.0925
 6977TIP3    H142346   5.323   5.476  13.998  0.7123 -0.5807  1.2683
 6977TIP3    H242347   5.321   5.622  14.036  0.2501 -0.1184 -0.4150
 6978TIP3   OH242348   3.261   4.767   4.423 -0.3961  0.1967  0.4840
 6978TIP3    H142349   3.286   4.675   4.410  0.7106  0.3682  1.2436
 6978TIP3    H242350   3.286   4.810   4.341 -1.2652 -0.2329 -0.0209
 6979TIP3   OH242351   0.617   0.063  14.961 -1.0105  0.0870  0.0487
 6979TIP3    H142352   0.663   0.102  15.035  0.3682 -1.2465 -0.0516
 6979TIP3    H242353   0.566  -0.009  14.999  1.5174 -2.1232 -0.4825
 6980TIP3   OH242354   2.274   4.907   5.507 -0.8778 -0.2083  0.1674
 6980TIP3    H142355   2.347   4.845   5.502 -0.6880  0.0358 -0.0946
 6980TIP3    H242356   2.267   4.943   5.419 -1.1754 -0.0726  0.2471
 6981TIP3   OH242357   3.616   1.538   0.450 -0.6848  0.6709 -0.5424
 6981TIP3    H142358   3.601   1.447   0.478  0.6541  0.8024  0.7024
 6981TIP3    H242359   3.563   1.590   0.510 -2.5358  0.6979 -2.1092
 6982TIP3   OH242360   6.650   3.174  16.016 -0.4087 -0.0397 -0.6293
 6982TIP3    H142361   6.651   3.082  15.989  0.3452 -0.0875 -0.4828
 6982TIP3    H242362   6.643   3.170  16.112  0.0471  0.0391 -0.5902
 6983TIP3   OH242363   5.295   4.469   4.754 -0.1395  0.0251 -0.5864
 6983TIP3    H142364   5.371   4.513   4.792 -0.5258 -0.2914  0.6041
 6983TIP3    H242365   5.289   4.505   4.665  0.2346  1.5075 -0.0471
 6984TIP3   OH242366   6.205   2.965  14.930 -0.1973 -0.2318 -0.2818
 6984TIP3    H142367   6.179   3.057  14.934  0.7057  0.0445 -0.3257
 6984TIP3    H242368   6.173   2.934  14.846  0.1335  0.2641 -0.5953
 6985TIP3   OH242369   3.299   3.310   4.899  0.0732  0.0865 -0.0028
 6985TIP3    H142370   3.259   3.242   4.845 -0.9429  3.0060 -3.2893
 6985TIP3    H242371   3.341   3.369   4.837  0.5279  2.7515  2.5957
 6986TIP3   OH242372   4.800   2.387   2.961 -0.8054 -0.5124  0.1723
 6986TIP3    H142373   4.752   2.429   2.889 -0.0350 -1.2067 -0.7794
 6986TIP3    H242374   4.745   2.314   2.987  0.2449 -2.1167 -1.8148
 6987TIP3   OH242375   5.112   0.843   1.960  0.2266 -0.0181  0.0207
 6987TIP3    H142376   5.122   0.749   1.977  1.8237  0.4704  2.2556
 6987TIP3    H242377   5.162   0.858   1.880 -1.4642 -1.2972 -1.3506
 6988TIP3   OH242378   0.144   6.418   4.504  0.3195 -0.2843  0.7110
 6988TIP3    H142379   0.232   6.446   4.530  0.5473  1.4949 -1.6726
 6988TIP3    H242380   0.100   6.396   4.586  2.7318 -0.5284  2.0144
 6989TIP3   OH242381   5.744   5.864   5.161 -0.1115  0.5900  0.4124
 6989TIP3    H142382   5.718   5.944   5.114  0.3990  1.0261  0.8628
 6989TIP3    H242383   5.839   5.864   5.158 -0.1235 -0.3195 -0.0923
 6990TIP3   OH242384   2.089   4.179   2.478  0.3150 -0.3002  0.2732
 6990TIP3    H142385   2.009   4.206   2.434  0.6174  0.7512  0.3361
 6990TIP3    H242386   2.154   4.171   2.408  0.4881  0.1659  0.3787
 6991TIP3   OH242387   4.449   0.435   5.873  0.2660  0.4030  0.3433
 6991TIP3    H142388   4.503   0.493   5.927 -0.3035  1.6043 -0.3346
 6991TIP3    H242389   4.470   0.460   5.783 -0.3830 -0.0876  0.0466
 6992TIP3   OH242390   4.703   1.383   2.968  0.1124 -0.4402  0.7453
 6992TIP3    H142391   4.798   1.371   2.969  0.1048 -0.5690  0.1025
 6992TIP3    H242392   4.673   1.338   3.047  0.6087 -0.2156  1.0649
 6993TIP3   OH242393   3.446   2.192  13.724  0.0840  0.5184  0.4803
 6993TIP3    H142394   3.399   2.267  13.760 -0.4278  1.0686 -1.2591
 6993TIP3    H242395   3.504   2.229  13.658  0.4431 -0.5282  0.1829
 6994TIP3   OH242396   4.005   4.859   1.485  0.4207 -0.1497  0.0692
 6994TIP3    H142397   3.926   4.805   1.493  0.9633 -0.9441  0.2199
 6994TIP3    H242398   4.077   4.796   1.487  1.0535  0.5472 -0.2647
 6995TIP3   OH242399   4.136   1.280  11.156  0.1845  0.0345 -0.1483
 6995TIP3    H142400   4.209   1.220  11.172  1.0095  1.1028  0.2412
 6995TIP3    H242401   4.173   1.367  11.168 -1.3382  0.5976  0.8077
 6996TIP3   OH242402   3.807   4.591  14.211 -0.2300  0.2269 -0.1313
 6996TIP3    H142403   3.857   4.574  14.131  0.4447  0.0749  0.3134
 6996TIP3    H242404   3.740   4.523  14.212  1.0891 -1.1297  0.5086
 6997TIP3   OH242405   0.280   0.866   4.104 -0.1647 -0.3474 -0.4173
 6997TIP3    H142406   0.314   0.818   4.180 -1.1576  1.7072  1.4528
 6997TIP3    H242407   0.249   0.798   4.045  1.1652 -2.0594  0.7257
 6998TIP3   OH242408   3.995   2.880   6.720 -1.2088 -0.3730  0.2960
 6998TIP3    H142409   4.078   2.927   6.736  0.3266 -2.7857 -0.0606
 6998TIP3    H242410   3.964   2.858   6.808 -2.2004  1.5857  0.4969
 6999TIP3   OH242411   5.059   1.772   3.513  0.0388 -0.2149  0.3384
 6999TIP3    H142412   4.965   1.761   3.498 -0.0235  0.2127  0.3965
 6999TIP3    H242413   5.094   1.795   3.427  0.0524 -0.1562  0.3590
 7000TIP3   OH242414   6.323   3.691   5.084 -0.5560 -0.0636  0.2086
 7000TIP3    H142415   6.298   3.598   5.080 -0.0201 -0.1729 -1.6029
 7000TIP3    H242416   6.258   3.735   5.029 -0.3875  0.5323  0.4858
 7001TIP3   OH242417   5.835   1.654  15.054  0.0117 -0.0096 -0.4795
 7001TIP3    H142418   5.870   1.720  14.993 -0.3442  2.3362  1.6889
 7001TIP3    H242419   5.756   1.695  15.090 -0.3485 -1.7476  0.7961
 7002TIP3   OH242420   5.455   0.128   3.063  0.0910 -0.1057 -0.2434
 7002TIP3    H142421   5.499   0.148   3.146  1.7916 -1.2414 -0.8146
 7002TIP3    H242422   5.365   0.106   3.088  0.8301 -1.4300  1.4570
 7003TIP3   OH242423   1.942   4.231  16.598  0.0220 -0.0662  0.2954
 7003TIP3    H142424   1.915   4.295  16.532  0.5523 -2.1243 -2.0614
 7003TIP3    H242425   1.870   4.167  16.600  1.3063 -1.6031 -0.5395
 7004TIP3   OH242426   1.680   1.229   2.423  0.1728 -0.1421  0.0784
 7004TIP3    H142427   1.595   1.251   2.385 -0.1737  0.2559  1.0464
 7004TIP3    H242428   1.700   1.142   2.388 -0.8659 -0.4444  0.1949
 7005TIP3   OH242429   0.351   0.900  10.941 -0.1474 -0.1452  0.0615
 7005TIP3    H142430   0.437   0.865  10.964  0.4967  1.9632  1.2010
 7005TIP3    H242431   0.293   0.868  11.009 -0.5557 -2.4291 -1.2778
 7006TIP3   OH242432   2.006   2.018  16.342 -0.1640 -0.1507 -0.3185
 7006TIP3    H142433   1.921   1.974  16.349  0.5639 -1.3039  2.3297
 7006TIP3    H242434   2.070   1.948  16.355  1.2545  0.6802 -2.3404
 7007TIP3   OH242435   6.186   5.121   1.384  0.2533  0.5327 -0.1081
 7007TIP3    H142436   6.266   5.144   1.336  0.1237  0.2748 -0.4565
 7007TIP3    H242437   6.132   5.199   1.379  0.1408  0.4323 -0.6057
 7008TIP3   OH242438   6.678   2.378  13.819  0.2916  0.0812  0.2594
 7008TIP3    H142439   6.620   2.322  13.871  1.4628  0.6079  2.2546
 7008TIP3    H242440   6.754   2.323  13.801  0.3551  0.2414  0.0408
 7009TIP3   OH242441   4.922   2.244  13.694  0.0871 -0.0643  0.5044
 7009TIP3    H142442   4.971   2.293  13.628  1.0600 -1.7141 -0.0577
 7009TIP3    H242443   4.843   2.296  13.710  0.3507  0.9004 -1.1725
 7010TIP3   OH242444   3.673   4.108   0.171  0.4062 -0.3979  0.5491
 7010TIP3    H142445   3.752   4.159   0.153 -0.2282  0.1227 -0.9412
 7010TIP3    H242446   3.617   4.123   0.095 -0.6046 -1.7846  0.9759
 7011TIP3   OH242447   5.813   4.592  15.832  0.0266 -0.0729 -0.2142
 7011TIP3    H142448   5.750   4.553  15.772  0.1727 -2.3938  1.0252
 7011TIP3    H242449   5.892   4.605  15.780 -0.8965  1.2551 -1.3460
 7012TIP3   OH242450   0.197   2.595   0.432  0.0662  0.2515 -0.4687
 7012TIP3    H142451   0.198   2.499   0.435 -1.1076  0.2080 -0.9163
 7012TIP3    H242452   0.287   2.619   0.410  0.9119 -0.6392  1.7432
 7013TIP3   OH242453   0.595   3.802   4.193 -0.3654  0.5016 -0.7190
 7013TIP3    H142454   0.635   3.831   4.111 -0.4135  1.1245 -0.5277
 7013TIP3    H242455   0.669   3.766   4.244 -0.1097  1.2721 -0.5323
 7014TIP3   OH242456   0.962   3.550  13.621 -0.0040 -0.3483 -0.0424
 7014TIP3    H142457   0.976   3.544  13.526  1.2988 -0.0676  0.1150
 7014TIP3    H242458   1.043   3.517  13.659  0.0986  0.9918  0.9584
 7015TIP3   OH242459   0.197   3.044  11.097 -0.5211 -0.2199 -0.7316
 7015TIP3    H142460   0.265   3.086  11.149 -0.0058  0.5962 -2.0229
 7015TIP3    H242461   0.165   2.973  11.153  1.7762 -1.0091 -0.2825
 7016TIP3   OH242462   6.565   1.450  13.494  0.2398 -0.2302  0.3025
 7016TIP3    H142463   6.565   1.495  13.410  1.4763 -3.5517 -1.6660
 7016TIP3    H242464   6.474   1.421  13.506  0.2322 -0.4981 -0.3712
 7017TIP3   OH242465   5.842   1.786   0.956  0.2551 -0.3965  0.2434
 7017TIP3    H142466   5.791   1.746   0.886  2.2643 -0.0492 -1.5369
 7017TIP3    H242467   5.816   1.878   0.956 -0.1942 -0.5234  0.3741
 7018TIP3   OH242468   5.264   4.367  17.048 -0.4547  0.3722 -0.8937
 7018TIP3    H142469   5.195   4.419  17.008 -2.5445 -2.4825 -1.2884
 7018TIP3    H242470   5.266   4.395  17.139 -0.0906  2.4821 -1.5153
 7019TIP3   OH242471   5.367   4.038   1.821 -0.4666 -0.5671 -0.0636
 7019TIP3    H142472   5.362   3.944   1.807 -2.9079 -0.7868  1.5938
 7019TIP3    H242473   5.282   4.061   1.859  0.1612  2.2636 -0.1378
 7020TIP3   OH242474   4.513   1.384   3.262  0.2858 -0.4159  0.8286
 7020TIP3    H142475   4.537   1.319   3.328 -0.9925  0.1805  1.9236
 7020TIP3    H242476   4.463   1.335   3.197  0.9901 -0.8831  0.6244
 7021TIP3   OH242477   3.023   6.528   2.536  0.0882 -0.0281 -0.1970
 7021TIP3    H142478   3.013   6.511   2.630 -0.8085  1.2540 -0.0472
 7021TIP3    H242479   3.109   6.493   2.515 -0.1039 -1.2391  0.8868
 7022TIP3   OH242480   2.621   4.618  14.569  0.2393  0.0399  0.2114
 7022TIP3    H142481   2.572   4.550  14.615 -0.6138  0.6282  0.1931
 7022TIP3    H242482   2.566   4.642  14.495  1.2175 -0.2950 -0.6582
 7023TIP3   OH242483   4.675   5.388   1.069 -0.5165 -0.2491 -0.2953
 7023TIP3    H142484   4.732   5.411   0.995 -2.5529  0.0510 -1.8540
 7023TIP3    H242485   4.685   5.294   1.078  0.5416 -0.1477 -0.2465
 7024TIP3   OH242486   6.352   3.410   4.830  0.4847 -0.1295  0.5348
 7024TIP3    H142487   6.298   3.336   4.859  0.5488 -0.4452 -0.1407
 7024TIP3    H242488   6.442   3.380   4.841  0.5304 -0.7694 -1.1924
 7025TIP3   OH242489   3.345   2.920   1.482  0.5484  0.5879  0.4214
 7025TIP3    H142490   3.362   2.830   1.509 -0.0594  0.6088  0.9110
 7025TIP3    H242491   3.425   2.948   1.439  0.0684 -0.8494 -1.5536
 7026TIP3   OH242492   0.619   4.758  15.270 -0.0132  0.1662  0.1856
 7026TIP3    H142493   0.701   4.718  15.299 -0.0863  0.0219  0.1956
 7026TIP3    H242494   0.561   4.750  15.346  0.3327  1.3228  0.5806
 7027TIP3   OH242495   1.565   3.356  12.427 -0.0072  0.6465 -0.1222
 7027TIP3    H142496   1.607   3.408  12.359 -1.2814  1.4996 -0.2756
 7027TIP3    H242497   1.541   3.274  12.383  0.8249  0.4356 -0.2070
 7028TIP3   OH242498   2.226   6.699   2.869  0.1560 -0.0686  0.4781
 7028TIP3    H142499   2.273   6.761   2.815  0.2201 -1.2715 -0.9139
 7028TIP3    H242500   2.136   6.732   2.872  0.0240 -0.2456 -0.8504
 7029TIP3   OH242501   1.331   1.250   5.050 -0.3632 -0.5676 -0.0165
 7029TIP3    H142502   1.255   1.226   4.997 -0.7163 -0.6078  0.4996
 7029TIP3    H242503   1.364   1.167   5.085  0.7546 -0.7020 -1.3378
 7030TIP3   OH242504   6.719   6.552   3.567  0.2575  0.0290  0.0246
 7030TIP3    H142505   6.719   6.457   3.576  0.9352 -0.2500 -2.2736
 7030TIP3    H242506   6.811   6.575   3.558 -0.0017  0.6760 -1.1771
 7031TIP3   OH242507   1.084   2.954   5.145 -0.3856  0.2899  0.7453
 7031TIP3    H142508   1.018   2.891   5.117 -0.3580  0.5588  0.0443
 7031TIP3    H242509   1.162   2.902   5.165  1.3760  0.3160 -4.6398
 7032TIP3   OH242510   3.518   1.985  12.942  0.1807  0.1005  0.3454
 7032TIP3    H142511   3.491   1.963  12.853 -1.6156 -1.4897  1.2049
 7032TIP3    H242512   3.515   2.081  12.945 -1.8588  0.1339 -0.7385
 7033TIP3   OH242513   5.002   5.794   1.144  0.0089  0.3196 -0.0659
 7033TIP3    H142514   4.986   5.719   1.086 -0.7069  1.2241 -1.0696
 7033TIP3    H242515   4.940   5.783   1.215 -0.0609 -0.0692 -0.1849
 7034TIP3   OH242516   4.932   1.906   2.649  0.4711 -0.2728 -0.6065
 7034TIP3    H142517   4.902   1.827   2.605  0.9337 -0.3475 -0.7927
 7034TIP3    H242518   4.891   1.903   2.735  1.6056 -1.4534 -0.0722
 7035TIP3   OH242519   5.694   4.926  15.240 -0.3899 -0.0122 -0.0171
 7035TIP3    H142520   5.765   4.953  15.182  0.8386 -1.8320  0.5513
 7035TIP3    H242521   5.623   4.901  15.181 -0.5146  1.5855 -0.5989
 7036TIP3   OH242522   0.102   6.197  11.841 -0.3536  0.5304  0.5165
 7036TIP3    H142523   0.058   6.147  11.772 -0.9752  3.7467 -1.6544
 7036TIP3    H242524   0.031   6.223  11.900 -0.2341  0.0007  0.9022
 7037TIP3   OH242525   0.210   4.440   4.676  0.3217 -0.1696 -0.0140
 7037TIP3    H142526   0.164   4.357   4.682 -0.2291  0.1001 -0.4311
 7037TIP3    H242527   0.213   4.459   4.583 -0.2676  0.6708  0.1297
 7038TIP3   OH242528   5.123   0.671  16.652 -0.2191  0.0897  0.0454
 7038TIP3    H142529   5.032   0.643  16.637  0.2697 -1.3048 -0.5349
 7038TIP3    H242530   5.161   0.599  16.703  1.0064 -0.1797 -1.1809
 7039TIP3   OH242531   0.362   6.535  16.835 -0.0771  0.3878  0.1061
 7039TIP3    H142532   0.313   6.612  16.808  0.4462  0.4177 -0.8057
 7039TIP3    H242533   0.318   6.462  16.792 -0.7579  0.1209  1.2150
 7040TIP3   OH242534   6.518   5.935   4.591 -0.4678  0.4018  0.0826
 7040TIP3    H142535   6.505   5.928   4.497  0.3165  0.5835 -0.0432
 7040TIP3    H242536   6.457   5.872   4.629 -1.4761  1.0108 -0.4971
 7041TIP3   OH242537   1.438   6.321  16.041  0.2506 -0.2784  0.4872
 7041TIP3    H142538   1.400   6.248  16.090  0.4078 -0.7801 -0.1306
 7041TIP3    H242539   1.531   6.318  16.063  0.4944 -1.1279 -0.6162
 7042TIP3   OH242540   3.706   0.740  12.298 -0.3328 -0.1502  0.3188
 7042TIP3    H142541   3.755   0.822  12.299 -2.2598  1.0694 -0.2636
 7042TIP3    H242542   3.679   0.729  12.207 -0.4393 -1.2471  0.4694
 7043TIP3   OH242543   0.571   6.082   0.793 -0.4734  0.2611 -0.2434
 7043TIP3    H142544   0.492   6.032   0.771  0.3220 -0.3888 -1.8244
 7043TIP3    H242545   0.641   6.018   0.789  0.0851  0.7113  1.7390
 7044TIP3   OH242546   6.460   4.434   2.968  0.2291 -0.0459 -0.5255
 7044TIP3    H142547   6.529   4.410   3.031 -0.4676  0.8536  0.6213
 7044TIP3    H242548   6.393   4.367   2.978  0.2834 -0.1091 -0.5837
 7045TIP3   OH242549   0.964   0.124   5.937  0.0120 -0.7994  0.4902
 7045TIP3    H142550   0.969   0.092   6.027 -1.4419 -2.5887  0.0064
 7045TIP3    H242551   1.047   0.170   5.923  1.4546 -2.8144  1.8904
 7046TIP3   OH242552   4.120   3.856  11.536  0.1372 -0.4003 -0.1902
 7046TIP3    H142553   4.202   3.808  11.525 -0.5893 -1.8877  0.5271
 7046TIP3    H242554   4.055   3.788  11.553 -0.7854  0.8991  1.8183
 7047TIP3   OH242555   5.255   1.319  14.631 -0.1261  0.1888 -0.4876
 7047TIP3    H142556   5.173   1.359  14.659 -0.3852 -0.9070  0.3366
 7047TIP3    H242557   5.250   1.319  14.535 -1.0690  0.1514 -0.4433
 7048TIP3   OH242558   1.217   5.979   4.037 -0.0042 -0.3272  0.6983
 7048TIP3    H142559   1.248   6.053   4.089  0.1380 -0.4636  0.8082
 7048TIP3    H242560   1.170   6.018   3.964  5.4840  0.2705 -3.1014
 7049TIP3   OH242561   3.765   4.564  14.919 -0.5247 -1.0798 -0.2932
 7049TIP3    H142562   3.751   4.641  14.864 -0.4555 -0.1473  0.9505
 7049TIP3    H242563   3.705   4.498  14.884  0.0028 -0.7435 -1.8814
 7050TIP3   OH242564   5.070   0.040  11.727  0.3439  0.0454 -0.1193
 7050TIP3    H142565   5.149   0.093  11.714 -0.4668  1.3287  0.0359
 7050TIP3    H242566   5.012   0.065  11.655 -0.6889  0.6075  0.8725
 7051TIP3   OH242567   6.401   2.310  12.654 -0.1307  0.2585 -0.5586
 7051TIP3    H142568   6.431   2.371  12.587  0.2139  0.8516  0.1185
 7051TIP3    H242569   6.411   2.223  12.614  0.3176  0.5834 -1.1693
 7052TIP3   OH242570   5.525   5.382   2.164  0.2758 -0.2174  0.0407
 7052TIP3    H142571   5.506   5.353   2.075  1.5192  1.5100 -0.8289
 7052TIP3    H242572   5.606   5.337   2.188 -0.1430 -0.8054  0.3865
 7053TIP3   OH242573   3.273   0.973   5.974  0.3083 -0.2398  0.2910
 7053TIP3    H142574   3.264   0.996   6.066  2.4546 -0.2926  0.5636
 7053TIP3    H242575   3.238   1.048   5.927 -2.5631 -0.9658  1.0664
 7054TIP3   OH242576   2.090   5.498  12.971 -0.1822  0.5324 -0.1036
 7054TIP3    H142577   2.018   5.531  12.917 -0.1594  2.5874  1.0104
 7054TIP3    H242578   2.053   5.425  13.020 -1.1891  0.8717 -0.3531
 7055TIP3   OH242579   4.124   0.595   1.639 -0.7374  0.4666 -0.3128
 7055TIP3    H142580   4.154   0.512   1.600 -1.1892 -0.1733  0.6737
 7055TIP3    H242581   4.200   0.653   1.634 -0.3150 -0.1108 -0.7135
 7056TIP3   OH242582   1.489   3.893  13.604  0.0709  0.2194 -0.8889
 7056TIP3    H142583   1.510   3.886  13.697  2.6117 -0.0721 -1.4067
 7056TIP3    H242584   1.475   3.802  13.576  1.2114  0.1040 -1.1406
 7057TIP3   OH242585   5.523   3.453   0.578  0.2602 -0.0493 -0.0358
 7057TIP3    H142586   5.491   3.500   0.501  1.1752 -0.4260 -0.6709
 7057TIP3    H242587   5.560   3.372   0.542 -0.0155 -0.5977  0.8887
 7058TIP3   OH242588   5.896   1.895  13.251 -0.0048  0.0316 -0.2324
 7058TIP3    H142589   5.981   1.862  13.224  0.1905 -0.7219  1.2220
 7058TIP3    H242590   5.912   1.935  13.337 -0.9137  0.8752 -0.4331
 7059TIP3   OH242591   0.522   1.767  11.633 -0.0908 -0.3952 -0.5738
 7059TIP3    H142592   0.429   1.747  11.637 -0.1419 -0.1427 -0.4165
 7059TIP3    H242593   0.563   1.705  11.693 -0.3244  0.3818  0.4273
 7060TIP3   OH242594   5.979   2.317  15.387  0.1878 -0.2320  0.2970
 7060TIP3    H142595   5.884   2.317  15.384  0.2009 -0.0928 -0.4819
 7060TIP3    H242596   6.006   2.313  15.295  0.9192  1.5288  0.3872
 7061TIP3   OH242597   4.684   5.569  10.740 -0.1058 -0.0773 -0.3156
 7061TIP3    H142598   4.692   5.631  10.668  0.1456  0.6884  0.3502
 7061TIP3    H242599   4.774   5.544  10.761 -0.0635  0.7922  0.6327
 7062TIP3   OH242600   1.771   5.148  12.481  0.0421  0.0547 -0.0868
 7062TIP3    H142601   1.795   5.102  12.400  0.3761  1.9389 -1.1136
 7062TIP3    H242602   1.760   5.239  12.455  2.8417  1.2825  2.4755
 7063TIP3   OH242603   1.999   5.476   5.487  0.3192  0.2751  0.1227
 7063TIP3    H142604   2.005   5.404   5.425 -1.1272 -0.3341  0.6399
 7063TIP3    H242605   2.089   5.505   5.500  0.7831 -0.5618 -1.1118
 7064TIP3   OH242606   1.997   4.560   2.539  0.0783 -0.3752  0.7293
 7064TIP3    H142607   1.979   4.653   2.528 -0.8540 -0.4903  1.2171
 7064TIP3    H242608   2.092   4.555   2.548  0.3451  0.3358 -1.0830
 7065TIP3   OH242609   4.336   0.017   0.449 -0.1638  0.3471  0.5041
 7065TIP3    H142610   4.274  -0.004   0.518  0.6650 -0.0791  1.1345
 7065TIP3    H242611   4.308   0.102   0.416 -1.3368 -0.0325  0.4684
 7066TIP3   OH242612   0.783   4.718  16.986  0.2447 -0.1283 -0.2094
 7066TIP3    H142613   0.734   4.643  17.018  0.4270  0.5483  1.7830
 7066TIP3    H242614   0.835   4.683  16.914 -2.1713 -1.1372 -1.5842
 7067TIP3   OH242615   4.382   2.761  13.520 -0.3396 -0.0004 -0.3198
 7067TIP3    H142616   4.343   2.675  13.539 -2.3993  0.8429 -0.5359
 7067TIP3    H242617   4.329   2.823  13.569  0.9941  1.2046 -0.3427
 7068TIP3   OH242618   5.911   5.054   6.392 -0.1790  0.1919  0.4182
 7068TIP3    H142619   5.862   5.086   6.468  1.9092  1.3933  1.3281
 7068TIP3    H242620   5.939   5.134   6.347  0.5766 -0.4663 -0.2980
 7069TIP3   OH242621   3.212   0.581  17.071 -0.2687  0.1305  0.2762
 7069TIP3    H142622   3.268   0.631  17.131 -0.5626 -0.8666  1.4412
 7069TIP3    H242623   3.133   0.565  17.122 -1.8180  1.8195 -1.4532
 7070TIP3   OH242624   1.039   4.051  11.952  0.0306 -0.2165 -0.0637
 7070TIP3    H142625   1.014   4.056  11.859 -0.9077 -1.1883  0.1204
 7070TIP3    H242626   1.121   4.002  11.952  0.7747  0.9758 -0.4767
 7071TIP3   OH242627   1.668   5.813   3.848 -0.5198 -0.1367 -0.3905
 7071TIP3    H142628   1.638   5.729   3.812  2.1515 -1.0574 -0.7231
 7071TIP3    H242629   1.693   5.793   3.938 -0.9106  0.5933 -0.1128
 7072TIP3   OH242630   5.630   4.354  10.946 -0.5453  0.1268 -0.1392
 7072TIP3    H142631   5.632   4.449  10.942  3.4247  0.1775 -3.2801
 7072TIP3    H242632   5.664   4.333  11.033 -0.1763  1.6030  0.0979
 7073TIP3   OH242633   6.740   5.540  11.708 -0.0382  0.0960 -0.3305
 7073TIP3    H142634   6.758   5.485  11.631  0.3720  0.2919 -0.3791
 7073TIP3    H242635   6.826   5.555  11.747  0.0861  2.0696 -1.2552
 7074TIP3   OH242636   0.441   2.508   0.586 -0.4293 -0.4006  0.0923
 7074TIP3    H142637   0.534   2.489   0.582 -0.0328  0.9553  1.8292
 7074TIP3    H242638   0.400   2.436   0.538  1.6077  0.1984 -2.7738
 7075TIP3   OH242639   3.440   3.715   3.160 -0.0619  0.2851  0.0200
 7075TIP3    H142640   3.402   3.721   3.072  0.6339 -0.1999 -0.3260
 7075TIP3    H242641   3.425   3.624   3.186 -1.8179  0.8546  1.1413
 7076TIP3   OH242642   2.104   3.971  15.953  0.3285  0.5783  0.0712
 7076TIP3    H142643   2.009   3.975  15.964  0.3774  0.2980  0.6247
 7076TIP3    H242644   2.118   3.975  15.858 -0.3871 -2.6546 -0.2783
 7077TIP3   OH242645   3.392   1.964  16.228  0.2016 -0.2152 -0.1785
 7077TIP3    H142646   3.407   1.903  16.300  0.0202 -0.5161 -0.3954
 7077TIP3    H242647   3.438   1.925  16.153 -0.2101 -0.2686 -0.4081
 7078TIP3   OH242648   3.963   4.390  14.301  0.4131 -0.1750 -0.5251
 7078TIP3    H142649   3.921   4.475  14.313 -1.1991 -1.1031  0.6726
 7078TIP3    H242650   4.057   4.411  14.299  0.0304  1.8341 -2.3228
 7079TIP3   OH242651   6.310   0.222   3.802 -0.3513 -0.1325 -0.0547
 7079TIP3    H142652   6.290   0.150   3.862 -1.6751  0.8461  0.7457
 7079TIP3    H242653   6.343   0.292   3.859 -0.7817  0.5051 -0.5755
 7080TIP3   OH242654   6.375   4.061   3.498  0.1700 -0.7035 -0.2074
 7080TIP3    H142655   6.409   3.983   3.543 -0.8834 -1.4250 -0.6056
 7080TIP3    H242656   6.280   4.050   3.502  0.0009  0.7341 -0.0018
 7081TIP3   OH242657   6.717   5.273  16.970 -0.2924  0.5148 -0.3005
 7081TIP3    H142658   6.693   5.352  16.922  1.0613  0.9137 -0.3622
 7081TIP3    H242659   6.772   5.304  17.042 -0.8542 -0.2562  0.4935
 7082TIP3   OH242660   4.491   0.832   1.316 -0.4226  0.1799 -0.0037
 7082TIP3    H142661   4.566   0.834   1.256  1.4655 -0.8928  2.1877
 7082TIP3    H242662   4.457   0.921   1.314  2.1449  1.2590  0.3693
 7083TIP3   OH242663   4.965   4.198  11.513  0.5608 -0.1508  0.5133
 7083TIP3    H142664   4.880   4.214  11.471  0.3561 -1.9289  0.1798
 7083TIP3    H242665   5.024   4.260  11.470 -0.4848  0.8941  0.5271
 7084TIP3   OH242666   5.179   4.734   4.485 -0.2755 -0.5205 -0.1118
 7084TIP3    H142667   5.196   4.814   4.436 -1.4321  0.2826  0.7315
 7084TIP3    H242668   5.261   4.685   4.482  0.1637  0.2610 -1.4294
 7085TIP3   OH242669   1.729   2.603   4.854  0.0245 -0.8139  1.0716
 7085TIP3    H142670   1.810   2.557   4.836  0.2578  0.2067 -0.7136
 7085TIP3    H242671   1.755   2.679   4.906  0.1652 -0.6871  0.8169
 7086TIP3   OH242672   1.120   3.210   3.516  0.7274 -0.1907  0.1602
 7086TIP3    H142673   1.043   3.187   3.567  0.2549 -0.0856 -0.4881
 7086TIP3    H242674   1.174   3.261   3.575 -0.7717  1.7352 -0.0454
 7087TIP3   OH242675   0.476   6.204  14.910  0.4080  0.1431 -0.3871
 7087TIP3    H142676   0.515   6.253  14.838 -0.9602  0.4688 -0.9283
 7087TIP3    H242677   0.551   6.167  14.957  1.4880  2.5540 -0.0801
 7088TIP3   OH242678   0.408   1.315  11.248 -0.0350  0.3051 -0.3635
 7088TIP3    H142679   0.407   1.370  11.326  0.6161 -0.9216  0.5530
 7088TIP3    H242680   0.496   1.325  11.212 -1.3676  3.7962 -3.2051
 7089TIP3   OH242681   1.250   2.190  14.721  0.4841 -0.4026 -0.3728
 7089TIP3    H142682   1.157   2.210  14.705  0.8537 -0.3285 -2.6882
 7089TIP3    H242683   1.296   2.231  14.648  2.0801 -2.7250 -0.7670
 7090TIP3   OH242684   4.500   1.071   3.824  0.6180 -0.0886  0.6923
 7090TIP3    H142685   4.486   1.035   3.737 -0.0859 -2.5226  1.7195
 7090TIP3    H242686   4.455   1.156   3.823 -0.2284 -0.5103 -0.9932
 7091TIP3   OH242687   2.065   2.892   4.946  0.0913  0.1090  0.0839
 7091TIP3    H142688   2.104   2.807   4.927  1.0601  0.5897 -0.1726
 7091TIP3    H242689   2.078   2.905   5.040  0.5719  0.2724 -0.0033
 7092TIP3   OH242690   6.652   5.881  12.892 -0.6087 -0.3773  0.2485
 7092TIP3    H142691   6.606   5.798  12.884 -0.8563 -0.2743  0.5484
 7092TIP3    H242692   6.726   5.863  12.950  1.2870 -1.1659 -2.2539
 7093TIP3   OH242693   1.672   2.117   2.235  1.0901 -0.1068 -0.0823
 7093TIP3    H142694   1.680   2.195   2.179  0.4629 -0.8213 -1.2128
 7093TIP3    H242695   1.650   2.046   2.174  2.2970 -1.3250  0.8270
 7094TIP3   OH242696   3.248   0.888  12.575  0.3394  0.0288  0.3841
 7094TIP3    H142697   3.184   0.827  12.609  1.9319 -1.3152  1.0936
 7094TIP3    H242698   3.329   0.867  12.621  2.4276 -1.2723 -3.3670
 7095TIP3   OH242699   6.680   4.172   0.534 -0.0450 -0.2189 -0.2902
 7095TIP3    H142700   6.731   4.144   0.610 -0.0591 -0.2304 -0.2848
 7095TIP3    H242701   6.599   4.122   0.539 -0.4484  0.4646  0.2096
 7096TIP3   OH242702   2.457   2.388  14.152  0.2308  0.1840 -0.7011
 7096TIP3    H142703   2.481   2.472  14.113 -2.1309  0.0545 -2.6466
 7096TIP3    H242704   2.402   2.345  14.086 -0.3630 -2.0039  1.0831
 7097TIP3   OH242705   3.015   3.118  11.033  0.5837 -0.2694 -0.2211
 7097TIP3    H142706   3.083   3.175  11.068 -0.0956  0.2011  0.3602
 7097TIP3    H242707   3.020   3.039  11.086  0.1712  0.0750  0.3414
 7098TIP3   OH242708   0.322   3.589  10.461  0.1827 -0.2609  0.0841
 7098TIP3    H142709   0.373   3.602  10.381  0.9615  0.0259  0.6118
 7098TIP3    H242710   0.251   3.653  10.456 -0.3441 -0.8955 -0.8168
 7099TIP3   OH242711   1.154   0.698   5.021 -0.4566 -0.7292 -0.1389
 7099TIP3    H142712   1.082   0.761   5.024 -1.1940 -1.5905  2.1916
 7099TIP3    H242713   1.231   0.749   5.046 -0.8398 -0.4743  0.5637
 7100TIP3   OH242714   4.646   2.366   0.654 -0.4281 -0.0281  0.4743
 7100TIP3    H142715   4.735   2.333   0.642 -0.4892 -0.5236  1.3324
 7100TIP3    H242716   4.644   2.448   0.604  0.2247 -0.4742 -0.3034
 7101TIP3   OH242717   5.181   2.287  11.927  0.1529  0.8641  0.2534
 7101TIP3    H142718   5.097   2.245  11.909  0.3972  0.4238  0.1370
 7101TIP3    H242719   5.240   2.254  11.859  0.9403 -0.4077  1.4968
 7102TIP3   OH242720   1.671   6.422   5.357  0.4803 -0.1117  0.0140
 7102TIP3    H142721   1.644   6.473   5.433  1.0803 -0.6258  0.5841
 7102TIP3    H242722   1.649   6.477   5.282 -0.6464  0.1700  0.5251
 7103TIP3   OH242723   6.119   6.187  14.869  0.8117  0.1197 -0.3192
 7103TIP3    H142724   6.156   6.108  14.830 -0.0091 -0.1146 -0.6420
 7103TIP3    H242725   6.061   6.155  14.937  0.1437  0.4160 -0.7371
 7104TIP3   OH242726   2.199   1.176   1.804 -0.0768 -0.4364 -0.9368
 7104TIP3    H142727   2.238   1.110   1.747  0.8191 -2.2684  1.6344
 7104TIP3    H242728   2.188   1.133   1.888 -1.1620  2.1811  0.3977
 7105TIP3   OH242729   1.462   4.491   1.029  0.1739 -0.3167  0.1751
 7105TIP3    H142730   1.547   4.458   1.060  0.9311 -0.2203 -1.6932
 7105TIP3    H242731   1.482   4.576   0.990 -0.9679  0.1656  0.6144
 7106TIP3   OH242732   5.544   1.306   2.130 -0.6772  0.3140  0.0392
 7106TIP3    H142733   5.625   1.329   2.085 -1.3538  1.3438 -0.6924
 7106TIP3    H242734   5.510   1.231   2.082  0.2993 -0.7417  0.9360
 7107TIP3   OH242735   6.117   4.101   1.064  0.1011  0.9098  0.2383
 7107TIP3    H142736   6.061   4.173   1.032 -1.2664  0.7251  2.0223
 7107TIP3    H242737   6.130   4.045   0.988 -3.0145  0.4559 -0.1119
 7108TIP3   OH242738   2.671   3.012   5.830 -0.0733 -0.0339 -0.2182
 7108TIP3    H142739   2.756   2.994   5.789  0.3268  1.0317  0.1011
 7108TIP3    H242740   2.661   3.107   5.822 -0.7120 -0.0148  0.7659
 7109TIP3   OH242741   3.204   5.764   1.874 -0.0653 -0.2662 -0.1416
 7109TIP3    H142742   3.164   5.769   1.961 -0.7811  0.4025 -0.5011
 7109TIP3    H242743   3.189   5.673   1.846 -2.8182  0.3409 -0.9318
 7110TIP3   OH242744   4.438   1.653  12.147 -0.1426 -0.6440 -0.6288
 7110TIP3    H142745   4.495   1.723  12.179  0.2100 -1.3326  0.2779
 7110TIP3    H242746   4.385   1.695  12.079  0.3641  0.3914 -0.4052
 7111TIP3   OH242747   2.034   1.925   2.000  0.3997 -0.1919  0.1541
 7111TIP3    H142748   2.115   1.894   1.959  0.5392  0.5557 -0.1507
 7111TIP3    H242749   2.046   1.908   2.094  1.4774  1.1102  0.2795
 7112TIP3   OH242750   5.850   3.331   0.364 -0.4112 -0.4623  0.3019
 7112TIP3    H142751   5.917   3.265   0.379 -0.7930 -0.9460 -0.0786
 7112TIP3    H242752   5.770   3.292   0.399 -0.6965 -0.3299 -0.1902
 7113TIP3   OH242753   2.132   5.418  14.892 -0.0873 -0.9507 -0.0826
 7113TIP3    H142754   2.139   5.392  14.800 -0.3505 -0.4527 -0.2441
 7113TIP3    H242755   2.112   5.511  14.889  1.1468 -0.6612  0.5063
 7114TIP3   OH242756   1.806   5.259  16.583 -0.5895  0.2122  0.5473
 7114TIP3    H142757   1.792   5.354  16.593  0.8207  0.2844  2.4818
 7114TIP3    H242758   1.736   5.231  16.524  1.3216  3.0607 -3.5801
 7115TIP3   OH242759   2.476   3.492   5.643 -0.8438 -0.2421 -0.1946
 7115TIP3    H142760   2.392   3.511   5.686  0.6888 -0.2848  3.1539
 7115TIP3    H242761   2.522   3.576   5.643 -0.4825 -0.4300 -1.0475
 7116TIP3   OH242762   2.114   5.714   0.817 -0.2852 -0.5533  0.1964
 7116TIP3    H142763   2.098   5.743   0.906 -0.5700 -1.4263  0.4430
 7116TIP3    H242764   2.106   5.793   0.764 -1.1802 -0.2083  0.8219
 7117TIP3   OH242765   6.683   6.599   6.113 -0.0695 -0.2887  0.6555
 7117TIP3    H142766   6.711   6.644   6.034 -1.6341 -0.9160 -0.3211
 7117TIP3    H242767   6.713   6.654   6.185 -0.7975  1.6460 -0.4533
 7118TIP3   OH242768   1.326   4.792   0.012 -0.1243 -0.3072 -0.5185
 7118TIP3    H142769   1.317   4.832  -0.075 -1.6758 -0.7451 -0.5982
 7118TIP3    H242770   1.248   4.822   0.060  0.4467 -0.4905  0.5679
 7119TIP3   OH242771   4.137   4.391   1.192 -0.1368 -0.5789 -0.6381
 7119TIP3    H142772   4.231   4.392   1.209 -0.2127  0.3705 -0.2005
 7119TIP3    H242773   4.129   4.420   1.101 -0.0537  0.3784 -0.3506
 7120TIP3   OH242774   2.350   1.781   1.557 -0.3083  0.0932 -0.4054
 7120TIP3    H142775   2.360   1.819   1.644 -0.4010  0.2406 -0.4590
 7120TIP3    H242776   2.294   1.843   1.510 -0.8479 -0.3358 -0.3459
 7121TIP3   OH242777   2.068   1.496  17.164  0.0521 -0.6104 -0.5081
 7121TIP3    H142778   2.060   1.466  17.254 -0.7809 -0.5391 -0.5477
 7121TIP3    H242779   2.005   1.443  17.115 -2.0772  1.6339 -0.4438
 7122TIP3   OH242780   6.363   2.714  11.795 -0.4666  0.0757  0.1262
 7122TIP3    H142781   6.390   2.785  11.738  0.7317  2.6802  3.6077
 7122TIP3    H242782   6.445   2.669  11.818 -0.4842  0.8470  1.8633
 7123TIP3   OH242783   4.417   1.574   5.204 -0.0476  0.5652  0.2891
 7123TIP3    H142784   4.353   1.545   5.139  0.4162  1.2540 -0.4915
 7123TIP3    H242785   4.418   1.504   5.269  0.5027 -0.8222 -1.1438
 7124TIP3   OH242786   0.079   4.495  11.239  0.2647 -0.2431  0.3234
 7124TIP3    H142787   0.093   4.426  11.304  0.9869  1.0424  1.5829
 7124TIP3    H242788   0.093   4.576  11.287  0.1344  0.7767 -1.2973
 7125TIP3   OH242789   4.004   3.534   3.106  0.5207 -0.2050 -0.1120
 7125TIP3    H142790   4.054   3.489   3.038  1.2379  0.3970  0.0017
 7125TIP3    H242791   4.052   3.517   3.187 -0.0327 -0.4744  0.1693
 7126TIP3   OH242792   6.090   5.132   4.852  0.4071  0.0605 -0.2459
 7126TIP3    H142793   6.150   5.207   4.845  1.4398 -0.7421 -0.1593
 7126TIP3    H242794   6.008   5.170   4.885  1.0445  1.0934  0.1965
 7127TIP3   OH242795   1.863   6.419   6.576  0.2096  0.0952  0.1602
 7127TIP3    H142796   1.936   6.457   6.625 -2.0535  1.5742  2.7183
 7127TIP3    H242797   1.787   6.434   6.632 -2.2214 -0.6249 -2.6967
 7128TIP3   OH242798   2.323   1.743   0.408 -0.1103 -0.2198  0.3056
 7128TIP3    H142799   2.388   1.731   0.478  1.0343 -0.8162 -0.8171
 7128TIP3    H242800   2.249   1.786   0.451 -0.4158 -2.6368  2.4152
 7129TIP3   OH242801   0.783   4.256   6.283 -0.7784 -0.5976 -0.5770
 7129TIP3    H142802   0.790   4.303   6.366  0.2799  0.6691 -1.3465
 7129TIP3    H242803   0.833   4.175   6.297 -0.2214 -0.1822 -0.1241
 7130TIP3   OH242804   4.339   3.110   4.888 -0.4233 -0.3242 -0.6235
 7130TIP3    H142805   4.376   3.070   4.967 -0.6723  1.2209  0.3209
 7130TIP3    H242806   4.412   3.112   4.826  0.6574  1.0700  0.6040
 7131TIP3   OH242807   0.136   4.222   1.350  0.5144 -0.3385 -0.1813
 7131TIP3    H142808   0.217   4.196   1.308  0.6686  0.4875 -0.4120
 7131TIP3    H242809   0.142   4.317   1.359 -0.3526 -0.2801 -0.0490
 7132TIP3   OH242810   1.590   6.220  11.153  0.3916  0.3156 -0.4762
 7132TIP3    H142811   1.518   6.164  11.126  0.8186 -1.3404  1.5382
 7132TIP3    H242812   1.664   6.191  11.100  0.4524 -0.6349  0.1013
 7133TIP3   OH242813   2.928   1.040   2.381 -0.2892 -0.2567  0.2285
 7133TIP3    H142814   2.894   1.120   2.340 -0.5141  0.1419  1.1751
 7133TIP3    H242815   2.889   0.969   2.331 -3.3272  0.1290  1.8201
 7134TIP3   OH242816   2.416   1.822  15.600  0.5822  0.1518  0.3199
 7134TIP3    H142817   2.468   1.890  15.643  0.2989  0.1537  0.6692
 7134TIP3    H242818   2.335   1.818  15.652  0.6085 -0.4683  0.3198
 7135TIP3   OH242819   1.239   0.123   2.327  0.5688  0.6845 -0.4286
 7135TIP3    H142820   1.274   0.192   2.270 -1.6882  0.9256 -1.6018
 7135TIP3    H242821   1.294   0.047   2.309 -0.9361  0.2793 -4.1817
 7136TIP3   OH242822   4.106   1.461  16.695 -0.2373 -0.2091  0.0794
 7136TIP3    H142823   4.036   1.492  16.753  0.6122  1.6336  0.1805
 7136TIP3    H242824   4.074   1.479  16.606 -0.8366 -1.4956  0.0190
 7137TIP3   OH242825   0.584   1.002   1.765 -0.4258 -0.0536  0.2777
 7137TIP3    H142826   0.620   0.922   1.803  0.4800  0.0473 -0.3402
 7137TIP3    H242827   0.545   1.048   1.840  0.3628 -0.3727  0.9054
 7138TIP3   OH242828   5.029   5.765   4.441 -0.0445 -0.7337 -0.1761
 7138TIP3    H142829   5.074   5.696   4.393  0.8335 -0.4649  0.2506
 7138TIP3    H242830   5.035   5.842   4.384  0.8993 -0.4439  0.3020
 7139TIP3   OH242831   4.553   1.703   4.629 -0.4984 -0.1417  0.2439
 7139TIP3    H142832   4.626   1.680   4.686  1.1935 -1.2100 -2.1444
 7139TIP3    H242833   4.564   1.796   4.612  0.5093 -0.3410 -0.2798
 7140TIP3   OH242834   1.348   4.542   0.169  0.7834  0.2398 -0.1839
 7140TIP3    H142835   1.353   4.634   0.141  3.0140  0.7572  1.5896
 7140TIP3    H242836   1.411   4.536   0.241  1.5818 -2.9889 -1.0221
 7141TIP3   OH242837   6.051   3.537   0.996  0.0325 -0.3845  0.0149
 7141TIP3    H142838   6.105   3.512   0.921 -1.3806 -0.5507 -0.9888
 7141TIP3    H242839   6.007   3.456   1.022 -0.7755  0.0108 -0.0824
 7142TIP3   OH242840   0.495   3.542  10.259  0.0934 -0.0623 -0.2358
 7142TIP3    H142841   0.530   3.455  10.275 -1.7162 -0.9603 -0.9474
 7142TIP3    H242842   0.550   3.600  10.313  2.4144 -1.3749 -1.0264
 7143TIP3   OH242843   2.577   1.967  15.738  0.3296 -0.3135  0.0353
 7143TIP3    H142844   2.614   2.034  15.795 -1.1257  0.0080  0.6472
 7143TIP3    H242845   2.604   1.992  15.650  1.0884  0.2022  0.4013
 7144TIP3   OH242846   6.117   4.140   0.001  0.1273 -0.9095  0.3023
 7144TIP3    H142847   6.172   4.149   0.078  1.7739 -2.2847 -0.6309
 7144TIP3    H242848   6.027   4.145   0.034  0.7902 -1.2947  2.2683
 7145TIP3   OH242849   2.583   6.691  17.315  0.0685  0.3419 -0.5164
 7145TIP3    H142850   2.624   6.775  17.334 -1.3012  0.9221 -0.0171
 7145TIP3    H242851   2.636   6.654  17.244  0.9274  1.4319 -0.4660
 7146TIP3   OH242852   4.410   3.794  15.582 -0.0622 -0.0832  0.4902
 7146TIP3    H142853   4.379   3.868  15.635  0.6150  0.6446 -0.1078
 7146TIP3    H242854   4.490   3.765  15.625  0.0137 -0.0658  0.3601
 7147TIP3   OH242855   4.186   3.928  11.826  0.2018  0.4743 -0.2246
 7147TIP3    H142856   4.123   3.993  11.794 -1.7951 -1.2351  0.0533
 7147TIP3    H242857   4.202   3.871  11.750 -0.9282 -0.8252  0.4670
 7148TIP3   OH242858   3.023   3.971   1.686 -0.1192 -0.4453 -0.0115
 7148TIP3    H142859   3.082   3.895   1.688 -0.3106 -0.6538 -1.3110
 7148TIP3    H242860   3.059   4.028   1.619 -0.2490  0.4078  0.6251
 7149TIP3   OH242861   2.779   0.091   3.375  0.1492 -0.3472 -0.1827
 7149TIP3    H142862   2.711   0.027   3.398  0.3034 -0.5566 -0.3144
 7149TIP3    H242863   2.730   0.170   3.354  0.0361  0.2077  1.9669
 7150TIP3   OH242864   0.832   0.811  15.194 -0.0281 -0.6202  0.4654
 7150TIP3    H142865   0.754   0.789  15.144  1.7210 -2.6377 -1.6045
 7150TIP3    H242866   0.808   0.889  15.244 -2.8483 -0.2782 -1.2363
 7151TIP3   OH242867   1.199   3.129  10.717 -0.4277  0.4445 -0.1284
 7151TIP3    H142868   1.266   3.195  10.696 -0.6144  0.4827 -0.6224
 7151TIP3    H242869   1.118   3.165  10.679 -0.3599 -0.4883 -1.2088
 7152TIP3   OH242870   4.159   3.252   5.401  0.6137  0.3662  0.1915
 7152TIP3    H142871   4.251   3.263   5.425  0.2403  0.3909  1.7394
 7152TIP3    H242872   4.157   3.264   5.306  2.1356  0.7952  0.1872
 7153TIP3   OH242873   0.060   6.256   0.790  0.1460 -0.3981  0.1174
 7153TIP3    H142874   0.049   6.303   0.872 -0.4215 -0.9296  0.3499
 7153TIP3    H242875  -0.020   6.274   0.740 -0.4454 -1.7263  0.5283
 7154TIP3   OH242876   5.515   1.539  16.187 -0.6062  0.4159  0.5343
 7154TIP3    H142877   5.425   1.551  16.218 -0.2924  0.5554  1.4401
 7154TIP3    H242878   5.522   1.445  16.168 -1.0615  0.4759  0.0417
 7155TIP3   OH242879   2.451   4.190   0.111 -0.6581 -0.2864 -0.2638
 7155TIP3    H142880   2.452   4.278   0.150 -2.5632  0.3738 -1.5369
 7155TIP3    H242881   2.493   4.202   0.026 -2.6134 -0.0820 -1.2784
 7156TIP3   OH242882   3.175   3.818  13.655  0.0840 -0.1817  0.0355
 7156TIP3    H142883   3.200   3.826  13.748 -0.4207 -0.8182  0.2320
 7156TIP3    H242884   3.258   3.809  13.609  0.4703  1.9755  0.2161
 7157TIP3   OH242885   6.152   6.580  11.103  0.1976 -0.0628 -0.4549
 7157TIP3    H142886   6.128   6.535  11.184 -1.4161 -1.9574 -1.8905
 7157TIP3    H242887   6.068   6.604  11.062  0.9491  3.8104 -0.1301
 7158TIP3   OH242888   6.316   5.735   4.643  0.4530  0.1784 -0.3094
 7158TIP3    H142889   6.258   5.735   4.719  2.1652  1.0265  1.0491
 7158TIP3    H242890   6.265   5.777   4.574 -0.3688  1.3615  0.9780
 7159TIP3   OH242891   5.264   6.195   2.896  0.1518  0.0835 -0.2176
 7159TIP3    H142892   5.181   6.239   2.875 -0.3839 -0.9734 -0.3626
 7159TIP3    H242893   5.312   6.194   2.813  0.1574  0.3638 -0.2202
 7160TIP3   OH242894   4.938   3.902  16.421 -0.1962 -0.4156  0.2156
 7160TIP3    H142895   4.891   3.839  16.367  0.1886 -0.4719 -0.0579
 7160TIP3    H242896   4.870   3.947  16.470 -0.3949 -2.0222  1.4988
 7161TIP3   OH242897   1.602   4.717   3.430 -0.6462  0.2127  0.1956
 7161TIP3    H142898   1.516   4.744   3.399 -0.5126 -0.0641 -0.4228
 7161TIP3    H242899   1.592   4.709   3.525 -1.5717 -0.7787  0.0229
 7162TIP3   OH242900   1.816   0.919  14.660  0.5455 -0.4263 -0.0568
 7162TIP3    H142901   1.769   0.846  14.698 -0.7210 -0.3115 -1.3081
 7162TIP3    H242902   1.847   0.970  14.735  0.3824 -1.5635  0.8089
 7163TIP3   OH242903   6.667   1.088  13.083  0.3840  0.0542 -0.8121
 7163TIP3    H142904   6.757   1.107  13.111  0.2151 -0.1809 -0.0622
 7163TIP3    H242905   6.664   1.113  12.991  0.7858  1.4969 -0.4518
 7164TIP3   OH242906   5.572   2.669  16.514 -1.3330 -0.2895 -0.1139
 7164TIP3    H142907   5.551   2.588  16.467  0.1470  0.3310 -1.9886
 7164TIP3    H242908   5.572   2.737  16.446 -1.4553  1.1238  1.2258
 7165TIP3   OH242909   5.180   5.688   0.843 -0.1594 -0.3781 -0.0588
 7165TIP3    H142910   5.248   5.673   0.909 -0.2169  0.9808  0.3379
 7165TIP3    H242911   5.201   5.773   0.805 -1.0895 -0.3751 -0.6106
 7166TIP3   OH242912   3.834   1.517   4.198  0.1072 -0.0410  0.4927
 7166TIP3    H142913   3.865   1.453   4.133 -0.1907 -0.1176  0.4260
 7166TIP3    H242914   3.831   1.467   4.280 -0.3794 -0.1851  0.3894
 7167TIP3   OH242915   1.113   2.588  16.511  0.2119  0.1126  0.8439
 7167TIP3    H142916   1.172   2.632  16.450 -2.3416 -0.3812 -2.1941
 7167TIP3    H242917   1.063   2.659  16.551  1.4998  0.3921  2.0584
 7168TIP3   OH242918   4.597   2.199  15.669  0.4783  0.5993 -0.1345
 7168TIP3    H142919   4.511   2.204  15.627  1.1093  0.5504 -1.4665
 7168TIP3    H242920   4.651   2.261  15.620  1.0452  1.1358  1.1209
 7169TIP3   OH242921   4.759   1.618  11.587  0.4535 -0.0708 -0.3786
 7169TIP3    H142922   4.750   1.640  11.680 -0.3780 -0.5487 -0.3394
 7169TIP3    H242923   4.854   1.618  11.572  0.5498  1.3421  0.1300
 7170TIP3   OH242924   3.005   0.353  16.261 -0.1884 -0.3062 -0.5291
 7170TIP3    H142925   2.950   0.415  16.309 -2.0044 -1.0483 -1.5594
 7170TIP3    H242926   3.070   0.408  16.217 -1.1087  0.7781 -0.5909
 7171TIP3   OH242927   0.122   4.501   1.874 -0.0889  0.2627 -0.1896
 7171TIP3    H142928   0.101   4.413   1.904  1.8520 -1.1707 -2.6327
 7171TIP3    H242929   0.068   4.514   1.797 -0.0659  1.0577 -0.0783
 7172TIP3   OH242930   4.985   5.123  16.031  0.2706 -0.6453  0.2694
 7172TIP3    H142931   5.032   5.096  16.110 -0.6732  3.6189  2.5942
 7172TIP3    H242932   5.042   5.188  15.990 -0.1529 -1.3365 -1.5056
 7173TIP3   OH242933   0.459   1.078   0.587 -0.0627 -0.4905 -0.0984
 7173TIP3    H142934   0.468   1.170   0.562 -0.2597 -0.1991  0.8601
 7173TIP3    H242935   0.465   1.030   0.504 -0.2950  0.4062 -0.6514
 7174TIP3   OH242936   1.798   2.407  14.652 -0.3130 -0.4491 -0.1864
 7174TIP3    H142937   1.780   2.454  14.571 -1.0475  0.7353  0.6185
 7174TIP3    H242938   1.789   2.314  14.630 -2.1108 -0.0913 -1.0934
 7175TIP3   OH242939   1.859   1.984  12.261  0.2935  0.0180 -0.5134
 7175TIP3    H142940   1.867   1.965  12.168  0.5414 -0.4468 -0.3988
 7175TIP3    H242941   1.769   2.018  12.271  0.2062 -0.1046 -0.8881
 7176TIP3   OH242942   1.407   0.663  13.467  0.3288  0.1578 -0.2677
 7176TIP3    H142943   1.329   0.624  13.506 -0.5055 -0.0198 -2.0029
 7176TIP3    H242944   1.480   0.632  13.521 -0.8649  1.3224  2.1359
 7177TIP3   OH242945   4.351   1.693  14.771  0.2686  0.2650  0.5398
 7177TIP3    H142946   4.356   1.788  14.766  1.1555  0.2097  0.1910
 7177TIP3    H242947   4.294   1.668  14.699 -0.0155  0.5391  0.6703
 7178TIP3   OH242948   2.695   6.073   5.497 -0.1040 -0.1043  0.1414
 7178TIP3    H142949   2.663   6.005   5.438 -1.0656 -0.0885  0.6332
 7178TIP3    H242950   2.765   6.117   5.448  0.4302 -1.3409 -0.2349
 7179TIP3   OH242951   5.749   5.968  16.187  0.3641  0.1384 -0.6511
 7179TIP3    H142952   5.719   5.922  16.266  1.5361 -1.5220 -1.1108
 7179TIP3    H242953   5.670   5.981  16.135 -0.0114 -1.5319 -0.5516
 7180TIP3   OH242954   2.504   5.599   4.707  0.3287 -0.2284  0.1854
 7180TIP3    H142955   2.498   5.694   4.703 -0.0222 -0.2367  0.4733
 7180TIP3    H242956   2.537   5.573   4.620 -1.5720  0.0048 -0.6548
 7181TIP3   OH242957   3.215   1.159   3.031 -0.1604 -0.0444 -0.2820
 7181TIP3    H142958   3.294   1.124   3.072  1.5457  1.7483 -1.8426
 7181TIP3    H242959   3.173   1.083   2.990  2.0876 -0.7216 -1.4958
 7182TIP3   OH242960   3.143   1.014  13.909  0.4525 -0.4816  0.1769
 7182TIP3    H142961   3.164   1.024  14.001  0.6224 -0.8892  0.1844
 7182TIP3    H242962   3.175   0.927  13.886  0.7428 -0.2426 -0.3581
 7183TIP3   OH242963   0.642   3.261  13.073 -0.4343  0.2317  0.3508
 7183TIP3    H142964   0.642   3.302  13.160  0.6080 -1.2450  1.0719
 7183TIP3    H242965   0.650   3.168  13.090 -0.5651 -0.1211 -1.3448
 7184TIP3   OH242966   3.376   5.542  16.386  0.0223  0.6119  0.5360
 7184TIP3    H142967   3.322   5.621  16.386 -0.3382  0.3766  1.3394
 7184TIP3    H242968   3.313   5.471  16.372 -0.1062  0.2152  2.7453
 7185TIP3   OH242969   1.741   1.035   5.310 -0.0479  0.1681  0.0671
 7185TIP3    H142970   1.709   1.009   5.223 -0.6362 -2.7373  1.0570
 7185TIP3    H242971   1.664   1.069   5.355  0.1561  1.2148 -0.3392
 7186TIP3   OH242972   5.045   2.006   4.309  0.3555 -0.1091  0.2601
 7186TIP3    H142973   4.991   1.930   4.328 -0.5819  0.6473  0.7209
 7186TIP3    H242974   5.056   2.049   4.394 -0.2079  0.9508 -0.1803
 7187TIP3   OH242975   6.542   2.063  12.512 -0.3364 -0.1390 -0.0386
 7187TIP3    H142976   6.482   2.119  12.463  2.4796  1.5561 -1.8606
 7187TIP3    H242977   6.575   2.001  12.448 -0.1200 -1.0703  0.9368
 7188TIP3   OH242978   4.789   1.194   4.628 -0.3029  0.5274  1.0045
 7188TIP3    H142979   4.825   1.147   4.553 -0.2677  0.6228  0.9611
 7188TIP3    H242980   4.768   1.281   4.594  1.6114  1.2661  1.5701
 7189TIP3   OH242981   0.192   0.212   5.361 -0.6031 -0.3118 -0.6698
 7189TIP3    H142982   0.169   0.120   5.363  0.9450 -0.7442 -1.4563
 7189TIP3    H242983   0.257   0.220   5.291 -2.0278  1.6953 -1.8942
 7190TIP3   OH242984   2.991   4.276   4.476  0.7330 -0.3590 -0.2277
 7190TIP3    H142985   2.936   4.198   4.489  0.5068 -0.2639 -0.5941
 7190TIP3    H242986   2.930   4.342   4.443  1.1205 -0.3467 -0.9453
 7191TIP3   OH242987   3.284   3.706   1.109 -0.1665  0.0453  0.1996
 7191TIP3    H142988   3.272   3.633   1.169  0.4007 -0.8544 -0.7404
 7191TIP3    H242989   3.298   3.665   1.024  1.6449  1.1738 -0.1147
 7192TIP3   OH242990   6.222   3.072  13.199 -1.0017 -0.4322 -0.1155
 7192TIP3    H142991   6.176   3.098  13.279  0.3452 -0.2246  0.6222
 7192TIP3    H242992   6.254   3.154  13.162 -0.6518 -0.6285 -0.2529
 7193TIP3   OH242993   5.050   2.591  16.948  0.2648  0.4318  0.0498
 7193TIP3    H142994   5.112   2.524  16.976  0.9966  1.1843  0.2564
 7193TIP3    H242995   5.000   2.611  17.027 -1.6516 -1.5827 -0.5361
 7194TIP3   OH242996   1.410   2.768  12.855  0.5061  0.1174  0.1575
 7194TIP3    H142997   1.339   2.803  12.801 -1.5626  2.5349  4.0318
 7194TIP3    H242998   1.368   2.705  12.913  2.1063 -0.4914  0.7268
 7195TIP3   OH242999   5.158   1.563  15.156 -0.6454 -0.3265 -0.3848
 7195TIP3    H143000   5.145   1.658  15.158 -2.5416 -0.4618 -2.2971
 7195TIP3    H243001   5.079   1.527  15.197  0.6514 -1.1198  1.5572
 7196TIP3   OH243002   3.999   0.667   2.184  0.3935 -0.5659 -0.3010
 7196TIP3    H143003   3.979   0.582   2.144 -2.2704 -1.2747  2.2061
 7196TIP3    H243004   3.916   0.695   2.222  1.1040  3.3556 -1.2075
 7197TIP3   OH243005   4.724   0.823   1.153  0.4022  0.0993 -0.3976
 7197TIP3    H143006   4.783   0.826   1.228 -1.1831  1.3478  0.8643
 7197TIP3    H243007   4.781   0.843   1.078  2.2795 -2.5021  0.1942
 7198TIP3   OH243008   5.589   1.381  17.316 -0.2089  0.0764 -0.5165
 7198TIP3    H143009   5.646   1.403  17.242 -0.4121  1.0098 -0.4037
 7198TIP3    H243010   5.639   1.318  17.367  0.2645  0.0350 -1.0182
 7199TIP3   OH243011   6.156   4.374  15.258 -0.2971 -0.4615  0.0848
 7199TIP3    H143012   6.116   4.297  15.298 -0.8229 -0.8708 -1.1668
 7199TIP3    H243013   6.250   4.360  15.267 -0.3662  0.2352  2.5594
 7200TIP3   OH243014   4.376   0.312   4.107  0.4140  0.1927  0.1113
 7200TIP3    H143015   4.343   0.388   4.154  0.7787  0.6055 -0.2841
 7200TIP3    H243016   4.325   0.311   4.025 -0.3627 -0.6382  0.5865
 7201TIP3   OH243017   4.860   2.421  16.823  0.0720 -0.1546 -0.2799
 7201TIP3    H143018   4.929   2.476  16.861 -1.9914  1.3192  1.6108
 7201TIP3    H243019   4.839   2.358  16.892 -1.1648  0.1052 -0.3914
 7202TIP3   OH243020   4.028   1.938   5.935 -0.3290  0.4624 -0.0380
 7202TIP3    H143021   4.084   1.949   6.012  0.1435  0.9695 -0.4434
 7202TIP3    H243022   4.064   1.860   5.891 -1.1548 -0.3679  0.7051
 7203TIP3   OH243023   5.763   3.177  10.447  0.1508 -0.6114 -0.3285
 7203TIP3    H143024   5.762   3.090  10.408 -4.7231 -0.8157 -0.4376
 7203TIP3    H243025   5.730   3.235  10.378  0.3151  0.7433  0.6835
 7204TIP3   OH243026   2.645   3.178  13.331  0.2668 -0.5623 -0.3116
 7204TIP3    H143027   2.573   3.214  13.382 -0.6271 -1.7789 -0.6877
 7204TIP3    H243028   2.674   3.102  13.381  0.8605 -0.4681 -0.5040
 7205TIP3   OH243029   2.320   1.042   4.343  0.2822  0.1032  0.2929
 7205TIP3    H143030   2.409   1.013   4.323 -0.3117 -1.2305 -0.5706
 7205TIP3    H243031   2.297   1.102   4.273  0.2970 -0.0029  0.1978
 7206TIP3   OH243032   4.695   4.004  17.242 -1.0443  0.3176 -0.1878
 7206TIP3    H143033   4.711   3.988  17.149 -0.0750  0.6354 -0.0861
 7206TIP3    H243034   4.633   4.077  17.243  1.0348  2.2161 -0.6052
 7207TIP3   OH243035   3.588   4.612   0.885 -0.1226  0.6930  0.4559
 7207TIP3    H143036   3.563   4.618   0.978  0.9218 -0.7245  0.8656
 7207TIP3    H243037   3.539   4.537   0.852  1.2837 -0.2764  0.5011
 7208TIP3   OH243038   5.845   4.555   3.000 -0.1585  0.3116  0.2405
 7208TIP3    H143039   5.764   4.539   2.951  0.7844 -0.4841 -1.1075
 7208TIP3    H243040   5.898   4.477   2.985  0.8303  0.7846  1.1913
 7209TIP3   OH243041   2.334   3.023   0.251  0.0617  0.3731 -0.2175
 7209TIP3    H143042   2.301   2.940   0.284  0.1794 -0.0706 -1.2081
 7209TIP3    H243043   2.313   3.086   0.321  0.6566 -0.6098  0.8734
 7210TIP3   OH243044   5.120   4.294   6.168 -0.0682 -0.4051  0.0337
 7210TIP3    H143045   5.053   4.248   6.220 -1.6612  1.2070 -0.4772
 7210TIP3    H243046   5.149   4.365   6.226 -1.8434  1.3949 -1.1454
 7211TIP3   OH243047   4.009   5.281  15.374  0.1907 -0.3788  0.3656
 7211TIP3    H143048   4.101   5.278  15.349 -0.2379  1.1118 -1.7164
 7211TIP3    H243049   3.963   5.242  15.300 -0.8951 -0.5992  1.1296
 7212TIP3   OH243050   3.474   0.377  15.564 -0.5707  0.1079 -0.5280
 7212TIP3    H143051   3.495   0.470  15.557  1.1572 -0.1617  0.4736
 7212TIP3    H243052   3.502   0.340  15.480  0.5085  0.2016 -0.2178
 7213TIP3   OH243053   5.243   2.971   2.380 -0.3754  0.9905  0.0712
 7213TIP3    H143054   5.253   2.881   2.350 -0.1759  1.5587 -1.6478
 7213TIP3    H243055   5.311   2.981   2.447  0.8808  0.4176 -1.0795
 7214TIP3   OH243056   6.735   6.669   2.620 -0.2152  0.1317 -0.2795
 7214TIP3    H143057   6.656   6.617   2.630 -0.1645 -0.0263 -0.6917
 7214TIP3    H243058   6.722   6.743   2.679 -1.4476  1.0319 -1.6075
 7215TIP3   OH243059   6.543   4.929  12.109  0.1357 -0.7014  0.4687
 7215TIP3    H143060   6.465   4.878  12.089  0.1020 -0.6212  0.3944
 7215TIP3    H243061   6.524   4.970  12.193  0.4256 -1.3360  0.8506
 7216TIP3   OH243062   0.547   1.281   4.865 -0.4905 -0.2574 -0.3854
 7216TIP3    H143063   0.572   1.231   4.787  1.0152 -0.2398  0.0614
 7216TIP3    H243064   0.455   1.257   4.880 -0.7771 -0.3314 -2.0952
 7217TIP3   OH243065   0.547   3.586  12.543 -0.0143  0.1410  0.2508
 7217TIP3    H143066   0.500   3.507  12.569 -1.1720  0.7461  0.0668
 7217TIP3    H243067   0.485   3.657  12.559 -0.2220  0.7140 -2.6879
 7218TIP3   OH243068   0.615   3.228   2.457 -0.6310 -0.4202  0.2815
 7218TIP3    H143069   0.546   3.248   2.394 -2.0258 -0.9336  1.6059
 7218TIP3    H243070   0.693   3.270   2.421 -1.2756 -1.0261 -1.9850
 7219TIP3   OH243071   0.332   4.925  14.980 -0.5524  0.0309  0.4287
 7219TIP3    H143072   0.258   4.886  14.932 -1.2947  1.0139  0.7468
 7219TIP3    H243073   0.320   4.894  15.070 -0.0247 -0.5763  0.2965
 7220TIP3   OH243074   6.334   5.812  16.224  0.0603 -0.0052 -0.3181
 7220TIP3    H143075   6.374   5.835  16.141  2.6745  1.2216  1.1430
 7220TIP3    H243076   6.392   5.851  16.290 -2.0735 -0.6091  2.0792
 7221TIP3   OH243077   2.790   6.066   3.575  0.0386 -0.4652  0.1342
 7221TIP3    H143078   2.699   6.093   3.588 -0.7308 -1.2765 -2.8777
 7221TIP3    H243079   2.794   5.977   3.608 -0.5488 -0.7626 -0.5667
 7222TIP3   OH243080   3.249   2.573  15.653  0.3229 -0.0081  0.0635
 7222TIP3    H143081   3.321   2.630  15.624  2.1252 -2.7687 -1.3442
 7222TIP3    H243082   3.170   2.624  15.637  1.8069  2.1562 -0.8886
 7223TIP3   OH243083   6.276   6.353   3.869  0.1323  0.9871 -0.2498
 7223TIP3    H143084   6.342   6.377   3.805  0.5002  1.1121  0.1659
 7223TIP3    H243085   6.209   6.307   3.819  0.9767  0.0220 -0.5482
 7224TIP3   OH243086   1.306   6.737   0.294 -0.0500 -0.0364  0.3427
 7224TIP3    H143087   1.285   6.652   0.257 -1.2948  0.6351 -0.5892
 7224TIP3    H243088   1.221   6.772   0.324  0.3559  1.0590  0.2792
 7225TIP3   OH243089   4.152   5.236  13.678 -0.2966 -0.0849 -0.3252
 7225TIP3    H143090   4.159   5.178  13.603 -2.6813 -1.2538  0.2404
 7225TIP3    H243091   4.062   5.270  13.674 -0.8863 -1.0097  2.4932
 7226TIP3   OH243092   5.800   2.539  11.667  0.0940 -0.2795  0.0793
 7226TIP3    H143093   5.893   2.545  11.644 -0.3228  3.0827 -1.3203
 7226TIP3    H243094   5.755   2.552  11.584 -1.5552  1.6534  1.1891
 7227TIP3   OH243095   3.402   4.727  11.850  0.0321  0.0955  0.8690
 7227TIP3    H143096   3.348   4.730  11.929  0.3983  2.0327  1.0959
 7227TIP3    H243097   3.491   4.717  11.882  0.0008 -1.3996  0.5643
 7228TIP3   OH243098   2.450   0.328   4.612  0.9603 -0.0353 -0.3126
 7228TIP3    H143099   2.505   0.265   4.659  0.7648  0.3062  0.3918
 7228TIP3    H243100   2.402   0.373   4.681  1.1909  0.9782 -0.7980
 7229TIP3   OH243101   1.815   1.720  16.884  0.0767  0.1223  0.1496
 7229TIP3    H143102   1.906   1.746  16.897  0.0881 -0.2239  0.7622
 7229TIP3    H243103   1.775   1.796  16.842  0.4156  0.6664  0.7873
 7230TIP3   OH243104   5.269   1.474  16.005  0.2183 -0.0382 -0.3561
 7230TIP3    H143105   5.262   1.464  15.911 -1.9142  0.6535 -0.3424
 7230TIP3    H243106   5.275   1.569  16.018  1.1502 -0.1654  0.1772
 7231TIP3   OH243107   6.373   3.342   1.518 -0.0600 -0.2730 -0.2432
 7231TIP3    H143108   6.389   3.429   1.553  2.5472 -0.5854 -0.4753
 7231TIP3    H243109   6.390   3.350   1.424  4.6158 -1.7772  0.2182
 7232TIP3   OH243110   5.410   3.661   0.410  0.4404  0.4906 -0.1594
 7232TIP3    H143111   5.498   3.697   0.422  1.3278 -2.0243  1.7415
 7232TIP3    H243112   5.395   3.665   0.316  2.5415  1.0841 -0.5238
 7233TIP3   OH243113   5.994   2.556  12.251  0.5308 -0.4997 -0.0386
 7233TIP3    H143114   6.034   2.627  12.201 -0.1242 -1.0616 -1.4071
 7233TIP3    H243115   5.930   2.599  12.307 -0.5403 -0.0681 -1.5492
 7234TIP3   OH243116   3.898   4.037   3.365 -0.2244  0.2134 -0.4559
 7234TIP3    H143117   3.990   4.009   3.361 -0.1837  0.4787 -1.9797
 7234TIP3    H243118   3.881   4.077   3.279 -1.7270  0.2824 -0.1561
 7235TIP3   OH243119   4.935   3.355   4.836  0.0088  0.4847  0.5258
 7235TIP3    H143120   4.869   3.424   4.833  0.8898  1.3337 -1.6198
 7235TIP3    H243121   5.003   3.389   4.895 -0.1471  0.8690  0.4849
 7236TIP3   OH243122   2.296   5.468   0.015 -0.6204 -0.0015 -0.8284
 7236TIP3    H143123   2.307   5.543  -0.043  1.9011 -1.4472 -2.4314
 7236TIP3    H243124   2.322   5.392  -0.038 -0.0218 -1.6378  1.6175
 7237TIP3   OH243125   6.071   4.585  13.139 -0.0756 -0.5725  0.0548
 7237TIP3    H143126   6.052   4.673  13.171  2.2602  0.4302 -1.0547
 7237TIP3    H243127   6.163   4.571  13.161 -0.4171 -2.8035  0.2858
 7238TIP3   OH243128   5.526   5.065   3.573  0.5321  0.5565  0.0708
 7238TIP3    H143129   5.521   4.980   3.529  0.7323  0.6958 -0.2240
 7238TIP3    H243130   5.594   5.052   3.640  0.5685  0.4854  0.0212
 7239TIP3   OH243131   0.809   0.881   2.737  0.1886 -0.1095 -0.4137
 7239TIP3    H143132   0.728   0.830   2.739  0.0823  0.0662 -0.1821
 7239TIP3    H243133   0.829   0.898   2.830 -0.1308  0.8354 -0.5101
 7240TIP3   OH243134   0.192   0.449   4.718  0.0251 -0.1455  0.3293
 7240TIP3    H143135   0.245   0.523   4.750 -0.1249  0.2585 -0.3281
 7240TIP3    H243136   0.256   0.390   4.679 -0.0334  0.6096 -0.9752
 7241TIP3   OH243137   3.645   5.039  14.608 -0.4574 -0.4136  0.0954
 7241TIP3    H143138   3.638   4.978  14.534 -0.0384  0.7462 -0.9284
 7241TIP3    H243139   3.583   5.109  14.587 -0.6969 -0.3163  1.0948
 7242TIP3   OH243140   0.130   6.092   6.095  1.0282  0.1171  0.6478
 7242TIP3    H143141   0.190   6.127   6.161  1.8140  0.5428 -0.2747
 7242TIP3    H243142   0.159   6.002   6.081  2.7269  0.8802 -1.1808
 7243TIP3   OH243143   2.793   0.878   0.864  0.2906 -0.7974  0.2284
 7243TIP3    H143144   2.863   0.823   0.831 -0.1198 -1.5906  0.6605
 7243TIP3    H243145   2.737   0.894   0.787  1.1552  0.2021 -0.2166
 7244TIP3   OH243146   2.340   3.895  14.211 -0.8591 -0.1121  0.2075
 7244TIP3    H143147   2.306   3.859  14.130 -2.7018  0.1324  0.8238
 7244TIP3    H243148   2.433   3.909  14.194 -0.9509 -1.2108 -1.4288
 7245TIP3   OH243149   6.450   5.077   3.557 -0.0645 -0.1010 -0.1424
 7245TIP3    H143150   6.423   5.066   3.649  2.0290  1.6272  0.7688
 7245TIP3    H243151   6.462   4.987   3.525  0.7978 -0.7520  1.8262
 7246TIP3   OH243152   0.735   1.693   4.287  0.3303 -0.4631  0.2644
 7246TIP3    H143153   0.722   1.733   4.201  1.7022  0.4405  0.4443
 7246TIP3    H243154   0.648   1.692   4.326 -0.1851 -0.1943 -0.8495
 7247TIP3   OH243155   4.711   2.864   0.483  0.0536  0.3769  0.4232
 7247TIP3    H143156   4.754   2.936   0.437  3.4719 -0.9168  1.2926
 7247TIP3    H243157   4.761   2.786   0.458 -2.9388 -1.6772  0.2037
 7248TIP3   OH243158   6.112   1.758  11.111 -0.5087 -0.1044  0.3975
 7248TIP3    H143159   6.141   1.758  11.019 -2.2345 -2.7562 -0.2517
 7248TIP3    H243160   6.017   1.756  11.106 -0.6246 -2.0288  2.1494
 7249TIP3   OH243161   5.519   4.298   3.835 -0.2880  0.1087  0.2760
 7249TIP3    H143162   5.488   4.296   3.926 -0.5090  1.7294  0.2785
 7249TIP3    H243163   5.578   4.223   3.828 -1.0115 -0.6146  1.4743
 7250TIP3   OH243164   4.191   2.344  15.321 -0.3033 -0.3234 -0.2642
 7250TIP3    H143165   4.176   2.403  15.247 -3.0801 -1.3869 -0.6616
 7250TIP3    H243166   4.229   2.399  15.389  0.4980  1.1075 -1.7966
 7251TIP3   OH243167   5.113   1.725  14.225 -0.3366 -0.4900  0.3035
 7251TIP3    H143168   5.054   1.798  14.242  3.0894  2.4347  0.8541
 7251TIP3    H243169   5.119   1.720  14.130 -1.2237 -0.6494  0.2498
 7252TIP3   OH243170   2.202   3.409   1.753  0.5330  0.0672 -0.6780
 7252TIP3    H143171   2.256   3.466   1.808 -1.5521  0.7654  0.8261
 7252TIP3    H243172   2.160   3.349   1.816 -3.3649  2.0584 -1.0298
 7253TIP3   OH243173   4.707   0.960  14.975  0.1582 -0.3087  0.0730
 7253TIP3    H143174   4.737   1.016  14.903 -0.4435  0.6515  0.5444
 7253TIP3    H243175   4.670   0.883  14.931 -2.2679  1.2489 -0.8259
 7254TIP3   OH243176   2.518   2.500  15.452  0.0165 -0.3830 -0.3069
 7254TIP3    H143177   2.424   2.486  15.464 -0.5963  1.7063 -2.0200
 7254TIP3    H243178   2.532   2.590  15.479  0.9396  0.2383 -2.6201
 7255TIP3   OH243179   6.736   5.961   0.836  0.1175 -0.3664  0.7338
 7255TIP3    H143180   6.721   5.917   0.752 -1.1155  0.5538  0.4458
 7255TIP3    H243181   6.792   6.035   0.815 -1.3508  0.6959  0.4442
 7256TIP3   OH243182   5.062   3.286  15.090  0.7059  0.4762 -0.2833
 7256TIP3    H143183   5.029   3.279  15.180 -3.6603 -1.9606 -1.7570
 7256TIP3    H243184   5.123   3.213  15.081 -1.7437 -1.7553 -0.1396
 7257TIP3   OH243185   2.692   1.954  15.071 -0.2033 -0.0352 -0.5914
 7257TIP3    H143186   2.783   1.982  15.085 -0.1603 -0.7474  0.5768
 7257TIP3    H243187   2.682   1.958  14.975  1.1902 -0.3737 -0.7817
 7258TIP3   OH243188   2.728   5.511   6.931  0.5703  0.2090 -0.1654
 7258TIP3    H143189   2.769   5.499   7.017  1.0226  0.0391 -0.3977
 7258TIP3    H243190   2.733   5.424   6.891 -1.3579 -0.1823  0.3611
 7259TIP3   OH243191   0.218   5.010  13.519  0.1264  0.2655  0.1347
 7259TIP3    H143192   0.217   5.102  13.544  2.0978  0.6590 -0.9958
 7259TIP3    H243193   0.260   5.009  13.432  0.0850 -1.6726  0.0894
 7260TIP3   OH243194   2.882   3.574   2.322 -0.3963  0.4803 -0.0241
 7260TIP3    H143195   2.808   3.609   2.273  0.3700  0.1721 -1.4909
 7260TIP3    H243196   2.868   3.603   2.412 -1.0178  2.5088 -0.7213
 7261TIP3   OH243197   5.110   4.837   2.918  0.1756  0.4100 -0.5052
 7261TIP3    H143198   5.031   4.783   2.919 -0.4543  1.3282 -0.1063
 7261TIP3    H243199   5.143   4.830   2.828 -0.8163  0.6886 -0.8950
 7262TIP3   OH243200   5.182   2.789  14.094 -0.5789  0.9419  0.4848
 7262TIP3    H143201   5.190   2.812  14.001 -1.0285  2.3670  0.7758
 7262TIP3    H243202   5.151   2.699  14.093 -1.5820  1.2695 -0.7674
 7263TIP3   OH243203   4.129   0.724  13.224  0.0293  0.6385  0.0762
 7263TIP3    H143204   4.058   0.745  13.163 -2.4992  2.2606  3.2880
 7263TIP3    H243205   4.209   0.754  13.179 -1.3316 -0.1144 -3.1581
 7264TIP3   OH243206   4.817   4.768  14.108 -0.1018 -0.6189 -0.1957
 7264TIP3    H143207   4.758   4.702  14.144  0.2062 -0.4289  0.7021
 7264TIP3    H243208   4.761   4.844  14.092 -0.2045 -0.6319  0.0991
 7265TIP3   OH243209   1.086   6.392  17.124  0.5568  0.0384 -0.8908
 7265TIP3    H143210   1.091   6.447  17.046 -0.1589  2.7944  0.8813
 7265TIP3    H243211   1.176   6.363  17.138  1.1384  1.4844 -1.4212
 7266TIP3   OH243212   3.364   5.128  15.166 -0.0571  0.6346 -0.3631
 7266TIP3    H143213   3.422   5.203  15.149  1.0974 -0.4253 -1.3378
 7266TIP3    H243214   3.380   5.105  15.257  1.9100 -0.2738 -0.8792
 7267TIP3   OH243215   2.575   3.277  15.256  0.0290 -0.1784  0.2481
 7267TIP3    H143216   2.532   3.353  15.294  0.6226  1.6422 -2.4174
 7267TIP3    H243217   2.502   3.225  15.220 -0.2453  0.3708 -0.0029
 7268TIP3   OH243218   1.081   6.035  13.929  0.2669 -0.5393  0.0798
 7268TIP3    H143219   1.133   5.955  13.916  0.1580 -0.7797  1.0629
 7268TIP3    H243220   1.003   6.022  13.875  0.5542 -0.8056 -0.2777
 7269TIP3   OH243221   4.837   2.822  14.350 -0.3473  0.2294 -0.3558
 7269TIP3    H143222   4.749   2.844  14.383 -0.3700  0.1692 -0.3750
 7269TIP3    H243223   4.822   2.798  14.258 -0.3983 -0.3585 -0.1960
 7270TIP3   OH243224   3.591   3.425  15.927 -0.0864 -0.3099  0.3125
 7270TIP3    H143225   3.519   3.366  15.948 -0.9597  0.6504  0.1003
 7270TIP3    H243226   3.613   3.405  15.836  0.9253 -1.6168  0.8127
 7271TIP3   OH243227   0.612   2.872  12.763  0.0258 -0.3504 -0.2599
 7271TIP3    H143228   0.563   2.819  12.700 -0.2381  1.2832 -1.5045
 7271TIP3    H243229   0.578   2.961  12.750  0.5962  0.1670  1.6050
 7272TIP3   OH243230   0.236   5.217   3.056  0.3005 -0.5369  0.4228
 7272TIP3    H143231   0.253   5.138   3.107  1.8389 -1.1433 -0.9320
 7272TIP3    H243232   0.313   5.227   3.000  0.0972  1.8668  0.4434
 7273TIP3   OH243233   0.608   3.237  15.772 -0.6223  0.2554  0.0322
 7273TIP3    H143234   0.546   3.164  15.785 -0.3538  0.0987  0.4690
 7273TIP3    H243235   0.564   3.313  15.810 -0.2792  0.0108  0.9317
 7274TIP3   OH243236   0.810   3.424   1.357  0.2628  0.8454 -0.8851
 7274TIP3    H143237   0.826   3.330   1.345 -0.1255  0.7934 -0.9891
 7274TIP3    H243238   0.877   3.467   1.303  0.7594  0.6355 -0.4487
 7275TIP3   OH243239   5.827   5.896  11.423  0.4691 -0.5953 -0.5352
 7275TIP3    H143240   5.849   5.846  11.502 -0.3133  0.0131  0.0951
 7275TIP3    H243241   5.889   5.969  11.423 -0.8700  0.6142  0.7421
 7276TIP3   OH243242   0.464   2.829  11.059  0.1214 -0.2244  0.1558
 7276TIP3    H143243   0.539   2.785  11.019  0.3794  1.2437 -1.0453
 7276TIP3    H243244   0.446   2.904  11.001 -1.3321  0.3036  1.2341
 7277TIP3   OH243245   4.317   6.415   0.476  0.1614 -0.2351 -0.6976
 7277TIP3    H143246   4.283   6.424   0.565 -0.9194 -0.5707 -1.0590
 7277TIP3    H243247   4.396   6.362   0.486  1.0114  1.1490  0.2473
 7278TIP3   OH243248   5.259   2.815  14.837  0.4475 -0.0370 -0.0343
 7278TIP3    H143249   5.351   2.834  14.819  0.3218 -0.3374 -1.0180
 7278TIP3    H243250   5.210   2.870  14.776 -0.0378  0.0883  0.4532
 7279TIP3   OH243251   3.419   6.202  16.149 -0.1752  0.8655 -0.6450
 7279TIP3    H143252   3.474   6.125  16.132 -1.3852 -0.3422  0.5689
 7279TIP3    H243253   3.479   6.276  16.149  1.8954 -0.6175  2.8096
 7280TIP3   OH243254   1.437   5.579   3.578  0.2800 -0.8023 -0.3264
 7280TIP3    H143255   1.401   5.583   3.666  1.1943  1.7637  0.0189
 7280TIP3    H243256   1.361   5.571   3.521 -0.3481 -2.1104  0.6316
 7281TIP3   OH243257   4.372   1.678   1.916  0.4133  0.5073  0.0148
 7281TIP3    H143258   4.307   1.614   1.942  0.5975  0.5842  0.6917
 7281TIP3    H243259   4.388   1.661   1.823 -2.2876  1.9968 -0.8223
 7282TIP3   OH243260   4.585   5.779  14.200  0.8900 -0.6956 -0.0625
 7282TIP3    H143261   4.659   5.834  14.222  0.8240 -0.8375  0.5487
 7282TIP3    H243262   4.518   5.803  14.264  0.4213 -0.5950 -0.5841
 7283TIP3   OH243263   0.253   5.958   4.094 -0.3063 -0.0404 -0.0773
 7283TIP3    H143264   0.185   5.949   4.160 -0.0367  0.8065  0.3401
 7283TIP3    H243265   0.334   5.933   4.138 -0.2021 -0.0216 -0.2534
 7284TIP3   OH243266   0.913   0.892   0.861  0.1896  0.6812  0.5273
 7284TIP3    H143267   0.933   0.933   0.777  1.2186  0.0671  0.4511
 7284TIP3    H243268   0.986   0.831   0.876  0.0421  0.7987  1.8813
 7285TIP3   OH243269   4.482   4.774  13.816  0.1580  0.4924  0.0172
 7285TIP3    H143270   4.528   4.709  13.869 -0.9188  0.6127  1.1526
 7285TIP3    H243271   4.551   4.834  13.786  1.4305 -1.8995 -2.3148
 7286TIP3   OH243272   5.934   3.650  14.640 -0.2798  0.2043  0.4321
 7286TIP3    H143273   6.027   3.634  14.659 -0.0173  0.9437 -0.1538
 7286TIP3    H243274   5.936   3.718  14.572 -1.2486  0.0745  0.2715
 7287TIP3   OH243275   3.683   0.630  16.254  0.1792  0.1160  0.4746
 7287TIP3    H143276   3.648   0.716  16.233 -0.9408 -0.5091 -0.2879
 7287TIP3    H243277   3.678   0.581  16.172 -0.4453 -1.0818  1.2060
 7288TIP3   OH243278   3.748   5.326  17.100 -0.1229 -0.3157  0.1550
 7288TIP3    H143279   3.690   5.401  17.107  0.0604 -0.2221  0.6818
 7288TIP3    H243280   3.699   5.254  17.140 -0.2283 -0.4412 -0.1932
 7289TIP3   OH243281   4.715   6.158  15.313 -0.5610  0.1573 -0.0610
 7289TIP3    H143282   4.726   6.253  15.312  3.0710 -0.1223 -0.0796
 7289TIP3    H243283   4.690   6.137  15.403 -4.3312  1.1747 -0.6654
 7290TIP3   OH243284   5.532   3.279   6.062  0.1345  0.7932  0.1951
 7290TIP3    H143285   5.606   3.280   6.122 -0.3097 -0.4073  0.8079
 7290TIP3    H243286   5.483   3.359   6.082 -0.1172  0.3143  1.6065
 7291TIP3   OH243287   0.219   5.912  11.636  0.1066  0.3642  0.6564
 7291TIP3    H143288   0.159   5.854  11.684 -0.8195 -0.2686 -1.1936
 7291TIP3    H243289   0.244   5.978  11.701 -1.1474 -0.4166  2.0032
 7292TIP3   OH243290   2.107   2.419  14.766 -0.1150  0.0256 -0.2825
 7292TIP3    H143291   2.031   2.360  14.762  1.0670 -1.5082 -1.0088
 7292TIP3    H243292   2.068   2.506  14.780 -1.8859 -0.9622  1.4698
 7293TIP3   OH243293   5.140   3.850   6.306  0.2386 -0.3688 -0.2166
 7293TIP3    H143294   5.206   3.831   6.373 -0.2289 -0.0032  0.3608
 7293TIP3    H243295   5.186   3.900   6.240 -0.0228  2.2768  1.4730
 7294TIP3   OH243296   3.958   5.073   4.161 -0.3725 -0.1629 -0.2071
 7294TIP3    H143297   3.954   5.017   4.083 -3.5862 -2.0852  1.1220
 7294TIP3    H243298   4.021   5.029   4.218  2.3214  1.4790 -1.6930
 7295TIP3   OH243299   1.671   5.511   5.459  0.1125 -0.6722 -0.3090
 7295TIP3    H143300   1.615   5.587   5.447  2.5984  1.1707 -1.2187
 7295TIP3    H243301   1.628   5.440   5.411 -0.5873  1.1055 -2.4457
 7296TIP3   OH243302   1.280   2.157  12.516 -0.2343  0.2127  0.2540
 7296TIP3    H143303   1.220   2.107  12.461  1.3721  0.7001 -2.0938
 7296TIP3    H243304   1.224   2.200  12.580 -2.2038 -0.5169 -0.8892
 7297TIP3   OH243305   2.968   4.851  12.653  0.1955 -0.0450  0.2058
 7297TIP3    H143306   2.925   4.847  12.738  0.8166  1.0905  0.5950
 7297TIP3    H243307   2.935   4.931  12.613 -0.3844 -0.7670 -0.7990
 7298TIP3   OH243308   3.167   5.769   0.746  0.0144  0.2983  0.6278
 7298TIP3    H143309   3.239   5.709   0.763  0.5956  1.1076  1.1235
 7298TIP3    H243310   3.114   5.767   0.826  0.6488  1.2551  1.0942
 7299TIP3   OH243311   0.595   2.112   4.457  0.1388  0.1075 -0.1096
 7299TIP3    H143312   0.538   2.132   4.382  0.0846  0.4143  0.0132
 7299TIP3    H243313   0.544   2.052   4.510  0.5891 -0.9679 -0.8539
 7300TIP3   OH243314   5.810   6.500   1.613  0.6488 -0.8441  0.1703
 7300TIP3    H143315   5.805   6.545   1.697 -2.9116 -1.4989  0.4815
 7300TIP3    H243316   5.800   6.569   1.547  1.8207 -0.5243  0.2997
 7301TIP3   OH243317   5.706   5.468   1.075 -0.6303  0.1145  0.1425
 7301TIP3    H143318   5.638   5.460   1.142 -1.7488 -0.4966 -1.0156
 7301TIP3    H243319   5.711   5.562   1.057 -0.9885  0.1900  0.4350
 7302TIP3   OH243320   6.260   4.579   3.224 -0.2207  0.2588  0.0027
 7302TIP3    H143321   6.200   4.528   3.278  0.4045 -0.4475  0.0516
 7302TIP3    H243322   6.204   4.641   3.178 -0.7902  0.7874  1.3569
 7303TIP3   OH243323   0.376   5.799  11.907 -0.2228 -0.3385 -0.0148
 7303TIP3    H143324   0.412   5.781  11.994 -0.3214 -1.2480 -0.1543
 7303TIP3    H243325   0.337   5.886  11.915  2.0206  0.7307  0.1346
 7304TIP3   OH243326   3.712   1.761  10.593  0.5230  0.2698  0.6409
 7304TIP3    H143327   3.759   1.802  10.665  0.5497 -1.4618  1.6625
 7304TIP3    H243328   3.752   1.675  10.583 -0.3989 -0.0621 -0.5354
 7305TIP3   OH243329   4.405   1.535   5.538  0.6669 -0.4213 -0.2634
 7305TIP3    H143330   4.423   1.456   5.488  0.7798 -0.2833 -0.4429
 7305TIP3    H243331   4.312   1.552   5.525  0.3884 -1.1361  0.6656
 7306TIP3   OH243332   0.200   6.674  12.565  0.8054  0.4802 -0.3742
 7306TIP3    H143333   0.250   6.747  12.603  0.9112 -0.8998  2.3570
 7306TIP3    H243334   0.154   6.636  12.639 -0.8546 -1.0304 -2.0859
 7307TIP3   OH243335   1.538   1.397   0.643  0.3328  0.0714  0.2746
 7307TIP3    H143336   1.507   1.325   0.698  0.9239  1.0032  1.8819
 7307TIP3    H243337   1.612   1.434   0.692  1.2261  0.6096 -1.4098
 7308TIP3   OH243338   2.740   2.182  14.459 -0.6173  0.4988 -0.0890
 7308TIP3    H143339   2.676   2.251  14.477 -0.1396  0.8654  0.2464
 7308TIP3    H243340   2.750   2.182  14.364 -0.3049  1.1932 -0.0644
 7309TIP3   OH243341   2.714   2.583   2.880 -0.1502 -0.0064 -0.1828
 7309TIP3    H143342   2.661   2.504   2.883 -0.3371  0.1204 -0.1510
 7309TIP3    H243343   2.697   2.620   2.793  0.6277 -0.4746 -0.5549
 7310TIP3   OH243344   0.828   5.477  11.085 -0.4438 -0.1714  0.1511
 7310TIP3    H143345   0.909   5.528  11.089 -0.2626 -0.4750  0.3326
 7310TIP3    H243346   0.812   5.465  10.992  0.7293 -1.7095  0.1064
 7311TIP3   OH243347   0.639   5.996   3.262 -0.2146  0.1460 -0.6022
 7311TIP3    H143348   0.646   6.060   3.332 -0.9130  0.9201 -1.2118
 7311TIP3    H243349   0.577   5.931   3.295  0.9646 -0.5630  0.2625
 7312TIP3   OH243350   2.202   5.914   5.533  0.3045 -0.2065  0.1093
 7312TIP3    H143351   2.197   5.864   5.451 -0.8285 -2.1811  1.3102
 7312TIP3    H243352   2.272   5.977   5.517  0.5607 -0.9484 -2.1527
 7313TIP3   OH243353   1.140   5.006  12.705 -0.3552 -1.0713  0.0542
 7313TIP3    H143354   1.073   4.941  12.684 -2.5706  0.7066  1.2426
 7313TIP3    H243355   1.127   5.076  12.641 -1.2696  0.3454  1.7039
 7314TIP3   OH243356   4.201   0.307   5.948  0.1594  0.8601 -0.3578
 7314TIP3    H143357   4.218   0.251   6.024 -0.2520 -1.5039 -1.9077
 7314TIP3    H243358   4.288   0.340   5.923  0.5079  0.3953  0.2089
 7315TIP3   OH243359   2.432   1.139   6.006 -0.3566  0.3300 -0.5050
 7315TIP3    H143360   2.433   1.149   5.911  0.8423 -1.0725 -0.6743
 7315TIP3    H243361   2.492   1.066   6.023 -1.4173 -0.2017  1.2351
 7316TIP3   OH243362   4.494   3.335   2.381 -0.4095 -0.1443  0.4831
 7316TIP3    H143363   4.495   3.239   2.390  0.8928 -0.5058 -2.3455
 7316TIP3    H243364   4.577   3.363   2.420 -0.4282 -0.2757  0.6179
 7317TIP3   OH243365   0.871   0.396  12.974 -0.0753 -0.0223  0.5885
 7317TIP3    H143366   0.922   0.401  12.893 -0.3617  1.8114  0.4843
 7317TIP3    H243367   0.914   0.328  13.026  1.0777 -0.0931 -0.4284
 7318TIP3   OH243368   1.821   5.307   4.707  0.0422 -0.0571 -0.8581
 7318TIP3    H143369   1.746   5.318   4.766  1.4699  1.2323  0.8010
 7318TIP3    H243370   1.847   5.216   4.719  1.4088  0.6068  1.9919
 7319TIP3   OH243371   1.708   2.581  13.583 -0.2429 -0.1476 -0.1317
 7319TIP3    H143372   1.724   2.500  13.533 -0.4681  0.5013 -1.2861
 7319TIP3    H243373   1.615   2.598  13.573 -0.3686 -0.2010  0.8436
 7320TIP3   OH243374   0.063   3.265   5.775 -0.3475 -0.3673 -0.4715
 7320TIP3    H143375   0.043   3.351   5.739  0.8891 -0.2939 -1.0484
 7320TIP3    H243376   0.109   3.284   5.857  0.8384 -0.4376 -1.1015
 7321TIP3   OH243377   0.567   5.793  12.962 -0.0206 -0.4183 -0.6360
 7321TIP3    H143378   0.642   5.756  12.917  0.1051 -0.0581 -0.7293
 7321TIP3    H243379   0.539   5.865  12.906 -0.0231 -0.1346 -0.2734
 7322TIP3   OH243380   3.305   1.790  11.426  0.0948  0.0636 -0.3575
 7322TIP3    H143381   3.325   1.784  11.332 -0.0685  0.8058 -0.4400
 7322TIP3    H243382   3.262   1.707  11.446 -0.3015  0.0965 -1.0474
 7323TIP3   OH243383   0.209   5.498   1.409 -0.4613 -0.2357  0.0243
 7323TIP3    H143384   0.180   5.408   1.398  0.4105 -0.8876  2.3619
 7323TIP3    H243385   0.135   5.542   1.451 -0.0305 -0.5461  1.1570
 7324TIP3   OH243386   6.041   3.950   3.772  0.2066 -0.2576  0.7043
 7324TIP3    H143387   5.949   3.972   3.760 -0.0046 -1.6847 -0.5517
 7324TIP3    H243388   6.045   3.914   3.861 -0.1407  1.1761  1.3276
 7325TIP3   OH243389   2.964   3.291  14.592 -0.2673 -0.4405  0.1348
 7325TIP3    H143390   2.943   3.385  14.590 -1.2009 -0.6152  0.8427
 7325TIP3    H243391   3.003   3.273  14.507 -0.4185  0.5183 -0.1494
 7326TIP3   OH243392   6.609   2.383  16.730  0.6402 -0.3067 -0.0399
 7326TIP3    H143393   6.525   2.408  16.692  1.9889  1.1147 -2.2719
 7326TIP3    H243394   6.586   2.347  16.816 -2.1532  0.9288 -0.1534
 7327TIP3   OH243395   3.940   2.926  13.254 -0.0695 -0.1647  0.0984
 7327TIP3    H143396   3.982   2.841  13.248 -1.1719 -0.6257 -1.7393
 7327TIP3    H243397   4.012   2.988  13.266  0.9406 -1.1570 -0.6888
 7328TIP3   OH243398   1.788   5.746  14.087 -0.0446  0.4269 -0.6059
 7328TIP3    H143399   1.825   5.686  14.152  0.2023 -1.7275 -2.5742
 7328TIP3    H243400   1.863   5.774  14.035 -0.2400  2.1113 -0.0277
 7329TIP3   OH243401   6.443   3.639  17.264  0.1179  0.2904  0.0080
 7329TIP3    H143402   6.398   3.558  17.287  1.7637 -1.3684 -2.1881
 7329TIP3    H243403   6.466   3.678  17.348 -1.1181 -1.2552  1.1319
 7330TIP3   OH243404   4.709   3.677  15.514  0.4431  0.0374  0.0736
 7330TIP3    H143405   4.668   3.732  15.447  0.5693  3.9325  2.9078
 7330TIP3    H243406   4.800   3.670  15.486  0.1777  0.2857 -0.9126
 7331TIP3   OH243407   6.507   1.850   6.213 -0.2450 -0.2344 -0.4153
 7331TIP3    H143408   6.494   1.940   6.244  0.0766  0.4063 -2.0357
 7331TIP3    H243409   6.494   1.856   6.118  1.7171 -1.5230 -0.8021
 7332TIP3   OH243410   5.395   1.368   3.756  0.5311  0.2077  0.2480
 7332TIP3    H143411   5.425   1.278   3.759 -1.7086 -0.7877 -2.5701
 7332TIP3    H243412   5.427   1.402   3.673 -0.8738  1.0898  0.0185
 7333TIP3   OH243413   4.744   5.219   1.337  0.2990 -0.3846 -0.6356
 7333TIP3    H143414   4.711   5.154   1.275 -1.1166  1.0532 -1.4514
 7333TIP3    H243415   4.670   5.239   1.393  1.6942 -2.0465  1.9786
 7334TIP3   OH243416   1.161   1.286  13.586  0.5647  0.3290  0.6637
 7334TIP3    H143417   1.193   1.200  13.615 -1.9962 -0.2818  2.0057
 7334TIP3    H243418   1.189   1.346  13.655  2.4447  0.6738 -0.3237
 7335TIP3   OH243419   5.389   3.885   3.866  0.5129 -0.0903  0.2113
 7335TIP3    H143420   5.385   3.826   3.791 -0.3772  0.5771 -0.2829
 7335TIP3    H243421   5.298   3.900   3.890  0.7670  0.2235  1.0168
 7336TIP3   OH243422   4.522   3.046  16.701  0.2298  0.2043  0.0540
 7336TIP3    H143423   4.588   3.080  16.762  0.5606 -0.3611  0.0181
 7336TIP3    H243424   4.507   3.118  16.640  0.6657  0.4077  0.1814
 7337TIP3   OH243425   3.890   4.383   2.774 -0.6119 -0.0358 -0.2815
 7337TIP3    H143426   3.805   4.423   2.793 -0.3284  1.2117 -1.4651
 7337TIP3    H243427   3.953   4.456   2.779  0.5711 -1.0984  1.4960
 7338TIP3   OH243428   3.051   4.066   2.160 -0.2690 -0.0116 -0.2719
 7338TIP3    H143429   2.988   4.114   2.214  0.0098  0.8409 -0.6933
 7338TIP3    H243430   3.009   3.981   2.146 -0.5548 -0.0845  0.8818
 7339TIP3   OH243431   2.452   5.016   0.153 -0.2586 -0.0004 -0.9690
 7339TIP3    H143432   2.488   5.055   0.074 -1.5721 -0.4192 -1.7951
 7339TIP3    H243433   2.380   4.961   0.123  0.2084 -1.4235  0.3649
 7340TIP3   OH243434   3.572   2.879   5.986 -0.2170  0.0767  0.1882
 7340TIP3    H143435   3.594   2.808   5.925 -2.2313 -0.6857  0.2623
 7340TIP3    H243436   3.624   2.861   6.064 -0.4904 -1.2075  0.1015
 7341TIP3   OH243437   4.519   2.428   5.810 -0.7742 -0.6240  0.3033
 7341TIP3    H143438   4.608   2.449   5.781 -0.4767 -1.5664  0.4971
 7341TIP3    H243439   4.480   2.513   5.831 -0.0415 -0.1702 -0.1237
 7342TIP3   OH243440   1.690   3.646   0.456 -0.0965 -0.4906  0.3877
 7342TIP3    H143441   1.738   3.656   0.539  0.8232 -2.0688  0.1052
 7342TIP3    H243442   1.718   3.720   0.403  1.5418 -0.9815  0.4964
 7343TIP3   OH243443   1.074   3.457  12.937 -0.0920 -0.0306 -0.1381
 7343TIP3    H143444   1.090   3.534  12.992 -2.2565  0.0724  0.4285
 7343TIP3    H243445   1.033   3.394  12.996  0.6494 -1.2209 -0.8666
 7344TIP3   OH243446   0.749   0.608  13.935  0.0275 -0.5521 -0.2389
 7344TIP3    H143447   0.791   0.556  13.866  0.8928  1.2873 -1.1706
 7344TIP3    H243448   0.657   0.608  13.912  0.4015  0.6814 -1.9144
 7345TIP3   OH243449   0.302   6.354  14.031 -1.0042 -0.3710  0.7111
 7345TIP3    H143450   0.231   6.290  14.024  0.1475 -1.6474  0.2269
 7345TIP3    H243451   0.372   6.318  13.977  0.3140  0.4485  1.8017
 7346TIP3   OH243452   2.032   4.877   3.225 -0.3877 -0.4318  0.1756
 7346TIP3    H143453   2.125   4.858   3.234 -0.1400  1.0416  0.9469
 7346TIP3    H243454   1.989   4.796   3.255  0.6312 -0.5311  1.4597
 7347TIP3   OH243455   4.879   1.204  13.665  0.7615  0.1221  0.2196
 7347TIP3    H143456   4.813   1.262  13.626 -2.4518 -1.5120  2.7315
 7347TIP3    H243457   4.905   1.146  13.594 -0.2956  1.0136 -0.9462
 7348TIP3   OH243458   0.063   2.957   3.461 -0.0407  0.1237  0.1518
 7348TIP3    H143459   0.042   2.864   3.463  1.5666 -0.2899 -0.5984
 7348TIP3    H243460   0.029   2.988   3.376 -1.8718  0.6021  0.9998
 7349TIP3   OH243461   6.748   5.562  11.058  0.0489 -0.1653  0.1847
 7349TIP3    H143462   6.689   5.584  11.130  1.1919  0.1149  1.0595
 7349TIP3    H243463   6.833   5.547  11.099  0.3713 -1.6362 -0.9259
 7350TIP3   OH243464   6.419   1.415   4.450 -0.3110 -0.0077  0.1909
 7350TIP3    H143465   6.327   1.441   4.442  0.1148  1.9525  0.8888
 7350TIP3    H243466   6.467   1.486   4.407  0.9355 -0.2266  1.1786
 7351TIP3   OH243467   3.925   0.152  12.124  0.0351 -0.2452  0.0156
 7351TIP3    H143468   3.985   0.161  12.051  0.1474  0.3235  0.1759
 7351TIP3    H243469   3.850   0.104  12.088  1.3042 -2.5678  0.2335
 7352TIP3   OH243470   5.081   3.604   3.021 -0.4775  0.2111 -0.3612
 7352TIP3    H143471   5.084   3.513   2.991 -1.3936  0.3491 -0.9280
 7352TIP3    H243472   5.026   3.649   2.956 -0.3646  1.0852  0.1289
 7353TIP3   OH243473   2.350   2.743   2.864  0.2698 -0.3339  0.3164
 7353TIP3    H143474   2.419   2.807   2.856 -0.8683  1.0351  1.0075
 7353TIP3    H243475   2.309   2.740   2.778  0.5019 -0.3373  0.2079
 7354TIP3   OH243476   5.339   6.740  12.711  0.2777 -0.1546  0.2764
 7354TIP3    H143477   5.289   6.658  12.709  0.0038  0.0183 -0.9777
 7354TIP3    H243478   5.405   6.726  12.779  1.1879 -2.0052 -0.8862
 7355TIP3   OH243479   1.541   3.429   4.775 -0.3928 -0.4549  0.1455
 7355TIP3    H143480   1.549   3.483   4.696  1.7289  0.7907  1.1208
 7355TIP3    H243481   1.615   3.368   4.769  0.3675  0.2836  1.5806
 7356TIP3   OH243482   6.414   3.186   2.874  0.1422 -0.2989  0.4135
 7356TIP3    H143483   6.437   3.096   2.900 -0.0199 -0.2366  0.7733
 7356TIP3    H243484   6.379   3.176   2.785  2.3619 -0.2876 -0.5320
 7357TIP3   OH243485   6.727   5.300   1.073  0.1826 -0.3423  0.3652
 7357TIP3    H143486   6.736   5.289   1.168  0.2646 -0.2078  0.3723
 7357TIP3    H243487   6.797   5.361   1.049 -0.7653  0.8213  0.4448
 7358TIP3   OH243488   0.129   2.537   1.505 -0.1966  0.4499  0.1368
 7358TIP3    H143489   0.047   2.545   1.553 -0.7047 -0.4918 -0.5285
 7358TIP3    H243490   0.112   2.469   1.440  0.7411  1.0562 -0.7916
 7359TIP3   OH243491   0.067   2.580  15.320 -0.6210  0.2252  0.0464
 7359TIP3    H143492  -0.015   2.552  15.360 -1.1280  0.4494 -0.8138
 7359TIP3    H243493   0.120   2.610  15.394 -1.2591 -0.0282  0.6255
 7360TIP3   OH243494   5.646   6.486   0.336  0.5647  0.5196 -0.1443
 7360TIP3    H143495   5.736   6.517   0.343  0.5685  0.3833  0.5478
 7360TIP3    H243496   5.600   6.554   0.287  0.9794  0.7335 -0.2373
 7361TIP3   OH243497   0.326   2.827   0.978  0.3187 -0.7288 -0.1172
 7361TIP3    H143498   0.341   2.740   1.016 -1.0909 -1.2093 -0.5785
 7361TIP3    H243499   0.244   2.857   1.018  0.2070 -0.0958 -0.7927
 7362TIP3   OH243500   2.508   2.937  15.905  0.2116 -0.0942  0.6528
 7362TIP3    H143501   2.459   3.007  15.863  1.4446  0.0584 -0.6016
 7362TIP3    H243502   2.475   2.857  15.864  2.0244  0.1058 -1.4037
 7363TIP3   OH243503   4.846   4.804  11.585 -0.0966  0.3630  0.1856
 7363TIP3    H143504   4.803   4.766  11.509 -0.1992  1.1350 -0.1430
 7363TIP3    H243505   4.937   4.774  11.578 -0.0616  0.5833 -0.3414
 7364TIP3   OH243506   3.004   0.058   1.756  0.2618  0.8281  0.2630
 7364TIP3    H143507   2.913   0.037   1.735 -0.1757  1.5724  1.3566
 7364TIP3    H243508   3.051  -0.025   1.744 -0.8569  0.0005  1.3475
 7365TIP3   OH243509   2.691   4.713   1.462 -0.1692 -0.0375  0.3538
 7365TIP3    H143510   2.784   4.730   1.453 -0.1598  0.1112  0.7219
 7365TIP3    H243511   2.675   4.714   1.556 -0.6159  0.3561  0.2808
 7366TIP3   OH243512   0.661   5.333  15.410 -0.3423  0.5680 -1.0806
 7366TIP3    H143513   0.701   5.246  15.413 -0.1380  0.6818 -0.0205
 7366TIP3    H243514   0.596   5.327  15.340 -1.6886 -1.0474  0.2295
 7367TIP3   OH243515   0.928   2.480   3.944 -0.6080  0.5497  0.1421
 7367TIP3    H143516   0.910   2.509   3.854 -0.1691  1.4615  0.3310
 7367TIP3    H243517   0.899   2.389   3.946  0.7299  0.0336 -1.3671
 7368TIP3   OH243518   5.431   1.483  11.521 -0.1067  0.1805  0.7488
 7368TIP3    H143519   5.433   1.534  11.602  1.3635  1.7130 -0.1847
 7368TIP3    H243520   5.523   1.468  11.500 -0.3987  0.8580 -1.2342
 7369TIP3   OH243521   4.338   4.549  16.752 -0.2299 -0.4806 -0.8009
 7369TIP3    H143522   4.424   4.539  16.791  0.3607  1.4846 -1.4673
 7369TIP3    H243523   4.327   4.643  16.742 -3.5688 -0.4167  1.6545
 7370TIP3   OH243524   5.225   4.317  13.264  0.1253 -0.3332  0.5494
 7370TIP3    H143525   5.154   4.261  13.232 -0.3627  0.3113  0.5024
 7370TIP3    H243526   5.249   4.279  13.348  1.5246 -2.1439 -0.5680
 7371TIP3   OH243527   4.003   3.885   0.910  0.3126 -0.2809 -0.1133
 7371TIP3    H143528   4.021   3.828   0.985 -0.0395 -1.3941 -0.8401
 7371TIP3    H243529   3.913   3.863   0.885 -0.2248  1.3903  0.2391
 7372TIP3   OH243530   2.328   1.017   2.576  0.2106  0.2465  0.3155
 7372TIP3    H143531   2.321   0.982   2.487  0.5389  0.8950  0.0303
 7372TIP3    H243532   2.404   1.075   2.573 -1.6715  2.8566  0.1578
 7373TIP3   OH243533   2.172   2.533   0.985 -0.0491  0.4840 -0.2126
 7373TIP3    H143534   2.173   2.473   1.059 -0.4699  0.5405 -0.1571
 7373TIP3    H243535   2.251   2.512   0.936  0.1425  0.3296  0.1589
 7374TIP3   OH243536   0.051   3.362  12.614  0.3232 -0.2754  0.7493
 7374TIP3    H143537   0.114   3.305  12.659  2.0706  0.1047 -1.0781
 7374TIP3    H243538   0.016   3.307  12.544  0.2893  0.1916  0.3986
 7375TIP3   OH243539   0.897   6.743   0.881 -0.3622 -0.0324  0.4295
 7375TIP3    H143540   0.844   6.805   0.832  1.6578  1.6663  0.2213
 7375TIP3    H243541   0.965   6.715   0.820  0.0051 -0.8145  1.1667
 7376TIP3   OH243542   6.050   2.107  14.125 -0.1308  1.2606 -0.0428
 7376TIP3    H143543   6.110   2.121  14.051  0.8592  1.0321  0.6892
 7376TIP3    H243544   6.061   2.014  14.147  0.1179  1.4902  0.8364
 7377TIP3   OH243545   1.007   2.572   5.390  0.4912 -0.0206  0.0376
 7377TIP3    H143546   1.031   2.597   5.478  0.7742 -1.0891  0.2747
 7377TIP3    H243547   0.991   2.655   5.344 -0.7873  0.5276  1.3928
 7378TIP3   OH243548   1.414   0.426   2.658  0.2706  0.2357  0.3506
 7378TIP3    H143549   1.397   0.343   2.702  1.3108 -0.0978  0.1419
 7378TIP3    H243550   1.372   0.492   2.714 -1.0343 -0.4703  0.2225
 7379TIP3   OH243551   5.140   3.383   3.372 -0.6899 -0.0189 -0.8297
 7379TIP3    H143552   5.208   3.316   3.371 -1.1335 -0.4764 -1.7732
 7379TIP3    H243553   5.188   3.466   3.369 -0.1580 -0.3090 -0.5312
 7380TIP3   OH243554   5.301   3.138   5.279  0.2872 -0.3534 -0.0130
 7380TIP3    H143555   5.336   3.054   5.306 -0.1439 -0.1683  1.1610
 7380TIP3    H243556   5.367   3.202   5.305 -0.0243 -0.1968  0.4004
 7381TIP3   OH243557   2.997   0.867   3.362 -0.0971  0.1988 -0.5845
 7381TIP3    H143558   3.033   0.888   3.448 -0.5008 -0.8595 -0.1496
 7381TIP3    H243559   3.073   0.849   3.307  0.1782  1.2010 -0.5532
 7382TIP3   OH243560   5.869   4.208   4.233  1.0218 -0.0918 -0.6866
 7382TIP3    H143561   5.935   4.220   4.301  0.6242 -0.0912 -0.2982
 7382TIP3    H243562   5.914   4.230   4.152  0.9410  1.9516 -0.2288
 7383TIP3   OH243563   1.293   4.738   1.629  0.2189 -0.2039 -0.7629
 7383TIP3    H143564   1.200   4.757   1.619  0.2558  0.6671  0.4181
 7383TIP3    H243565   1.297   4.643   1.642 -0.5586 -0.1561 -0.1578
 7384TIP3   OH243566   3.802   3.106   5.574 -0.3307 -0.4706  0.4942
 7384TIP3    H143567   3.772   3.066   5.492 -0.7061  0.1237  0.3273
 7384TIP3    H243568   3.762   3.193   5.573  1.4535  0.3986  0.2450
 7385TIP3   OH243569   3.184   0.278   0.843  0.0909 -0.0074  0.3811
 7385TIP3    H143570   3.154   0.194   0.879  0.5963 -0.1718  0.4283
 7385TIP3    H243571   3.260   0.255   0.790 -2.0398 -0.1771 -2.9297
 7386TIP3   OH243572   5.365   1.974  13.121  0.3061 -0.2443 -0.2347
 7386TIP3    H143573   5.431   1.929  13.070 -0.8889 -1.1244 -1.0634
 7386TIP3    H243574   5.382   1.950  13.212  0.9369 -0.6786 -0.4706
 7387TIP3   OH243575   3.650   1.929   0.535  0.3286  0.2891  0.6024
 7387TIP3    H143576   3.582   1.866   0.560  2.4210 -1.2388  2.8593
 7387TIP3    H243577   3.657   1.920   0.440 -0.4871 -1.7984  0.6812
 7388TIP3   OH243578   5.062   3.265   6.186 -0.0242 -0.3040  0.6941
 7388TIP3    H143579   4.998   3.302   6.246 -1.6514 -1.2052 -0.3983
 7388TIP3    H243580   5.067   3.327   6.114  0.9158  0.1136  1.0947
 7389TIP3   OH243581   6.037   2.576  14.696  0.4801 -0.0189  0.3678
 7389TIP3    H143582   5.979   2.606  14.766  0.1080 -0.8709  0.4292
 7389TIP3    H243583   6.124   2.610  14.720  0.3889 -0.4448  1.3297
 7390TIP3   OH243584   4.805   2.790   5.676 -0.1339  0.1831 -0.1170
 7390TIP3    H143585   4.709   2.795   5.667 -0.0477 -0.4991 -1.9446
 7390TIP3    H243586   4.822   2.700   5.703  0.0120  0.0900 -0.5060
 7391TIP3   OH243587   4.665   1.140  12.118 -0.2872 -0.2928  0.0830
 7391TIP3    H143588   4.655   1.074  12.050  0.1391 -0.2483 -0.0269
 7391TIP3    H243589   4.580   1.144  12.160 -0.0797 -1.5548  0.6698
 7392TIP3   OH243590   1.857   2.993   4.813 -0.0142  0.0490  0.0158
 7392TIP3    H143591   1.886   2.978   4.724 -1.2309 -2.6266 -0.0170
 7392TIP3    H243592   1.931   2.966   4.868  0.4592  1.0051 -0.1189
 7393TIP3   OH243593   6.320   1.969  12.675 -0.0935  0.6303  0.3356
 7393TIP3    H143594   6.283   1.880  12.678  0.3735  0.4270  0.0842
 7393TIP3    H243595   6.382   1.966  12.602  0.5453  0.9256  0.8668
 7394TIP3   OH243596   3.060   6.187   6.275 -0.3943  0.3339  0.7968
 7394TIP3    H143597   2.984   6.136   6.301 -1.0962  1.7071  1.5439
 7394TIP3    H243598   3.118   6.183   6.351  0.5634 -1.1370  0.0449
 7395TIP3   OH243599   6.129   2.019   2.449 -0.3113 -0.4259 -0.1098
 7395TIP3    H143600   6.108   2.084   2.382  0.3734  0.4737  0.5200
 7395TIP3    H243601   6.067   1.947   2.434  0.9669 -1.0825 -2.8557
 7396TIP3   OH243602   5.775   5.732  12.111 -0.2784 -0.4120 -0.0276
 7396TIP3    H143603   5.834   5.662  12.084 -0.5755 -0.2171 -1.2464
 7396TIP3    H243604   5.803   5.808  12.059 -0.4991  0.1540  0.6565
 7397TIP3   OH243605   3.894   4.582  11.731 -0.3208  0.2005  0.2630
 7397TIP3    H143606   3.976   4.574  11.779 -1.3572 -1.2694  1.9114
 7397TIP3    H243607   3.841   4.509  11.762 -2.7805  1.8763  0.3188
 7398TIP3   OH243608   0.230   4.601  17.367 -0.0218  0.0749  0.3317
 7398TIP3    H143609   0.274   4.586  17.450 -0.1580 -1.0691  0.2125
 7398TIP3    H243610   0.209   4.694  17.367  0.4252  0.1821  1.3532
 7399TIP3   OH243611   0.399   3.975  15.336 -0.9413 -0.4012  0.6299
 7399TIP3    H143612   0.448   4.024  15.271  0.4014 -1.5003  0.7721
 7399TIP3    H243613   0.320   4.027  15.350 -1.5762 -0.4011 -2.2900
 7400TIP3   OH243614   0.814   4.982   0.888 -0.0600  0.1086 -0.4746
 7400TIP3    H143615   0.825   5.040   0.962 -1.5084 -0.6735  0.3957
 7400TIP3    H243616   0.784   4.899   0.926 -2.1141  0.0786 -2.0030
 7401TIP3   OH243617   4.584   6.058  14.898 -0.2183 -0.2510  0.6524
 7401TIP3    H143618   4.634   5.988  14.855  0.0683  0.1056  0.4059
 7401TIP3    H243619   4.496   6.052  14.860  0.7357  1.9568 -2.2632
 7402TIP3   OH243620   6.294   3.678   1.169 -0.1515 -0.3926 -0.1853
 7402TIP3    H143621   6.219   3.636   1.126 -1.2528  0.3969  0.8953
 7402TIP3    H243622   6.292   3.644   1.258  0.3582  0.1602  0.0422
 7403TIP3   OH243623   5.289   3.846   3.045 -0.0978 -0.4112 -0.0380
 7403TIP3    H143624   5.217   3.879   3.100  1.4946  1.3118  1.1381
 7403TIP3    H243625   5.265   3.755   3.028 -1.2894 -0.6957  2.5311
 7404TIP3   OH243626   4.006   0.496   3.766  0.4518  0.3931 -0.6596
 7404TIP3    H143627   3.986   0.417   3.716  2.1058 -0.2468 -0.4062
 7404TIP3    H243628   3.966   0.567   3.716  0.3674 -0.4281 -1.8168
 7405TIP3   OH243629   6.051   1.832  12.707  0.3007 -0.0740  0.5592
 7405TIP3    H143630   6.029   1.782  12.786  0.0459 -0.1980  0.4143
 7405TIP3    H243631   6.015   1.919  12.723 -0.6152 -0.3664  0.1900
 7406TIP3   OH243632   6.240   0.998   3.067  0.1937 -0.7096 -0.1276
 7406TIP3    H143633   6.280   1.010   2.981 -1.2494  0.5430 -0.6521
 7406TIP3    H243634   6.190   0.917   3.058 -0.3601 -0.3197 -0.6439
 7407TIP3   OH243635   3.983   4.978  13.722  0.8358  0.0019 -0.1386
 7407TIP3    H143636   4.022   4.992  13.808  1.6898 -0.9729 -0.3510
 7407TIP3    H243637   4.042   4.917  13.678 -0.1899 -0.4014 -0.9987
 7408TIP3   OH243638   0.672   3.854   5.434  0.6724 -0.3184  0.0267
 7408TIP3    H143639   0.724   3.884   5.359  0.9141 -1.5136 -0.3153
 7408TIP3    H243640   0.586   3.835   5.396 -0.5308  2.9792  0.8417
 7409TIP3   OH243641   0.540   0.796  11.499  0.0400 -0.3321  0.6015
 7409TIP3    H143642   0.451   0.778  11.529 -1.8377  2.4002 -2.6937
 7409TIP3    H243643   0.556   0.731  11.431  0.3109 -0.3826  0.7109
 7410TIP3   OH243644   3.462   4.843  11.617  0.3007 -0.6877 -0.0389
 7410TIP3    H143645   3.420   4.817  11.699  2.0080 -1.2633  0.6984
 7410TIP3    H243646   3.424   4.929  11.597 -0.0045 -0.4454  1.4660
 7411TIP3   OH243647   2.698   1.189  11.010 -0.2271  0.0750  0.0312
 7411TIP3    H143648   2.732   1.239  10.935 -0.5979 -1.3347 -1.1208
 7411TIP3    H243649   2.603   1.202  11.005 -0.2189  0.3353  0.5344
 7412TIP3   OH243650   3.982   2.007   2.905  0.4000  0.0068  0.4137
 7412TIP3    H143651   4.077   1.995   2.896  0.3209 -1.4009  1.1631
 7412TIP3    H243652   3.953   2.034   2.818  1.6130  1.4874  0.4329
 7413TIP3   OH243653   1.329   4.704  14.323  0.1133 -0.3893  0.0081
 7413TIP3    H143654   1.251   4.657  14.295  0.9920 -1.8022 -0.1624
 7413TIP3    H243655   1.386   4.704  14.246  0.9217 -0.7817  0.5850
 7414TIP3   OH243656   1.291   0.450  12.001  0.1526  0.2751 -0.0528
 7414TIP3    H143657   1.241   0.507  12.059  0.1526  0.6771 -0.4463
 7414TIP3    H243658   1.380   0.485  12.005  0.4253 -0.4887  0.7130
 7415TIP3   OH243659   0.626   5.275   5.730  0.8346 -0.7213  0.2890
 7415TIP3    H143660   0.585   5.218   5.795  1.0370 -0.4073  0.6909
 7415TIP3    H243661   0.552   5.317   5.685  0.6954 -0.8990  0.3497
 7416TIP3   OH243662   4.143   4.720  15.241 -0.2779  0.3034  0.2805
 7416TIP3    H143663   4.096   4.799  15.266  2.3820  2.2841 -0.4698
 7416TIP3    H243664   4.195   4.746  15.165  2.5049 -1.4239  1.4110
 7417TIP3   OH243665   3.371   4.610  12.225 -0.0104  0.1793 -0.1475
 7417TIP3    H143666   3.383   4.515  12.231  0.6243  0.3356  1.4930
 7417TIP3    H243667   3.299   4.621  12.163  0.4513 -1.3279 -0.9961
 7418TIP3   OH243668   0.891   4.787  13.218  0.0129 -0.0156 -0.2038
 7418TIP3    H143669   0.968   4.813  13.269 -1.0402  0.2694  1.3081
 7418TIP3    H243670   0.927   4.736  13.145  1.6524  0.4233  0.2472
 7419TIP3   OH243671   2.993   2.035   2.601  0.0188 -0.0690  0.1195
 7419TIP3    H143672   2.904   2.068   2.594  0.5686  1.0500 -3.0177
 7419TIP3    H243673   3.049   2.112   2.587  1.5039 -0.8529  1.3807
 7420TIP3   OH243674   3.058   6.447  11.521  0.2507  0.3160 -0.2924
 7420TIP3    H143675   3.042   6.401  11.438  0.4822  0.8222 -0.6186
 7420TIP3    H243676   3.132   6.400  11.559 -0.2087 -0.2716 -0.0985
 7421TIP3   OH243677   5.428   1.688   2.773 -0.1510  0.7742  0.2076
 7421TIP3    H143678   5.367   1.617   2.795  1.0259 -0.5517 -0.6277
 7421TIP3    H243679   5.492   1.687   2.845 -0.0894  0.9416  0.1551
 7422TIP3   OH243680   2.157   1.504  11.962 -0.5042  0.0505 -0.0065
 7422TIP3    H143681   2.238   1.537  11.923 -0.1168  1.6924  2.0314
 7422TIP3    H243682   2.181   1.419  11.998  0.4586  0.6978  0.9383
 7423TIP3   OH243683   0.266   4.077  10.595  0.2032  0.0857 -0.0324
 7423TIP3    H143684   0.276   4.042  10.506 -1.3505  0.3938 -0.3645
 7423TIP3    H243685   0.208   4.014  10.639  1.9374 -0.7296  1.1949
 7424TIP3   OH243686   0.031   3.504  13.345  0.0974 -0.0758 -0.3598
 7424TIP3    H143687   0.017   3.451  13.266  0.5938  0.4459 -0.8058
 7424TIP3    H243688   0.073   3.584  13.313  1.4746 -0.3944  0.5759
 7425TIP3   OH243689   5.591   4.463  15.029  0.2827  0.3795  0.1770
 7425TIP3    H143690   5.662   4.465  15.094  0.1608  0.6122  0.3052
 7425TIP3    H243691   5.632   4.494  14.948  0.0669  1.5958  0.5146
 7426TIP3   OH243692   2.382   1.043  13.741 -0.0724  0.3288 -0.0918
 7426TIP3    H143693   2.354   1.014  13.828 -0.0508  0.8353  0.0887
 7426TIP3    H243694   2.331   0.990  13.680 -0.9015  0.7424  0.2320
 7427TIP3   OH243695   3.712   2.934  13.906  0.0971  0.4728 -0.4068
 7427TIP3    H143696   3.736   2.866  13.844 -2.3706  0.7754 -1.8323
 7427TIP3    H243697   3.675   2.887  13.980 -0.5342  0.2169 -0.8789
 7428TIP3   OH243698   5.144   5.969   6.205  0.5477  0.4204  0.8622
 7428TIP3    H143699   5.079   6.014   6.258  1.4430  2.8108  0.0797
 7428TIP3    H243700   5.216   6.032   6.196  0.5268  0.1551 -2.9862
 7429TIP3   OH243701   6.615   1.235   4.276 -0.0296 -0.3859  0.2013
 7429TIP3    H143702   6.618   1.166   4.209  0.6402 -0.8412  0.6835
 7429TIP3    H243703   6.530   1.277   4.264 -1.9111 -3.3639  1.9831
 7430TIP3   OH243704   4.644   1.841   2.522 -0.5986 -0.2117 -0.1173
 7430TIP3    H143705   4.628   1.900   2.448  0.5056  0.8342  0.4563
 7430TIP3    H243706   4.634   1.753   2.484 -3.4354  0.2765 -0.7185
 7431TIP3   OH243707   5.143   6.660  16.650 -0.2823  0.4749  0.4814
 7431TIP3    H143708   5.114   6.722  16.717 -2.6514 -0.0932  0.0768
 7431TIP3    H243709   5.096   6.579  16.670  2.9405 -1.4122  1.1781
 7432TIP3   OH243710   4.527   6.229  13.453 -0.6118 -0.2855  0.3353
 7432TIP3    H143711   4.544   6.267  13.540  0.7906 -2.2760  0.9891
 7432TIP3    H243712   4.551   6.299  13.392 -1.6707  1.1796  1.5112
 7433TIP3   OH243713   0.224   6.136   5.117  0.1016 -0.8467 -0.1259
 7433TIP3    H143714   0.293   6.135   5.183  0.1405 -0.4556 -0.1588
 7433TIP3    H243715   0.215   6.045   5.090  0.1777 -0.9891  0.3235
 7434TIP3   OH243716   2.728   2.313   0.505 -0.2587  0.2160  0.2687
 7434TIP3    H143717   2.700   2.339   0.417  0.3641  0.0449  0.0158
 7434TIP3    H243718   2.812   2.269   0.492  0.5292  1.4103  1.0978
 7435TIP3   OH243719   2.282   3.306  15.829  0.4045  0.4180  0.4793
 7435TIP3    H143720   2.189   3.305  15.851  0.5160  2.0387  1.2156
 7435TIP3    H243721   2.317   3.382  15.877  2.3655 -0.8951  1.2911
 7436TIP3   OH243722   2.401   3.230  13.556 -0.4328  0.2751 -0.0001
 7436TIP3    H143723   2.478   3.274  13.592  0.5177 -0.4826 -1.0351
 7436TIP3    H243724   2.351   3.202  13.633 -1.0885  3.1004  0.6951
 7437TIP3   OH243725   4.372   1.643  15.589 -0.3273 -0.3391  0.3762
 7437TIP3    H143726   4.375   1.575  15.656 -0.8536  0.3786  1.1476
 7437TIP3    H243727   4.461   1.678  15.585 -0.4725  0.1651  1.2968
 7438TIP3   OH243728   6.696   4.358  16.979 -0.0188  0.6603  0.2167
 7438TIP3    H143729   6.648   4.400  17.051 -0.3834  1.2794 -0.3802
 7438TIP3    H243730   6.637   4.289  16.949  0.2268  0.2565  0.6487
 7439TIP3   OH243731   2.896   4.558  11.517 -0.0292  0.3526  0.1218
 7439TIP3    H143732   2.873   4.494  11.449  1.8620  0.6428 -0.8491
 7439TIP3    H243733   2.816   4.566  11.570 -0.9618 -1.2702 -0.9455
 7440TIP3   OH243734   0.810   0.346  15.715 -0.2537 -0.4275  0.6518
 7440TIP3    H143735   0.803   0.403  15.638 -0.0064  0.6774  1.4335
 7440TIP3    H243736   0.903   0.322  15.719 -0.1043  0.1810  1.0544
 7441TIP3   OH243737   2.996   1.802  14.073 -0.3515  1.2419 -0.1047
 7441TIP3    H143738   2.993   1.830  14.165  0.4332  1.5532 -0.1691
 7441TIP3    H243739   3.009   1.883  14.024  0.2631  0.9613 -0.4156
 7442TIP3   OH243740   1.015   5.597  11.316 -0.3445  0.3787  0.2182
 7442TIP3    H143741   0.955   5.584  11.389  1.1852  1.4518  1.7199
 7442TIP3    H243742   1.056   5.512  11.302  0.4267  0.4890  1.6293
 7443TIP3   OH243743   4.651   4.657   4.109 -0.3677  0.4871 -0.1209
 7443TIP3    H143744   4.704   4.696   4.040 -0.4066  2.5222  0.9111
 7443TIP3    H243745   4.703   4.582   4.139 -0.1941 -0.2320 -2.0586
 7444TIP3   OH243746   0.843   5.727  14.610 -0.5980 -0.3626 -0.9401
 7444TIP3    H143747   0.927   5.699  14.647 -1.6513 -2.0928  0.2393
 7444TIP3    H243748   0.850   5.823  14.607  1.6315 -0.4858 -1.4321
 7445TIP3   OH243749   3.244   4.723  16.009 -1.0137  0.2748 -0.2424
 7445TIP3    H143750   3.302   4.659  16.049 -0.6009  0.3997 -0.6345
 7445TIP3    H243751   3.290   4.752  15.931 -1.2650  0.9339 -0.1566
 7446TIP3   OH243752   3.196   6.069   0.674  0.3698  0.1111  0.3459
 7446TIP3    H143753   3.261   6.139   0.666 -0.5371  0.9433 -0.0540
 7446TIP3    H243754   3.224   6.018   0.750  1.6232  0.2901  0.0260
 7447TIP3   OH243755   5.572   4.735  16.567  0.5162 -0.0123 -0.2574
 7447TIP3    H143756   5.574   4.640  16.559  1.0473 -0.0313  0.0228
 7447TIP3    H243757   5.640   4.755  16.632  2.6877  0.7834 -2.6190
 7448TIP3   OH243758   6.732   2.744   5.888 -0.5919  0.4590  0.3665
 7448TIP3    H143759   6.817   2.772   5.923 -0.7368  0.3154  0.8401
 7448TIP3    H243760   6.717   2.802   5.813  0.3766 -0.1602 -0.3235
 7449TIP3   OH243761   6.013   1.544  16.152  0.6105 -0.4493  0.4828
 7449TIP3    H143762   6.053   1.577  16.072 -0.9765  0.9251  0.2130
 7449TIP3    H243763   5.999   1.451  16.135  0.8491 -0.3024 -0.6010
 7450TIP3   OH243764   6.333   0.959  11.608  0.3188 -0.6493 -0.5800
 7450TIP3    H143765   6.312   1.052  11.601 -1.8149 -1.0654 -0.3789
 7450TIP3    H243766   6.382   0.939  11.528 -1.3359  0.1600 -1.8509
 7451TIP3   OH243767   4.691   3.940   1.504 -0.2987 -1.0211 -0.2894
 7451TIP3    H143768   4.669   3.958   1.412 -1.0192 -0.8735 -0.0952
 7451TIP3    H243769   4.639   3.863   1.527 -1.9802  0.3188  0.6651
 7452TIP3   OH243770   0.546   3.026  15.492  0.0021  0.4360  0.6949
 7452TIP3    H143771   0.600   3.034  15.413  1.5354  1.0245  1.7488
 7452TIP3    H243772   0.516   3.115  15.509 -0.1022  0.3572  0.9224
 7453TIP3   OH243773   0.203   4.464   4.986  0.0392  0.5009  0.1474
 7453TIP3    H143774   0.127   4.468   4.928  1.3492 -1.8045 -1.9454
 7453TIP3    H243775   0.250   4.546   4.971 -0.2612  0.4415 -1.2360
 7454TIP3   OH243776   4.159   6.528   2.958 -0.2726 -0.2754  0.6026
 7454TIP3    H143777   4.223   6.485   2.901 -0.0990  1.1559 -0.3267
 7454TIP3    H243778   4.177   6.622   2.948 -3.0227  0.2470 -0.3379
 7455TIP3   OH243779   2.485   5.563   2.816  0.5782  0.3418 -0.0012
 7455TIP3    H143780   2.439   5.516   2.885  1.5326 -1.2519 -0.4061
 7455TIP3    H243781   2.520   5.641   2.859  0.6605 -0.3312  1.1789
 7456TIP3   OH243782   4.119   4.411  16.801 -0.2370 -0.3222  0.2043
 7456TIP3    H143783   4.202   4.457  16.783 -0.3918 -0.2432 -0.3093
 7456TIP3    H243784   4.061   4.480  16.834  0.1884 -0.5516  1.4942
 7457TIP3   OH243785   6.291   5.996  16.743  0.3017  0.3042 -0.0764
 7457TIP3    H143786   6.299   6.066  16.679  1.4049 -1.1630 -1.6370
 7457TIP3    H243787   6.220   5.941  16.709  1.3894 -0.8897 -0.4687
 7458TIP3   OH243788   5.258   4.476  15.723  0.0744 -0.6650  0.1792
 7458TIP3    H143789   5.287   4.453  15.811 -2.1941 -2.3649  0.5781
 7458TIP3    H243790   5.277   4.398  15.670 -1.4260 -0.9100 -0.0615
 7459TIP3   OH243791   2.410   4.647  14.371  0.4432 -0.4836  0.2354
 7459TIP3    H143792   2.445   4.652  14.282  1.0853 -1.1432  0.4467
 7459TIP3    H243793   2.337   4.586  14.365  0.9651 -1.1192  0.3097
 7460TIP3   OH243794   1.636   3.137  17.035  0.2292  0.0165  0.3481
 7460TIP3    H143795   1.712   3.195  17.031 -0.0099  0.3142  0.1506
 7460TIP3    H243796   1.665   3.057  16.991  0.2434  0.3333 -0.2285
 7461TIP3   OH243797   6.300   0.768   2.386 -0.0478 -0.0725 -0.6692
 7461TIP3    H143798   6.227   0.812   2.343 -1.2455  0.8171  2.0307
 7461TIP3    H243799   6.376   0.788   2.332 -1.0509  2.9575 -1.1199
 7462TIP3   OH243800   4.136   4.292   4.861 -0.1051  0.4015 -0.2152
 7462TIP3    H143801   4.180   4.264   4.780  1.4217  2.1399 -0.0592
 7462TIP3    H243802   4.061   4.344   4.831  0.5773  1.2206 -0.5556
 7463TIP3   OH243803   3.542   3.020  14.795 -0.2675 -0.7894  0.5424
 7463TIP3    H143804   3.552   2.965  14.717 -1.0765  1.1273 -1.0232
 7463TIP3    H243805   3.461   2.988  14.836  1.1655 -3.0883  1.7978
 7464TIP3   OH243806   6.693   1.790  11.282 -0.0425 -0.3575 -0.1696
 7464TIP3    H143807   6.765   1.852  11.272 -0.0493  0.1531  2.3184
 7464TIP3    H243808   6.628   1.837  11.335 -0.4164 -2.1544  1.0677
 7465TIP3   OH243809   3.797   1.582   6.313  0.7377 -0.1161 -0.6551
 7465TIP3    H143810   3.843   1.666   6.304 -0.0339  0.4686  0.5344
 7465TIP3    H243811   3.707   1.606   6.334  0.5973 -1.2433  0.1180
 7466TIP3   OH243812   1.866   4.235  12.644  0.0592 -0.2985  0.2493
 7466TIP3    H143813   1.919   4.211  12.568  1.2114  0.5417  0.7639
 7466TIP3    H243814   1.901   4.181  12.715 -0.8869 -0.9414  0.2428
 7467TIP3   OH243815   0.461   0.455   1.580 -0.3011 -0.2837  0.1872
 7467TIP3    H143816   0.540   0.501   1.552 -0.8793  0.4622 -0.2783
 7467TIP3    H243817   0.486   0.363   1.582  0.8308  0.0180  0.9259
 7468TIP3   OH243818   5.168   6.504   2.146  0.5438  0.1591 -0.6205
 7468TIP3    H143819   5.209   6.537   2.225  1.7389 -0.9890 -0.7362
 7468TIP3    H243820   5.214   6.423   2.126 -1.3057 -0.8216 -1.1751
 7469TIP3   OH243821   6.391   2.416   4.526  0.4439  0.5037 -0.1281
 7469TIP3    H143822   6.401   2.321   4.523  1.2397  0.5787 -0.0174
 7469TIP3    H243823   6.370   2.435   4.617 -0.3003  0.3879 -0.2680
 7470TIP3   OH243824   4.111   1.872  16.766  0.0075  0.0366 -0.0981
 7470TIP3    H143825   4.038   1.908  16.816  0.6593 -0.9823  1.6675
 7470TIP3    H243826   4.188   1.890  16.820  0.5743 -2.2511 -0.0530
 7471TIP3   OH243827   6.021   4.576   3.629  0.5586  0.3306 -0.3864
 7471TIP3    H143828   5.930   4.562   3.605  0.3139  0.0360  0.6910
 7471TIP3    H243829   6.028   4.670   3.644  0.6022  0.4496 -1.1294
 7472TIP3   OH243830   4.215   0.271   1.034 -0.7400  0.2021 -0.4924
 7472TIP3    H143831   4.289   0.241   0.981 -1.5227  2.5075 -3.0805
 7472TIP3    H243832   4.223   0.221   1.115  1.6577 -2.1286 -1.9826
 7473TIP3   OH243833   6.166   1.099   0.822 -0.2669  0.2382 -0.2483
 7473TIP3    H143834   6.236   1.041   0.791  0.0247  1.3324 -1.7049
 7473TIP3    H243835   6.093   1.040   0.841  0.4452 -0.7382 -0.4729
 7474TIP3   OH243836   1.404   3.326  12.931  0.6133  0.1581  0.1606
 7474TIP3    H143837   1.319   3.318  12.887  0.0775 -0.5402  1.2750
 7474TIP3    H243838   1.442   3.406  12.894  0.0423 -0.2084 -1.2853
 7475TIP3   OH243839   5.156   5.248   4.939 -0.5374  0.4486  0.3925
 7475TIP3    H143840   5.156   5.321   4.877  0.1543 -1.1509 -1.6249
 7475TIP3    H243841   5.188   5.174   4.888 -0.4384 -1.1011  2.5729
 7476TIP3   OH243842   0.298   6.486  12.866  0.0825  0.1751 -0.4891
 7476TIP3    H143843   0.315   6.407  12.815  0.6061 -0.0512  0.0252
 7476TIP3    H243844   0.256   6.455  12.946 -2.5536  0.6903 -1.5617
 7477TIP3   OH243845   2.015   6.718   1.039 -0.2577 -0.6040  0.1388
 7477TIP3    H143846   1.977   6.632   1.058  0.7571 -1.2379 -0.5875
 7477TIP3    H243847   2.102   6.698   1.005  1.0945  0.8060  2.5145
 7478TIP3   OH243848   0.618   2.619   1.917  0.0722 -0.1823  0.0568
 7478TIP3    H143849   0.605   2.703   1.874 -2.3466  0.8864  2.5147
 7478TIP3    H243850   0.532   2.578   1.915  0.2146 -0.7379  2.3527
 7479TIP3   OH243851   6.598   6.255  16.700  0.3131  0.5125  0.2080
 7479TIP3    H143852   6.511   6.242  16.739 -0.0698 -0.8063 -1.0038
 7479TIP3    H243853   6.658   6.225  16.768 -0.3150 -0.9985  0.1601
 7480TIP3   OH243854   3.810   3.925  12.318 -0.8804 -0.0998 -0.0851
 7480TIP3    H143855   3.792   3.980  12.394 -0.4193  0.2801 -0.2445
 7480TIP3    H243856   3.723   3.902  12.284 -1.1671 -1.8892  1.6734
 7481TIP3   OH243857   0.985   5.274  13.812  0.0424 -0.2682 -0.2760
 7481TIP3    H143858   1.069   5.251  13.852  0.0884  0.2122 -0.0844
 7481TIP3    H243859   0.920   5.252  13.879  0.0785  0.0630 -0.1302
 7482TIP3   OH243860   3.023   3.718  16.674  0.1091 -0.1702 -0.0624
 7482TIP3    H143861   3.051   3.626  16.676  1.8705  0.2347 -1.9292
 7482TIP3    H243862   3.055   3.754  16.757 -2.0750 -1.5295  1.4926
 7483TIP3   OH243863   6.424   0.264  13.149 -0.7706 -0.4614  0.2126
 7483TIP3    H143864   6.354   0.231  13.205  0.0402  1.2006  2.3307
 7483TIP3    H243865   6.471   0.185  13.121 -1.3004 -1.3670  1.7444
 7484TIP3   OH243866   1.238   2.794  11.726  0.8054 -0.6096  0.6661
 7484TIP3    H143867   1.298   2.778  11.798  1.0880 -0.0220  0.5760
 7484TIP3    H243868   1.155   2.815  11.767 -0.2504 -4.3503  0.8027
 7485TIP3   OH243869   1.475   4.595  17.347  0.2055  0.4884 -0.0590
 7485TIP3    H143870   1.428   4.670  17.384 -0.9016  0.1024 -0.6258
 7485TIP3    H243871   1.472   4.608  17.252  0.0415 -0.2331 -0.1642
 7486TIP3   OH243872   6.497   3.755   4.324 -0.0329  0.4632  0.2833
 7486TIP3    H143873   6.529   3.696   4.256 -0.2744 -0.7053  1.1565
 7486TIP3    H243874   6.402   3.746   4.322 -0.1791  1.8612 -0.4680
 7487TIP3   OH243875   1.029   3.880   2.613  0.1924 -0.0831  0.6341
 7487TIP3    H143876   0.951   3.917   2.655  0.9783  3.0717 -0.4000
 7487TIP3    H243877   1.009   3.880   2.520  1.1360  0.0587  0.4172
 7488TIP3   OH243878   1.750   4.536   5.674 -0.0930 -0.2811  0.1510
 7488TIP3    H143879   1.821   4.483   5.638  0.2159  0.3558 -0.1933
 7488TIP3    H243880   1.681   4.532   5.608  0.0352 -0.0353  0.0016
 7489TIP3   OH243881   1.281   0.055  16.668 -0.1042 -0.6020  0.5718
 7489TIP3    H143882   1.252   0.094  16.585 -1.2832 -0.3707  1.0609
 7489TIP3    H243883   1.253  -0.036  16.662  0.9945 -0.9193  0.1840
 7490TIP3   OH243884   2.077   5.161   3.321 -0.1464 -0.0856  0.2910
 7490TIP3    H143885   1.997   5.112   3.340 -1.6347  0.9349 -2.6732
 7490TIP3    H243886   2.135   5.097   3.281  0.2831 -0.6714  1.8006
 7491TIP3   OH243887   1.663   3.726  11.908  0.4766  0.6039  0.1216
 7491TIP3    H143888   1.666   3.790  11.837  0.5506  0.6902  0.2023
 7491TIP3    H243889   1.569   3.708  11.920  0.5017 -0.0438 -0.5638
 7492TIP3   OH243890   3.723   2.906  12.791 -0.3253 -0.1988  0.3362
 7492TIP3    H143891   3.720   2.988  12.839  3.0422  0.7871 -0.9011
 7492TIP3    H243892   3.754   2.841  12.854  0.6811  0.3241  0.3830
 7493TIP3   OH243893   1.202   2.431   3.923 -0.8007 -0.0350 -0.1693
 7493TIP3    H143894   1.239   2.420   4.010  1.1111 -0.0080 -0.9303
 7493TIP3    H243895   1.109   2.447   3.938 -0.6667 -0.8333  1.8072
 7494TIP3   OH243896   5.146   1.360  13.503  0.7919 -0.3315 -0.2257
 7494TIP3    H143897   5.151   1.267  13.525 -1.4316 -0.3351  0.5262
 7494TIP3    H243898   5.207   1.402  13.562  0.0230 -1.0991  1.1757
 7495TIP3   OH243899   2.843   0.659  14.820 -0.0192  0.3272  0.3338
 7495TIP3    H143900   2.816   0.633  14.732 -1.5844  1.4615  0.4309
 7495TIP3    H243901   2.800   0.595  14.877  0.1663  0.1943  0.3247
 7496TIP3   OH243902   3.950   2.071   2.436  0.0460 -0.2237  0.0039
 7496TIP3    H143903   3.867   2.056   2.390  0.8490 -0.2963 -1.4889
 7496TIP3    H243904   4.004   2.118   2.373  1.2489 -0.4441  0.8394
 7497TIP3   OH243905   2.291   4.716  17.162  0.2824 -0.5146 -0.4461
 7497TIP3    H143906   2.341   4.695  17.241  1.9808 -1.1562 -1.6246
 7497TIP3    H243907   2.256   4.631  17.134 -0.1443 -0.3201 -0.5028
 7498TIP3   OH243908   3.998   3.616  15.892 -0.2135 -1.0379 -0.0104
 7498TIP3    H143909   4.006   3.578  15.805  1.1401 -1.8266  0.4303
 7498TIP3    H243910   4.088   3.620  15.925 -0.5955  0.1124  0.9987
 7499TIP3   OH243911   1.146   0.520   6.076  0.2132 -0.1211  0.2035
 7499TIP3    H143912   1.167   0.431   6.050  0.5940  1.0744 -4.5366
 7499TIP3    H243913   1.050   0.521   6.082  0.2003 -0.8233  0.2110
 7500TIP3   OH243914   6.368   5.101   4.487  0.2083  0.1429  0.7034
 7500TIP3    H143915   6.399   5.045   4.559 -0.5261 -0.5730  0.4784
 7500TIP3    H243916   6.445   5.114   4.432  0.0712 -1.9113 -0.0434
 7501TIP3   OH243917   1.626   1.440  15.167 -0.0004 -0.2834  0.6333
 7501TIP3    H143918   1.569   1.492  15.223 -1.0385 -0.7865  0.0780
 7501TIP3    H243919   1.660   1.502  15.103 -1.0773 -0.2330  0.0905
 7502TIP3   OH243920   2.005   3.352  15.685  0.1997 -0.3213 -0.1283
 7502TIP3    H143921   1.921   3.308  15.680  0.4992 -0.8522 -0.6582
 7502TIP3    H243922   2.068   3.287  15.653  0.6511  0.4744 -0.9121
 7503TIP3   OH243923   4.881   0.616  14.061 -0.0386  0.2190 -0.1357
 7503TIP3    H143924   4.923   0.608  13.975 -1.5232 -0.3811 -0.8474
 7503TIP3    H243925   4.806   0.674  14.046 -0.5306 -0.1834  0.6698
 7504TIP3   OH243926   1.613   1.530   1.525  0.2673  0.0611  0.2866
 7504TIP3    H143927   1.566   1.489   1.598 -2.7810  1.1302 -0.9107
 7504TIP3    H243928   1.621   1.622   1.550 -0.8398  0.4444 -0.7025
 7505TIP3   OH243929   4.040   5.950  12.338 -0.1073  0.5430 -0.0900
 7505TIP3    H143930   4.015   6.004  12.263 -2.6688  1.4899  1.3155
 7505TIP3    H243931   3.970   5.963  12.401  1.0767 -1.5785  1.8143
 7506TIP3   OH243932   5.531   4.031   3.058 -0.2741  0.1560  0.0583
 7506TIP3    H143933   5.583   3.998   3.131 -0.6365  0.7946  0.6085
 7506TIP3    H243934   5.441   4.014   3.083 -0.5562  2.4932  0.8662
 7507TIP3   OH243935   0.313   3.931   2.962 -0.4172 -0.2213 -0.1853
 7507TIP3    H143936   0.396   3.888   2.941 -0.8872 -2.4028  2.0061
 7507TIP3    H243937   0.260   3.921   2.883 -0.3077 -3.3976  0.0116
 7508TIP3   OH243938   1.239   0.943   1.901  0.0408 -0.0944  0.0108
 7508TIP3    H143939   1.266   0.861   1.860  0.4978  0.1998 -0.2894
 7508TIP3    H243940   1.229   1.004   1.828  1.5634  0.6256  0.3641
 7509TIP3   OH243941   1.870   2.060   2.431 -0.1902  0.4390  0.3953
 7509TIP3    H143942   1.803   2.082   2.367 -0.1411 -2.5948 -0.8495
 7509TIP3    H243943   1.827   1.996   2.489  0.2543  1.9534  2.5139
 7510TIP3   OH243944   2.563   2.261   3.982 -0.0478  0.1549 -0.4820
 7510TIP3    H143945   2.576   2.325   4.051  1.0484 -0.7592  0.2003
 7510TIP3    H243946   2.469   2.242   3.983 -0.0534  0.2026  0.7063
 7511TIP3   OH243947   4.502   4.455   2.418 -0.1084  0.9270  0.3360
 7511TIP3    H143948   4.421   4.494   2.450 -1.6188 -1.7518  0.0765
 7511TIP3    H243949   4.483   4.430   2.328  0.4015 -1.1725  0.7552
 7512TIP3   OH243950   4.749   6.546  15.039 -0.7441  0.4444  0.0011
 7512TIP3    H143951   4.707   6.473  14.993  0.0904  0.2774 -0.5192
 7512TIP3    H243952   4.688   6.618  15.031 -0.7781  0.3117 -1.0704
 7513TIP3   OH243953   1.156   1.265  12.568 -0.0700  0.0908  0.2332
 7513TIP3    H143954   1.186   1.176  12.551 -2.1255 -0.4729 -0.7806
 7513TIP3    H243955   1.070   1.270  12.527 -0.4850  2.2245  1.1937
 7514TIP3   OH243956   1.446   5.448  14.386  0.8328 -0.6435  0.0606
 7514TIP3    H143957   1.541   5.458  14.394  0.9129 -0.7876 -0.6434
 7514TIP3    H243958   1.411   5.482  14.468  1.3974  0.7090 -0.2405
 7515TIP3   OH243959   6.012   6.462   2.144 -0.4589 -0.6009  0.2483
 7515TIP3    H143960   5.942   6.512   2.102 -0.4287 -2.0080 -1.5807
 7515TIP3    H243961   6.082   6.526   2.160 -1.7613  0.6218  1.2474
 7516TIP3   OH243962   0.756   0.811  12.079  0.4445  0.3951 -0.2030
 7516TIP3    H143963   0.689   0.877  12.064 -0.8545 -1.1034 -1.4473
 7516TIP3    H243964   0.747   0.786  12.171 -1.7065 -0.7538 -0.6716
 7517TIP3   OH243965   0.430   3.774  13.722  0.1404 -0.2939 -0.0453
 7517TIP3    H143966   0.405   3.811  13.806  1.3941  1.1582 -0.2580
 7517TIP3    H243967   0.391   3.832  13.657 -2.3898 -2.4277 -0.6000
 7518TIP3   OH243968   4.312   5.077  16.899 -0.5172  0.0918 -0.8091
 7518TIP3    H143969   4.377   5.098  16.966 -0.4762  0.7581 -1.0597
 7518TIP3    H243970   4.233   5.057  16.950 -0.3079 -0.0526 -0.5346
 7519TIP3   OH243971   1.817   2.062  15.936  0.3942  0.2526  0.5431
 7519TIP3    H143972   1.860   1.984  15.902  0.0541 -0.1014  0.9289
 7519TIP3    H243973   1.880   2.100  15.997  1.2105  1.1516 -0.7847
 7520TIP3   OH243974   2.389   6.135   2.449 -0.1404  0.0025  0.0972
 7520TIP3    H143975   2.373   6.126   2.543  1.1237 -1.0699  0.2230
 7520TIP3    H243976   2.459   6.073   2.429  0.7613  1.3650 -1.2486
 7521TIP3   OH243977   4.090   2.354   3.629  0.0713  0.0079 -0.0992
 7521TIP3    H143978   4.170   2.391   3.591  0.5077 -0.4143  0.3878
 7521TIP3    H243979   4.106   2.352   3.723 -0.5494 -0.0042  0.0125
 7522TIP3   OH243980   5.670   1.512  15.376 -0.0448  0.2452  0.4259
 7522TIP3    H143981   5.620   1.594  15.375  1.0563  0.9430 -0.0769
 7522TIP3    H243982   5.655   1.474  15.290 -0.0848  0.2200  0.4441
 7523TIP3   OH243983   2.749   3.535   1.329 -0.2999  0.2098 -0.0696
 7523TIP3    H143984   2.677   3.532   1.266  0.1120  0.3662 -0.5633
 7523TIP3    H243985   2.797   3.454   1.314  0.6486  0.9114 -1.0094
 7524TIP3   OH243986   0.549   3.184  16.268  0.0373  0.1011 -0.3787
 7524TIP3    H143987   0.524   3.105  16.317 -2.2438  0.7660 -0.3402
 7524TIP3    H243988   0.522   3.166  16.178 -0.5999  0.8408 -0.3528
 7525TIP3   OH243989   1.419   0.980   1.453 -0.3990 -0.2644  0.3471
 7525TIP3    H143990   1.331   0.952   1.430 -0.5816  0.5199  0.0830
 7525TIP3    H243991   1.477   0.926   1.398 -0.7551  0.0962 -0.3836
 7526TIP3   OH243992   3.687   0.686   2.040 -0.2437  0.0294  0.0590
 7526TIP3    H143993   3.730   0.769   2.020  1.3855 -1.2103 -2.0997
 7526TIP3    H243994   3.640   0.664   1.959 -0.4331 -1.2581  0.5019
 7527TIP3   OH243995   4.494   6.662   5.582 -0.4688 -0.3528  0.0434
 7527TIP3    H143996   4.588   6.680   5.590 -0.0527 -2.2315 -0.0092
 7527TIP3    H243997   4.459   6.675   5.670 -0.5374  2.0005 -0.2663
 7528TIP3   OH243998   0.953   3.516   4.545  0.3794  0.0958  0.4491
 7528TIP3    H143999   0.964   3.570   4.624 -0.1701  0.0621  0.5511
 7528TIP3    H244000   1.027   3.541   4.489 -0.0867  1.2570  0.3198
 7529TIP3   OH244001   3.368   1.781   4.134  0.4887  0.1462 -0.0274
 7529TIP3    H144002   3.303   1.751   4.071  0.9474 -1.3117  0.1570
 7529TIP3    H244003   3.340   1.869   4.158 -1.3726 -0.4245  0.0030
 7530TIP3   OH244004   3.777   4.497   6.394  0.2214  0.9360 -0.2516
 7530TIP3    H144005   3.834   4.542   6.331  0.4491  0.6461 -0.2568
 7530TIP3    H244006   3.770   4.557   6.468 -0.9489  1.7741 -1.0007
 7531TIP3   OH244007   2.845   6.122   0.435  0.7530 -0.1878 -0.0287
 7531TIP3    H144008   2.867   6.039   0.477  0.5527 -0.2414 -0.0321
 7531TIP3    H244009   2.922   6.142   0.382  0.0020 -1.4088 -1.6676
 7532TIP3   OH244010   2.654   1.288   3.193  0.3646 -0.3192 -0.8347
 7532TIP3    H144011   2.736   1.335   3.203  1.3618 -2.3270  1.6105
 7532TIP3    H244012   2.672   1.200   3.227 -2.6183 -1.0622 -0.8486
 7533TIP3   OH244013   2.340   3.051  15.708 -0.2110 -0.1859  0.2712
 7533TIP3    H144014   2.324   3.073  15.616  0.3516  0.0336  0.2170
 7533TIP3    H244015   2.335   3.135  15.754  0.9513 -0.0646  0.2127
 7534TIP3   OH244016   3.872   2.859  14.700 -0.1343  0.0013 -0.1769
 7534TIP3    H144017   3.913   2.936  14.739 -0.9622 -0.2943  1.3536
 7534TIP3    H244018   3.888   2.868  14.606  1.2927  1.1272  0.1467
 7535TIP3   OH244019   3.481   5.595   6.748  0.1983 -0.0944 -0.1695
 7535TIP3    H144020   3.409   5.588   6.686 -0.8847  1.2519  0.8745
 7535TIP3    H244021   3.438   5.604   6.833  1.5916  1.1101  0.4427
 7536TIP3   OH244022   6.553   3.317   4.269  0.3407  0.6541 -0.9312
 7536TIP3    H144023   6.560   3.288   4.178 -1.3264  0.5361 -1.0623
 7536TIP3    H244024   6.632   3.284   4.312  1.1934  0.8036 -2.3572
 7537TIP3   OH244025   1.268   1.329  11.805  0.2147  0.1289 -0.0083
 7537TIP3    H144026   1.352   1.284  11.811  0.3284  0.2046 -0.9180
 7537TIP3    H244027   1.291   1.422  11.806 -0.0811  0.2862  2.9743
 7538TIP3   OH244028   5.142   4.995   2.140  0.0956 -0.3563 -0.1327
 7538TIP3    H144029   5.188   5.031   2.064  0.1198 -0.4952 -0.1837
 7538TIP3    H244030   5.111   4.909   2.111 -0.7021 -0.0211 -0.2909
 7539TIP3   OH244031   0.099   3.080  13.450  0.3405  0.2303  0.1703
 7539TIP3    H144032   0.137   3.053  13.366 -0.4526  1.0344 -0.4640
 7539TIP3    H244033   0.005   3.086  13.433  0.2394  1.0009  0.9593
 7540TIP3   OH244034   1.464   2.159  13.566 -0.2706 -0.3030  0.3883
 7540TIP3    H144035   1.437   2.174  13.657 -0.7088 -1.7337  0.5234
 7540TIP3    H244036   1.383   2.135  13.521  0.3471 -2.4766  0.2993
 7541TIP3   OH244037   1.772   3.691   0.156 -0.1053 -0.1453 -0.0486
 7541TIP3    H144038   1.825   3.622   0.196 -0.4673  0.2799  1.1754
 7541TIP3    H244039   1.702   3.708   0.219 -0.6101  0.6298 -0.8004
 7542TIP3   OH244040   0.717   6.291  12.460 -0.8348 -0.5289 -0.0024
 7542TIP3    H144041   0.722   6.257  12.550 -1.4505  1.4206  0.8360
 7542TIP3    H244042   0.644   6.353  12.463 -0.6977 -0.2437 -1.8030
 7543TIP3   OH244043   6.134   2.572   6.010 -0.6298  0.1919  0.4383
 7543TIP3    H144044   6.082   2.642   5.970 -1.3967 -0.4526  0.2873
 7543TIP3    H244045   6.218   2.613   6.028 -1.1048  1.1913  0.4628
 7544TIP3   OH244046   0.961   4.813  15.819 -0.3956  0.3188 -0.3801
 7544TIP3    H144047   0.983   4.905  15.803 -2.1753  0.8293 -0.0421
 7544TIP3    H244048   0.876   4.800  15.777 -1.1501 -0.5985  1.3050
 7545TIP3   OH244049   0.972   3.713   5.351 -0.2557  0.1668 -0.1897
 7545TIP3    H144050   0.899   3.656   5.327  0.2927 -0.4398 -0.4506
 7545TIP3    H244051   1.015   3.669   5.424 -0.1446  0.5196 -0.0376
 7546TIP3   OH244052   5.205   1.136  12.142  0.7938  0.0991 -0.1023
 7546TIP3    H144053   5.197   1.073  12.213 -0.8913  2.2964  1.8398
 7546TIP3    H244054   5.293   1.121  12.106  1.3491 -1.7372  1.8188
 7547TIP3   OH244055   1.110   6.488  16.371  0.3076 -0.2543  0.5401
 7547TIP3    H144056   1.137   6.521  16.285 -1.9281  1.8249  0.5449
 7547TIP3    H244057   1.051   6.415  16.351 -1.3180  1.1038  0.1966
 7548TIP3   OH244058   5.193   0.345  11.684 -0.1038  0.2175 -0.3783
 7548TIP3    H144059   5.200   0.440  11.673  0.5967  0.2699  0.4095
 7548TIP3    H244060   5.274   0.311  11.647  0.6448  0.1205  1.2635
 7549TIP3   OH244061   0.282   2.131  10.066 -0.2336 -0.1122 -0.0161
 7549TIP3    H144062   0.355   2.191  10.053 -0.5223  0.5638  1.2887
 7549TIP3    H244063   0.292   2.101  10.156 -1.4059 -0.2085  0.0971
 7550TIP3   OH244064   4.299   0.012  15.785  0.1067 -0.1913 -0.0506
 7550TIP3    H144065   4.321   0.052  15.701  1.7756 -0.1445  0.3857
 7550TIP3    H244066   4.348   0.063  15.849 -2.3842  0.8484  1.1897
 7551TIP3   OH244067   6.505   0.029  16.093  0.4723  0.0426 -0.6249
 7551TIP3    H144068   6.428   0.013  16.038  0.5143  2.5340 -1.5287
 7551TIP3    H244069   6.570  -0.033  16.060  0.2980  1.0318 -3.0879
 7552TIP3   OH244070   3.797   2.490   2.786  0.1473 -0.4315 -0.6313
 7552TIP3    H144071   3.807   2.485   2.691  1.2446 -1.6124 -0.4872
 7552TIP3    H244072   3.874   2.444   2.820  0.6169  1.3337  0.8652
 7553TIP3   OH244073   3.221   2.683  17.282 -0.0820  0.0372  0.2078
 7553TIP3    H144074   3.300   2.633  17.261  0.0277  0.6344 -0.8363
 7553TIP3    H244075   3.157   2.657  17.216 -0.7318 -0.3444  0.9690
 7554TIP3   OH244076   1.142   0.606  16.495  0.1152  0.3120  0.2238
 7554TIP3    H144077   1.092   0.663  16.553  1.0418 -1.1735  2.6382
 7554TIP3    H244078   1.077   0.569  16.435 -1.1238  0.8907  1.1752
 7555TIP3   OH244079   5.335   0.766   5.951  0.3325 -0.0044  0.0985
 7555TIP3    H144080   5.387   0.799   5.878  0.9892  4.6661  2.2654
 7555TIP3    H244081   5.244   0.777   5.924  0.5693  1.8486 -0.0800
 7556TIP3   OH244082   5.048   6.247   0.737 -0.3920  0.2310 -0.1420
 7556TIP3    H144083   5.125   6.242   0.795 -1.1954 -3.8445  0.8729
 7556TIP3    H244084   5.083   6.225   0.651 -0.1879 -0.1766  0.0400
 7557TIP3   OH244085   2.157   6.081  13.274 -0.1992 -0.1202  0.5368
 7557TIP3    H144086   2.090   6.030  13.320  1.3869 -0.0579  3.1559
 7557TIP3    H244087   2.220   6.017  13.243  0.7280  0.0443  1.9908
 7558TIP3   OH244088   4.090   0.117   5.638 -0.1063 -0.2031  0.1651
 7558TIP3    H144089   4.024   0.171   5.682  0.4629  0.0235  0.7622
 7558TIP3    H244090   4.129   0.176   5.573 -1.4105 -0.7333 -1.1471
 7559TIP3   OH244091   4.682   1.111  13.272 -0.1268  0.1491 -0.3413
 7559TIP3    H144092   4.768   1.098  13.312 -0.5828 -0.5059  0.4318
 7559TIP3    H244093   4.625   1.049  13.316 -1.5816  2.2930  0.9525
 7560TIP3   OH244094   3.735   0.330   0.880 -0.0875  0.0188  0.3281
 7560TIP3    H144095   3.647   0.335   0.844  0.7044  0.0469 -1.7057
 7560TIP3    H244096   3.736   0.396   0.949 -0.6007  2.6475 -2.0061
 7561TIP3   OH244097   3.097   2.691   1.422 -0.0207 -0.1398 -0.1273
 7561TIP3    H144098   3.103   2.741   1.504 -0.2056 -1.6410  0.8336
 7561TIP3    H244099   3.057   2.608   1.447  1.1041 -1.1470 -1.5206
 7562TIP3   OH244100   1.723   0.232  15.312 -0.1250 -0.2808  0.5938
 7562TIP3    H144101   1.774   0.158  15.346 -1.5414 -1.1536  0.8677
 7562TIP3    H244102   1.697   0.280  15.391 -1.0708 -0.7440  0.5698
 7563TIP3   OH244103   2.253   0.566  14.226  0.0973 -0.1811  0.4322
 7563TIP3    H144104   2.244   0.474  14.203 -0.0332 -0.4109  1.3509
 7563TIP3    H244105   2.346   0.584  14.219  0.1035 -0.3472  0.1055
 7564TIP3   OH244106   4.994   5.877   2.175  0.0278 -0.3023  0.3548
 7564TIP3    H144107   5.087   5.874   2.195 -0.2240  1.2431  1.9645
 7564TIP3    H244108   4.965   5.786   2.181  1.3074 -0.7276  0.3579
 7565TIP3   OH244109   4.383   6.664  16.875  0.0579  0.0479  0.1413
 7565TIP3    H144110   4.355   6.573  16.865 -1.5323  0.5782 -0.5400
 7565TIP3    H244111   4.445   6.677  16.804  0.4925 -0.5657  0.3942
 7566TIP3   OH244112   6.528   3.343  16.989 -0.2050  0.1264 -0.9054
 7566TIP3    H144113   6.564   3.298  16.913  1.1572  0.3035 -0.3908
 7566TIP3    H244114   6.598   3.340  17.054 -0.5177  1.8874 -0.4291
 7567TIP3   OH244115   2.221   4.459  13.444 -0.0570 -0.1366  0.3208
 7567TIP3    H144116   2.253   4.403  13.515 -0.7730  0.5701  1.2195
 7567TIP3    H244117   2.298   4.474  13.389  0.2687 -1.5693  0.3359
 7568TIP3   OH244118   3.843   2.250   2.183  0.3069  0.1357  0.2249
 7568TIP3    H144119   3.829   2.314   2.252  1.0583  1.5859 -0.9161
 7568TIP3    H244120   3.938   2.251   2.167  0.0180  0.8487 -1.7295
 7569TIP3   OH244121   4.021   3.787  12.292 -0.1019  0.0984 -0.0821
 7569TIP3    H144122   3.937   3.830  12.275 -1.8957 -3.2068 -0.6056
 7569TIP3    H244123   4.056   3.767  12.205  0.1023 -0.4682  0.1239
 7570TIP3   OH244124   1.259   4.921  13.748  0.4394 -0.1800  0.0847
 7570TIP3    H144125   1.190   4.887  13.805  1.0680 -0.4045  0.7212
 7570TIP3    H244126   1.291   4.844  13.701  1.3994 -0.3796  1.0295
 7571TIP3   OH244127   4.639   5.855  16.877  0.2265 -1.1185 -0.2519
 7571TIP3    H144128   4.545   5.869  16.867  0.0071 -1.9239  0.4917
 7571TIP3    H244129   4.650   5.761  16.869  1.2088 -0.8900 -1.9515
 7572TIP3   OH244130   5.523   0.461   0.626  0.5004 -0.6566  0.1659
 7572TIP3    H144131   5.517   0.528   0.558 -2.7808 -0.2421  0.7005
 7572TIP3    H244132   5.530   0.510   0.708 -1.1652 -0.9001  0.4982
 7573TIP3   OH244133   4.512   3.553   0.261  0.0267 -0.3337  0.3127
 7573TIP3    H144134   4.504   3.539   0.355 -0.7518  1.1191  0.4941
 7573TIP3    H244135   4.429   3.520   0.225 -0.3015  0.4585  0.3251
 7574TIP3   OH244136   1.351   0.719  16.890  0.3323  0.9748 -0.3097
 7574TIP3    H144137   1.446   0.728  16.882  0.2923  1.9243  0.1149
 7574TIP3    H244138   1.317   0.768  16.815  0.1745  1.1059 -0.1536
 7575TIP3   OH244139   4.950   0.762  13.447  0.3462 -0.3530 -0.2589
 7575TIP3    H144140   5.044   0.766  13.432  0.6173 -0.6476  1.2100
 7575TIP3    H244141   4.920   0.690  13.393  1.1987 -1.1421  0.2940
 7576TIP3   OH244142   3.642   2.815   4.405 -0.2731  0.0348 -0.2769
 7576TIP3    H144143   3.563   2.855   4.368 -0.7987 -1.5671 -0.9413
 7576TIP3    H244144   3.610   2.745   4.461  0.6871 -1.3995 -1.4692
 7577TIP3   OH244145   4.056   1.291  13.863 -0.1268  0.1588 -0.0186
 7577TIP3    H144146   4.070   1.272  13.770 -2.3586  1.0798 -0.5945
 7577TIP3    H244147   4.092   1.378  13.876  1.6671 -0.6053  0.4164
 7578TIP3   OH244148   5.161   4.073   5.740  0.4406  0.3488 -0.5352
 7578TIP3    H144149   5.126   4.059   5.652 -1.1193  2.8331 -0.4077
 7578TIP3    H244150   5.122   4.155   5.769  1.9740  0.3120  1.9760
 7579TIP3   OH244151   4.934   3.019   1.572  0.0057  0.4808 -0.1224
 7579TIP3    H144152   4.858   2.995   1.519  0.0244  0.8805 -0.3293
 7579TIP3    H244153   4.974   2.935   1.596  0.8708  0.3258 -1.9856
 7580TIP3   OH244154   6.273   3.913   5.436  0.0623  0.1986  0.6260
 7580TIP3    H144155   6.238   3.830   5.402 -0.9035  0.8181  0.0453
 7580TIP3    H244156   6.253   3.977   5.367  2.8500  0.5231  0.0074
 7581TIP3   OH244157   3.473   1.317  16.535  0.0471 -0.0420  0.3873
 7581TIP3    H144158   3.432   1.402  16.520  0.8687  0.4742  0.9448
 7581TIP3    H244159   3.406   1.253  16.512 -1.2848  0.7722  1.8183
 7582TIP3   OH244160   5.629   5.591  10.576 -0.2354  0.0677  0.0107
 7582TIP3    H144161   5.707   5.544  10.548  1.9514  1.2996  3.3827
 7582TIP3    H244162   5.631   5.674  10.528  0.1816 -0.1632 -0.3770
 7583TIP3   OH244163   4.730   1.575   2.199 -0.4382 -0.1318  0.0553
 7583TIP3    H144164   4.667   1.639   2.167 -0.4446 -0.5811 -0.8804
 7583TIP3    H244165   4.798   1.627   2.242 -0.4729  0.4965 -0.6331
 7584TIP3   OH244166   0.722   1.924  16.436 -0.7742 -0.2199 -0.0243
 7584TIP3    H144167   0.761   1.916  16.348 -2.6454 -0.4028 -0.8970
 7584TIP3    H244168   0.736   1.838  16.475  1.1123  0.2183  0.3544
 7585TIP3   OH244169   6.411   2.420   3.041  0.4379 -0.1112  0.2692
 7585TIP3    H144170   6.370   2.334   3.030  1.3982 -0.6639  0.8155
 7585TIP3    H244171   6.427   2.426   3.135  0.5636  0.5768  0.2042
 7586TIP3   OH244172   1.874   0.348   1.127  0.7775  0.6544 -0.6798
 7586TIP3    H144173   1.958   0.305   1.140 -0.9426 -2.9528 -0.1982
 7586TIP3    H244174   1.835   0.303   1.052 -1.9179  0.0185  0.9574
 7587TIP3   OH244175   0.706   3.916   5.702  0.4324  0.4254 -0.6832
 7587TIP3    H144176   0.802   3.916   5.698  0.5628 -3.3884 -1.5454
 7587TIP3    H244177   0.678   3.898   5.612 -0.8378 -2.0489  0.1096
 7588TIP3   OH244178   4.889   5.371   5.685  0.1341 -0.5036  0.0566
 7588TIP3    H144179   4.976   5.360   5.725 -0.3372 -0.6849  1.0398
 7588TIP3    H244180   4.841   5.293   5.711 -0.9399  0.4797  1.1146
 7589TIP3   OH244181   2.311   0.317   5.571 -0.6089  0.4230  0.0689
 7589TIP3    H144182   2.348   0.252   5.631 -0.1196  1.2017  0.6260
 7589TIP3    H244183   2.253   0.266   5.513  1.8996 -0.9943 -1.3876
 7590TIP3   OH244184   3.701   4.404   5.706  0.3531  0.1094 -0.6916
 7590TIP3    H144185   3.635   4.364   5.649 -2.2542  1.5371  1.1077
 7590TIP3    H244186   3.719   4.489   5.667  0.3593  0.1270 -0.6508
 7591TIP3   OH244187   2.508   1.714   2.626  0.5040 -0.3436  0.3060
 7591TIP3    H144188   2.541   1.730   2.714  3.5625 -0.3140 -0.7283
 7591TIP3    H244189   2.454   1.790   2.606  1.8982  0.9437  1.2317
 7592TIP3   OH244190   5.707   0.188  12.450 -0.1777 -0.6573 -0.7620
 7592TIP3    H144191   5.645   0.218  12.517  0.0127  0.8486 -1.2277
 7592TIP3    H244192   5.719   0.095  12.469 -0.3853 -0.3485  1.0902
 7593TIP3   OH244193   1.229   5.877  15.740  0.0373  0.4447  0.3841
 7593TIP3    H144194   1.286   5.879  15.816  1.3154  0.0315 -0.5199
 7593TIP3    H244195   1.235   5.787  15.708 -0.8477  0.4910  0.0715
 7594TIP3   OH244196   3.763   2.865   0.196 -0.1977 -0.3396  0.3635
 7594TIP3    H144197   3.765   2.887   0.289  0.1818  2.6947 -0.2386
 7594TIP3    H244198   3.855   2.854   0.171 -0.3700 -2.6189  0.5847
 7595TIP3   OH244199   6.213   3.666  14.538  0.7196  0.5811  0.1574
 7595TIP3    H144200   6.233   3.758  14.553  1.9164  0.2363  0.7553
 7595TIP3    H244201   6.265   3.619  14.603 -1.3759 -0.4186  1.2189
 7596TIP3   OH244202   3.790   4.227  16.352 -0.5803  0.1337  0.3519
 7596TIP3    H144203   3.700   4.241  16.324 -0.5707 -0.6601 -0.1059
 7596TIP3    H244204   3.841   4.223  16.271 -0.1388  0.5163  0.6053
 7597TIP3   OH244205   5.540   0.621   0.866 -0.0021 -0.0737  0.5772
 7597TIP3    H144206   5.589   0.702   0.874  0.0716 -0.1669  1.1257
 7597TIP3    H244207   5.545   0.581   0.953 -0.9734 -0.1243  0.6222
 7598TIP3   OH244208   5.646   3.376  15.461 -0.4799 -0.6163  0.4069
 7598TIP3    H144209   5.558   3.396  15.494 -0.0448 -0.4025  1.4736
 7598TIP3    H244210   5.694   3.347  15.539  0.6473  0.1464  0.0097
 7599TIP3   OH244211   4.259   4.151  14.689  0.5965 -0.6426 -0.0064
 7599TIP3    H144212   4.284   4.088  14.756  0.6441 -0.0224  0.5674
 7599TIP3    H244213   4.331   4.148  14.625  0.0007 -2.0834 -0.6577
 7600TIP3   OH244214   0.834   5.880  13.079  0.1317 -0.3343  0.2276
 7600TIP3    H144215   0.917   5.921  13.101 -0.9196  1.2993  1.3462
 7600TIP3    H244216   0.859   5.796  13.039  2.3666  1.1466 -1.7638
 7601TIP3   OH244217   6.011   6.381   4.851 -0.1171 -0.9618  0.4346
 7601TIP3    H144218   6.031   6.399   4.943  1.5091 -1.8721  0.2962
 7601TIP3    H244219   6.084   6.328   4.820 -0.7502 -0.8831 -1.3337
 7602TIP3   OH244220   2.547   1.244   2.533  0.1471 -0.0057  0.0189
 7602TIP3    H144221   2.629   1.291   2.532 -1.4362  3.0097 -1.5697
 7602TIP3    H244222   2.555   1.180   2.462  0.5966  1.4101 -1.2699
 7603TIP3   OH244223   6.702   1.122  15.109 -0.3276 -0.6358  0.4366
 7603TIP3    H144224   6.683   1.196  15.167  0.6633  0.1491 -0.2076
 7603TIP3    H244225   6.616   1.087  15.085 -0.7811 -1.3571  2.8002
 7604TIP3   OH244226   1.700   2.816  14.153 -0.1930  0.7434 -0.3622
 7604TIP3    H144227   1.680   2.844  14.242  0.8556  0.9739 -0.1835
 7604TIP3    H244228   1.622   2.769  14.124 -0.0703 -0.4230  1.1274
 7605TIP3   OH244229   2.654   2.426   4.191 -0.1392  0.0382  0.0497
 7605TIP3    H144230   2.732   2.464   4.232 -0.0759 -0.0161 -0.0175
 7605TIP3    H244231   2.581   2.454   4.246  0.2091 -2.3763  1.8726
 7606TIP3   OH244232   4.083   6.675   6.086 -0.3013  0.3410  0.3821
 7606TIP3    H144233   4.111   6.766   6.085  0.0501  0.2348 -0.3542
 7606TIP3    H244234   4.014   6.670   6.020  0.9721 -0.2971 -0.9598
 7607TIP3   OH244235   3.350   3.043   0.681  0.0437  0.3502  0.3220
 7607TIP3    H144236   3.404   2.969   0.710  0.9647  0.9227  0.1099
 7607TIP3    H244237   3.395   3.076   0.603 -1.5917 -0.2617 -0.9434
 7608TIP3   OH244238   5.418   4.809  13.318 -0.3902  0.3173  0.4956
 7608TIP3    H144239   5.402   4.755  13.395  0.3586  1.2553  1.3354
 7608TIP3    H244240   5.506   4.783  13.289 -0.6764 -0.0486 -0.0797
 7609TIP3   OH244241   4.141   3.768   4.833 -0.4955 -0.1065  0.3819
 7609TIP3    H144242   4.081   3.832   4.870 -1.3386 -0.2933 -0.6128
 7609TIP3    H244243   4.169   3.714   4.907 -1.5683 -0.0261  0.8533
 7610TIP3   OH244244   6.423   4.888  15.835 -0.5149  0.6873  0.5312
 7610TIP3    H144245   6.376   4.885  15.919 -0.9637  2.2068  0.3670
 7610TIP3    H244246   6.432   4.981  15.816  0.5507  0.3854 -0.5915
 7611TIP3   OH244247   1.242   3.778   0.597 -0.5075 -0.4935  0.0774
 7611TIP3    H144248   1.253   3.691   0.557 -0.6072 -0.3688 -0.2272
 7611TIP3    H244249   1.291   3.773   0.679 -2.0331 -1.4474  0.9833
 7612TIP3   OH244250   0.119   5.076  16.620  0.5812 -0.3218 -0.5001
 7612TIP3    H144251   0.173   5.105  16.694 -0.4396 -0.9382  0.5201
 7612TIP3    H244252   0.037   5.124  16.630 -0.2107 -1.6999 -0.2040
 7613TIP3   OH244253   3.969   2.761   2.617 -0.5184  0.1444 -0.0438
 7613TIP3    H144254   3.980   2.677   2.662  0.1417 -0.2797 -0.9717
 7613TIP3    H244255   3.897   2.746   2.557 -0.5567  0.3164 -0.0398
 7614TIP3   OH244256   4.905   3.540   3.953  0.0875 -0.1673 -0.5049
 7614TIP3    H144257   4.848   3.556   3.878  0.2579  0.0261 -0.5928
 7614TIP3    H244258   4.856   3.477   4.007  1.0251 -2.3487 -2.0290
 7615TIP3   OH244259   0.313   3.781  11.215  0.0181  0.3846  0.2456
 7615TIP3    H144260   0.290   3.747  11.302  1.7043  2.9560  1.8186
 7615TIP3    H244261   0.247   3.848  11.198  0.9103  1.3444  0.5274
 7616TIP3   OH244262   4.732   1.098  15.669  0.6508 -0.3870  0.6394
 7616TIP3    H144263   4.706   1.085  15.577  0.3515 -1.0412  0.8093
 7616TIP3    H244264   4.649   1.106  15.716  0.7534 -1.5955  1.0605
 7617TIP3   OH244265   3.046   4.582   3.737  0.3910  0.4005 -0.0374
 7617TIP3    H144266   3.034   4.503   3.791  2.2898 -0.2539 -0.5189
 7617TIP3    H244267   3.135   4.611   3.756  0.6532  0.8947 -1.8644
 7618TIP3   OH244268   2.065   1.232   4.804  0.1359 -0.0541 -0.0858
 7618TIP3    H144269   2.148   1.208   4.845  0.2436  0.5141  0.0319
 7618TIP3    H244270   1.998   1.197   4.863  0.2787 -0.7589 -0.3225
 7619TIP3   OH244271   2.536   6.123   6.626 -0.1176 -0.6473 -0.5030
 7619TIP3    H144272   2.465   6.141   6.564 -0.4079  0.4421  0.1041
 7619TIP3    H244273   2.616   6.127   6.574 -0.4855 -1.8129 -1.1811
 7620TIP3   OH244274   0.589   0.272   6.389  0.4558  0.2585 -0.2704
 7620TIP3    H144275   0.545   0.326   6.455 -0.4494  0.1439 -0.7697
 7620TIP3    H244276   0.573   0.182   6.417  0.2584  0.2133 -0.5277
 7621TIP3   OH244277   1.083   2.366   4.650  0.3212 -0.2723 -0.1468
 7621TIP3    H144278   1.046   2.409   4.573 -0.3154  0.0624  0.3348
 7621TIP3    H244279   1.026   2.291   4.666  0.8982 -0.7861 -0.4425
 7622TIP3   OH244280   5.740   1.873  15.695  0.5679 -0.3474  0.1899
 7622TIP3    H144281   5.796   1.872  15.617  0.0576 -0.3484 -0.1822
 7622TIP3    H244282   5.721   1.966  15.709 -0.7723 -0.4485 -0.7448
 7623TIP3   OH244283   4.831   3.373  16.257 -0.8390  0.3813  0.0387
 7623TIP3    H144284   4.906   3.433  16.253 -1.4794  1.2467  0.6925
 7623TIP3    H244285   4.758   3.424  16.221 -0.8529 -0.9375 -1.9914
 7624TIP3   OH244286   4.510   4.926   4.402 -0.2653 -0.1883  0.1659
 7624TIP3    H144287   4.604   4.910   4.415 -0.3306 -0.3755  0.4216
 7624TIP3    H244288   4.477   4.847   4.360 -0.6143 -0.8367  1.5680
 7625TIP3   OH244289   4.318   2.937  12.048 -0.1209  0.0154 -0.3942
 7625TIP3    H144290   4.243   2.920  11.992  0.4823  3.4068 -2.5360
 7625TIP3    H244291   4.291   3.010  12.103  1.6134  1.5958 -1.5086
 7626TIP3   OH244292   2.120   4.115   5.590  0.1320 -0.2579 -0.0626
 7626TIP3    H144293   2.154   4.065   5.517 -0.9210 -2.7014  1.0093
 7626TIP3    H244294   2.198   4.143   5.639  0.7693  0.0098 -1.2042
 7627TIP3   OH244295   2.757   1.948  10.761  0.0471  0.5312  0.7237
 7627TIP3    H144296   2.744   1.919  10.671 -0.1698 -1.0086  1.2137
 7627TIP3    H244297   2.711   1.882  10.814 -1.4618  2.4271  1.8948
 7628TIP3   OH244298   0.327   3.797  14.503 -0.0673 -0.2912  0.1296
 7628TIP3    H144299   0.292   3.881  14.532 -1.1292 -0.6875  0.0327
 7628TIP3    H244300   0.387   3.819  14.432  1.7892  0.6070  1.8987
 7629TIP3   OH244301   6.750   2.030   3.441  0.1416 -0.4284 -0.0703
 7629TIP3    H144302   6.786   2.088   3.374  0.9883 -1.8836 -0.9345
 7629TIP3    H244303   6.809   2.039   3.516 -1.8089  2.5797  1.2878
 7630TIP3   OH244304   4.102   6.149   6.205  0.6569  0.0124 -0.5818
 7630TIP3    H144305   4.177   6.206   6.189  1.0341 -0.6618 -1.2941
 7630TIP3    H244306   4.139   6.061   6.211  0.0150 -0.2364 -0.1166
 7631TIP3   OH244307   5.288   2.324   4.011 -0.0113  0.7748  0.2344
 7631TIP3    H144308   5.287   2.398   4.072 -0.2820 -0.2275  1.4890
 7631TIP3    H244309   5.367   2.276   4.034 -1.8489 -1.5232  2.2483
 7632TIP3   OH244310   3.487   1.535   6.124  1.1097 -0.1678 -0.0081
 7632TIP3    H144311   3.535   1.617   6.131 -1.0726  1.3612 -1.6208
 7632TIP3    H244312   3.414   1.555   6.065  0.1558 -3.1183  0.0284
 7633TIP3   OH244313   2.656   2.950  13.505  0.1852  0.4721 -0.0713
 7633TIP3    H144314   2.699   2.945  13.590 -0.6043  1.6720  0.4204
 7633TIP3    H244315   2.704   2.887  13.450  2.0343  1.1723  0.6744
 7634TIP3   OH244316   3.788   5.384   1.305  0.2145  0.2506 -0.7019
 7634TIP3    H144317   3.809   5.467   1.347  1.7242 -0.5262  0.1791
 7634TIP3    H244318   3.871   5.355   1.267  0.0458 -1.4284  0.1014
 7635TIP3   OH244319   2.357   3.432   5.331  0.4050  0.0495  0.1619
 7635TIP3    H144320   2.280   3.479   5.298 -0.0846 -1.3337 -0.7359
 7635TIP3    H244321   2.334   3.409   5.421  0.3256  0.8120  0.3443
 7636TIP3   OH244322   4.321   0.286   0.346 -0.2674  0.0983 -0.2915
 7636TIP3    H144323   4.369   0.270   0.265 -1.4285  2.2039 -1.4891
 7636TIP3    H244324   4.229   0.287   0.320 -0.7224  0.1517  1.2025
 7637TIP3   OH244325   3.022   1.851  13.545  0.7519  0.5928 -0.2552
 7637TIP3    H144326   3.104   1.898  13.530  0.7326  0.3568 -1.1608
 7637TIP3    H244327   3.047   1.774  13.597  0.9503  1.0082  0.2735
 7638TIP3   OH244328   3.329   6.366  15.139 -0.1443 -0.2559 -0.7878
 7638TIP3    H144329   3.252   6.346  15.086 -0.9295  2.1065 -0.6655
 7638TIP3    H244330   3.325   6.461  15.153  1.1856 -0.4733  1.7135
 7639TIP3   OH244331   4.650   4.990   4.875  0.6024 -0.3974 -0.3324
 7639TIP3    H144332   4.681   5.029   4.957  0.9900  0.6221 -0.9474
 7639TIP3    H244333   4.600   5.060   4.833 -1.1836 -1.4774 -0.1388
 7640TIP3   OH244334   5.027   2.431   3.372  0.1103 -0.0023 -0.1221
 7640TIP3    H144335   5.103   2.468   3.328 -0.2403  0.5969 -0.2364
 7640TIP3    H244336   5.012   2.489   3.447 -0.2817 -0.0586 -0.1529
 7641TIP3   OH244337   4.354   6.037   5.877 -0.4986  0.0675  0.0971
 7641TIP3    H144338   4.326   5.958   5.831  1.9530 -0.6548 -0.2719
 7641TIP3    H244339   4.380   6.006   5.963 -1.3829  0.8266  0.6607
 7642TIP3   OH244340   4.772   0.921  16.962 -0.1942  0.5591  0.4568
 7642TIP3    H144341   4.859   0.922  17.003 -0.7268  1.1096  1.6322
 7642TIP3    H244342   4.738   0.833  16.979 -0.0924  0.5261  0.4912
 7643TIP3   OH244343   4.341   2.010   3.737  0.6959  0.2572  0.3434
 7643TIP3    H144344   4.268   2.020   3.675  0.7994  0.5507  0.2709
 7643TIP3    H244345   4.303   2.031   3.822  0.3486 -0.9180  0.4990
 7644TIP3   OH244346   2.745   6.645  11.875 -0.4334 -0.7288 -0.4793
 7644TIP3    H144347   2.694   6.698  11.814 -0.0430  1.1128  0.6930
 7644TIP3    H244348   2.734   6.689  11.959  2.4480 -0.6339 -0.0322
 7645TIP3   OH244349   4.607   2.786   3.872  0.0389  0.3152  0.3177
 7645TIP3    H144350   4.676   2.720   3.865 -1.2117 -0.9463 -0.6697
 7645TIP3    H244351   4.615   2.838   3.792 -0.8526 -0.5821 -0.3835
 7646TIP3   OH244352   3.077   5.446  17.278 -0.6191 -0.0315  0.3519
 7646TIP3    H144353   3.128   5.367  17.259  0.1773  0.4531  0.4705
 7646TIP3    H244354   2.991   5.412  17.306 -0.1059 -0.8811  0.9550
 7647TIP3   OH244355   5.284   6.546  14.141 -0.2491  0.0304  0.3283
 7647TIP3    H144356   5.196   6.558  14.176 -0.3531  2.0736 -0.4479
 7647TIP3    H244357   5.273   6.486  14.067 -1.4528  1.9649 -1.1621
 7648TIP3   OH244358   6.048   6.030  11.508 -0.3122 -0.0563 -0.3641
 7648TIP3    H144359   6.129   6.070  11.476  0.6363 -0.3953  1.4627
 7648TIP3    H244360   6.030   6.075  11.590 -0.6527 -1.5722  0.4246
 7649TIP3   OH244361   3.092   1.421  15.442  0.8295 -0.4262  0.3837
 7649TIP3    H144362   3.079   1.430  15.536  1.8727 -0.4881  0.5505
 7649TIP3    H244363   3.012   1.378  15.411 -0.6276  1.7934  0.8319
 7650TIP3   OH244364   0.723   2.002   3.092  0.7308 -0.1133  0.6405
 7650TIP3    H144365   0.792   2.037   3.148 -1.3523  0.7424  2.8172
 7650TIP3    H244366   0.669   1.948   3.150 -0.3036 -0.9863 -1.0337
 7651TIP3   OH244367   2.885   6.149   1.045  0.4201 -0.1183 -0.3232
 7651TIP3    H144368   2.979   6.146   1.026  0.1680 -1.6501 -1.5361
 7651TIP3    H244369   2.847   6.194   0.970  0.0853 -0.2775 -0.2495
 7652TIP3   OH244370   4.080   5.056  14.688  0.2660  0.0086 -0.1194
 7652TIP3    H144371   4.118   5.131  14.641 -3.6838  2.0287 -0.5544
 7652TIP3    H244372   4.057   4.993  14.620 -0.7099  0.6107 -0.3742
 7653TIP3   OH244373   6.436   3.570   3.266  0.6117 -0.5524  0.3135
 7653TIP3    H144374   6.442   3.641   3.330 -0.5077 -0.4767  0.3482
 7653TIP3    H244375   6.508   3.587   3.205 -0.6868  1.6557 -0.7078
 7654TIP3   OH244376   4.222   6.272   3.611 -0.0391  0.5184 -0.7566
 7654TIP3    H144377   4.215   6.367   3.603  0.2160  0.5117 -1.1118
 7654TIP3    H244378   4.132   6.240   3.607 -0.0839  0.7029 -1.2099
 7655TIP3   OH244379   4.342   2.606   2.208 -0.5230 -0.2790 -0.2010
 7655TIP3    H144380   4.434   2.631   2.212 -0.4442 -0.6617  0.5102
 7655TIP3    H244381   4.343   2.511   2.218 -0.9245 -0.4170 -1.3102
 7656TIP3   OH244382   3.281   2.450   4.692  0.1332  0.5011  0.3706
 7656TIP3    H144383   3.280   2.520   4.756  1.8109  0.3507  0.6183
 7656TIP3    H244384   3.271   2.370   4.744  2.9933  0.2629  0.7300
 7657TIP3   OH244385   3.741   2.295  16.974  0.2858  0.0880  0.8471
 7657TIP3    H144386   3.646   2.295  16.971  0.2608  0.1527  1.4701
 7657TIP3    H244387   3.765   2.387  16.985  0.6041  0.6815 -3.2782
 7658TIP3   OH244388   6.261   0.870   2.668  0.2095 -0.1387 -0.0288
 7658TIP3    H144389   6.275   0.815   2.590  0.3210 -0.2981  0.1035
 7658TIP3    H244390   6.170   0.856   2.691 -0.2928  1.1540 -1.0897
 7659TIP3   OH244391   6.131   2.134   6.235 -0.1355 -0.4343 -0.0115
 7659TIP3    H144392   6.186   2.106   6.308  1.1686  1.0772 -0.3737
 7659TIP3    H244393   6.042   2.112   6.263  0.4755 -1.3991  1.3023
 7660TIP3   OH244394   1.461   0.178   6.559 -0.3165  0.2001  0.3378
 7660TIP3    H144395   1.406   0.100   6.554 -1.3544  0.8693  1.1071
 7660TIP3    H244396   1.409   0.243   6.606  0.2213  1.6204 -0.8989
 7661TIP3   OH244397   3.578   4.818  13.411  0.1128 -0.3508  0.2437
 7661TIP3    H144398   3.613   4.743  13.363 -0.4345  0.2079 -1.0560
 7661TIP3    H244399   3.631   4.821  13.491 -0.6063 -2.8279  0.9343
 7662TIP3   OH244400   0.070   0.045   5.926  0.2881  0.5339  0.0801
 7662TIP3    H144401   0.131  -0.014   5.881  0.8419  0.1728  1.2721
 7662TIP3    H244402   0.045   0.109   5.859  0.5447 -0.3826 -0.9321
 7663TIP3   OH244403   6.060   4.649  16.207 -0.8253  0.3370 -0.0863
 7663TIP3    H144404   6.040   4.645  16.300 -1.7245 -0.1668 -0.2847
 7663TIP3    H244405   6.077   4.741  16.189  0.6263  0.2688  0.8169
 7664TIP3   OH244406   5.904   0.916  10.995  0.5312  0.4048 -0.2952
 7664TIP3    H144407   5.886   0.842  11.053  1.7920 -0.9093 -1.5101
 7664TIP3    H244408   5.846   0.903  10.920  1.4462  0.0471 -0.9719
 7665TIP3   OH244409   2.841   2.444  11.469 -0.1225 -0.8567  0.5585
 7665TIP3    H144410   2.901   2.440  11.394 -1.6418 -3.3336 -0.6424
 7665TIP3    H244411   2.802   2.532  11.463  3.1665  0.8363  1.3618
 7666TIP3   OH244412   5.056   3.329   0.696  0.1191  0.0497 -0.1983
 7666TIP3    H144413   5.041   3.386   0.621  1.2184 -0.3493 -0.7416
 7666TIP3    H244414   5.143   3.291   0.681  0.0878 -0.5328  0.9509
 7667TIP3   OH244415   1.337   1.828  10.523  0.3641 -0.6809 -0.4914
 7667TIP3    H144416   1.281   1.770  10.473 -1.4979  1.1759 -0.6770
 7667TIP3    H244417   1.277   1.883  10.573  2.0431 -2.0758  3.5592
 7668TIP3   OH244418   1.294   2.666  16.300 -0.4151  0.2333 -0.0888
 7668TIP3    H144419   1.349   2.743  16.312 -0.2074  0.3002 -1.3312
 7668TIP3    H244420   1.335   2.618  16.228  0.7254 -2.2117  1.9975
 7669TIP3   OH244421   2.823   0.657  13.492  0.3908  0.4514 -0.1726
 7669TIP3    H144422   2.906   0.680  13.534 -0.0764  1.6447  0.1295
 7669TIP3    H244423   2.816   0.717  13.417  0.0466 -0.0044 -0.5162
 7670TIP3   OH244424   6.214   2.601  16.649  0.2882 -0.0756  0.5747
 7670TIP3    H144425   6.182   2.618  16.737 -1.0402  3.1955 -0.4071
 7670TIP3    H244426   6.135   2.585  16.597  1.0463 -1.9007 -0.0931
 7671TIP3   OH244427   3.785   2.319  12.000 -0.2748 -0.4603 -0.6108
 7671TIP3    H144428   3.770   2.350  12.089  1.7668 -0.3388 -0.2634
 7671TIP3    H244429   3.805   2.399  11.951  0.7778 -0.7633 -0.6791
 7672TIP3   OH244430   5.388   1.444   0.315  0.3394 -0.2638  0.0346
 7672TIP3    H144431   5.480   1.419   0.307  0.3022 -0.1330 -0.9198
 7672TIP3    H244432   5.390   1.532   0.351  0.5670 -0.4764  0.5522
 7673TIP3   OH244433   2.782   3.503  13.119  0.2141 -0.0275 -0.0836
 7673TIP3    H144434   2.739   3.491  13.203 -1.2409  0.2486 -0.7487
 7673TIP3    H244435   2.715   3.542  13.063  0.4036 -2.2370 -2.0149
 7674TIP3   OH244436   4.600   2.325  16.573 -0.0448 -0.1686  0.2513
 7674TIP3    H144437   4.535   2.278  16.625  0.3176 -0.0073  0.8651
 7674TIP3    H244438   4.647   2.257  16.524  1.5571 -0.6737  2.3269
 7675TIP3   OH244439   1.391   3.707   4.998  0.1748 -0.0691 -0.7902
 7675TIP3    H144440   1.346   3.702   4.913 -1.7654  1.4412  0.0807
 7675TIP3    H244441   1.438   3.790   4.995 -2.3081  1.5165  0.6205
 7676TIP3   OH244442   2.254   2.061   4.775 -0.0725 -0.5156 -0.0612
 7676TIP3    H144443   2.324   2.068   4.710  0.4891  2.5967  0.7353
 7676TIP3    H244444   2.299   2.039   4.857 -0.2206 -0.2013  0.1071
 7677TIP3   OH244445   5.738   0.590   3.226  0.2283  0.1015 -0.3723
 7677TIP3    H144446   5.690   0.533   3.286  1.9750 -0.9830  0.0475
 7677TIP3    H244447   5.687   0.672   3.225 -0.0105  0.0769  2.3798
 7678TIP3   OH244448   5.368   4.615  15.107 -0.1888 -0.3210  0.3208
 7678TIP3    H144449   5.452   4.570  15.109 -1.6842 -3.4491  3.1254
 7678TIP3    H244450   5.340   4.612  15.016  1.2538 -2.2523 -0.1075
 7679TIP3   OH244451   5.781   1.376   0.908  0.4859 -0.4007  0.0573
 7679TIP3    H144452   5.705   1.346   0.858 -0.2023  1.1212  0.1384
 7679TIP3    H244453   5.847   1.394   0.841 -0.2215  1.0253 -0.2969
 7680TIP3   OH244454   0.934   2.315   0.915 -0.2313 -0.1475  0.1577
 7680TIP3    H144455   0.848   2.319   0.874  0.1260  0.1333 -0.5688
 7680TIP3    H244456   0.989   2.372   0.862  0.6541 -1.0960  0.0354
 7681TIP3   OH244457   1.560   1.412  13.759 -0.0537 -0.4527 -0.0935
 7681TIP3    H144458   1.479   1.361  13.761  0.5384 -1.5230 -1.6956
 7681TIP3    H244459   1.628   1.350  13.785  0.2813  0.4390  1.2404
 7682TIP3   OH244460   5.704   1.878  13.787  0.6347  0.4616  0.0367
 7682TIP3    H144461   5.774   1.828  13.828  0.1290 -0.0118  0.3323
 7682TIP3    H244462   5.681   1.828  13.709  0.9078  0.8399 -0.2966
 7683TIP3   OH244463   3.968   4.050  15.634  0.3430 -0.1316 -0.7744
 7683TIP3    H144464   3.997   3.959  15.626  1.4533  0.1157  0.2305
 7683TIP3    H244465   4.038   4.101  15.591 -0.9109  0.1860 -2.5347
 7684TIP3   OH244466   0.882   3.299   5.545  0.0619 -0.4437  0.4494
 7684TIP3    H144467   0.903   3.223   5.490  0.0556 -0.6563  0.7346
 7684TIP3    H244468   0.787   3.308   5.539  0.2968  1.3977 -1.9915
 7685TIP3   OH244469   3.987   0.001  14.515 -0.6519 -0.5552 -0.1214
 7685TIP3    H144470   3.996   0.094  14.536  0.4390 -0.4813 -0.8198
 7685TIP3    H244471   3.910  -0.027  14.563 -0.8602  0.6579  0.2933
 7686TIP3   OH244472   5.936   4.429   6.718  0.5589 -0.2455 -0.0747
 7686TIP3    H144473   5.985   4.511   6.725 -0.0990  0.1998 -0.4820
 7686TIP3    H244474   5.967   4.376   6.791 -1.0241  1.4711  1.9700
 7687TIP3   OH244475   1.018   4.346  10.794  0.1036  0.5560 -0.0406
 7687TIP3    H144476   1.060   4.428  10.768 -0.6474  1.1714  0.6140
 7687TIP3    H244477   0.925   4.368  10.800 -0.1052 -0.3525  0.1306
 7688TIP3   OH244478   1.970   0.104   1.913  0.4785 -0.1196 -0.6227
 7688TIP3    H144479   1.934   0.183   1.873 -1.5690 -1.1791 -1.0288
 7688TIP3    H244480   1.964   0.119   2.007 -1.6042 -0.4642 -0.6705
 7689TIP3   OH244481   3.457   3.044  12.132 -0.4905 -0.3989 -0.0098
 7689TIP3    H144482   3.418   2.988  12.199 -0.3960  0.8717  1.1437
 7689TIP3    H244483   3.544   3.065  12.165 -1.0914  1.7015  0.3925
 7690TIP3   OH244484   0.057   2.452  16.300  0.2993  0.1608  0.3992
 7690TIP3    H144485   0.136   2.411  16.333 -0.4806 -0.9677  0.9334
 7690TIP3    H244486   0.023   2.390  16.234 -0.1882  0.5740  0.2503
 7691TIP3   OH244487   2.657   5.561  15.872  0.1586  0.5005  0.6112
 7691TIP3    H144488   2.745   5.555  15.835 -0.4398 -1.3620 -0.6531
 7691TIP3    H244489   2.668   5.537  15.963  0.7230 -1.7289  0.0106
 7692TIP3   OH244490   2.267   1.485  15.452 -0.3450 -0.7950 -0.1480
 7692TIP3    H144491   2.191   1.526  15.495 -0.1439 -1.7766  1.1774
 7692TIP3    H244492   2.236   1.467  15.363 -1.1081  0.3453 -0.1440
 7693TIP3   OH244493   0.602   5.474   1.180  0.5538  0.4129 -0.0083
 7693TIP3    H144494   0.567   5.440   1.263  1.7166  1.3947  0.9307
 7693TIP3    H244495   0.592   5.569   1.188 -1.4900  0.4407 -2.0327
 7694TIP3   OH244496   3.464   4.509   5.322  0.0619 -0.2292  0.4170
 7694TIP3    H144497   3.441   4.420   5.297  0.7477 -0.6207  1.1387
 7694TIP3    H244498   3.526   4.538   5.255  2.6831 -1.6351  2.0633
 7695TIP3   OH244499   1.290   0.263  14.681  0.1645 -0.2757 -0.3745
 7695TIP3    H144500   1.306   0.224  14.767 -1.7056  0.5575  0.4018
 7695TIP3    H244501   1.365   0.235  14.628  1.8640 -0.0482  1.7606
 7696TIP3   OH244502   1.748   0.947  15.438 -0.4381  0.2941 -0.1283
 7696TIP3    H144503   1.661   0.909  15.453 -1.0943  1.7092 -0.1954
 7696TIP3    H244504   1.730   1.033  15.399  0.9059  1.7130  2.1619
 7697TIP3   OH244505   5.503   3.019   1.300  0.3470 -0.1752 -0.1078
 7697TIP3    H144506   5.524   3.103   1.259  0.4275 -1.0377 -1.9489
 7697TIP3    H244507   5.589   2.978   1.313  0.3328  0.1822  1.1630
 7698TIP3   OH244508   6.720   1.114   4.554 -0.3372  0.2943 -0.0668
 7698TIP3    H144509   6.722   1.199   4.512  0.7157  0.4348  0.2187
 7698TIP3    H244510   6.801   1.071   4.525 -0.7500 -0.5296 -0.0462
 7699TIP3   OH244511   0.712   4.211  16.437 -0.1895 -0.2344  0.3432
 7699TIP3    H144512   0.782   4.200  16.502 -0.7450 -3.2245  0.5449
 7699TIP3    H244513   0.755   4.198  16.353 -0.3108 -1.2223  0.4215
 7700TIP3   OH244514   4.316   5.366  15.421  0.2057  1.0031  0.2539
 7700TIP3    H144515   4.315   5.329  15.333  0.8324  0.4577  0.4741
 7700TIP3    H244516   4.384   5.433  15.417  1.0309  0.2010  0.6319
 7701TIP3   OH244517   5.161   3.662   1.939  0.6672  0.5444 -0.7033
 7701TIP3    H144518   5.096   3.722   1.903 -0.2563  1.3980  2.1430
 7701TIP3    H244519   5.143   3.578   1.895 -1.7085  1.0067 -0.7419
 7702TIP3   OH244520   0.011   4.105   4.930  0.3467  0.0557  0.0862
 7702TIP3    H144521   0.085   4.148   4.888 -1.4076  1.6219 -1.5753
 7702TIP3    H244522   0.008   4.018   4.890  0.1176  0.7017 -1.3447
 7703TIP3   OH244523   6.213   5.649   4.195  0.0716  0.9351  0.2593
 7703TIP3    H144524   6.143   5.584   4.196 -0.5659  1.5721  2.0501
 7703TIP3    H244525   6.292   5.600   4.217 -0.3081  0.6535  1.0483
 7704TIP3   OH244526   0.963   2.030   2.830  0.2084 -0.1932 -0.5241
 7704TIP3    H144527   1.054   2.058   2.841  0.0705  0.0094  0.1371
 7704TIP3    H244528   0.937   1.998   2.916 -0.4992  0.2201 -0.5713
 7705TIP3   OH244529   1.168   3.355   0.187 -0.1678  0.2412 -0.0109
 7705TIP3    H144530   1.169   3.415   0.112  0.8412 -0.1321 -0.3219
 7705TIP3    H244531   1.259   3.327   0.195 -0.1485  0.7416  1.7455
 7706TIP3   OH244532   5.547   3.288   1.249  0.0349  0.7301 -0.4528
 7706TIP3    H144533   5.485   3.317   1.316  1.1488  0.9127  0.5110
 7706TIP3    H244534   5.538   3.352   1.178  0.0665  1.5135  0.2383
 7707TIP3   OH244535   4.519   0.525   1.169  0.0010  0.3984  0.8541
 7707TIP3    H144536   4.561   0.517   1.083 -1.2623 -1.5935  0.3513
 7707TIP3    H244537   4.536   0.615   1.196  1.2989  0.7713 -1.0172
 7708TIP3   OH244538   2.305   2.872  12.727 -0.9015 -0.0136 -0.2061
 7708TIP3    H144539   2.374   2.932  12.756  0.2370 -1.8335  1.0336
 7708TIP3    H244540   2.309   2.876  12.631  0.6179  0.2761 -0.1556
 7709TIP3   OH244541   2.745   5.330  12.505  0.1541 -0.1030  0.5395
 7709TIP3    H144542   2.651   5.348  12.513 -0.3772 -1.2376 -2.1754
 7709TIP3    H244543   2.754   5.237  12.525  0.6051 -0.1334  0.2147
 7710TIP3   OH244544   1.113   2.566  17.053 -0.1444 -0.0502  0.1966
 7710TIP3    H144545   1.100   2.486  17.106  2.4869 -2.2413 -2.1639
 7710TIP3    H244546   1.100   2.537  16.963 -1.7834  2.9319 -0.6496
 7711TIP3   OH244547   2.918   0.468   2.927  0.1257 -0.0066  0.3446
 7711TIP3    H144548   2.909   0.563   2.919  0.3420  0.1223  1.4355
 7711TIP3    H244549   2.866   0.446   3.005 -0.8230 -0.9394 -0.5144
 7712TIP3   OH244550   6.276   5.707   6.687 -0.1814  0.0229 -0.1709
 7712TIP3    H144551   6.245   5.617   6.682 -1.4446  0.3787  0.6946
 7712TIP3    H244552   6.281   5.736   6.596  0.3292 -0.9421 -0.4558
 7713TIP3   OH244553   2.752   5.760  14.364  0.3597 -0.3696 -0.2610
 7713TIP3    H144554   2.838   5.745  14.325 -0.5313  1.1716 -3.0744
 7713TIP3    H244555   2.725   5.674  14.396  1.4894 -1.6432 -2.5107
 7714TIP3   OH244556   6.352   3.884   0.951 -0.2692  0.2963  0.4084
 7714TIP3    H144557   6.442   3.897   0.983  0.1935 -0.2442 -0.6251
 7714TIP3    H244558   6.306   3.845   1.024  0.1354  1.2747  1.2098
 7715TIP3   OH244559   0.161   0.946  11.936  0.1021 -0.2099  0.0292
 7715TIP3    H144560   0.102   0.923  11.864  0.6870 -1.2517 -0.1416
 7715TIP3    H244561   0.164   1.042  11.936 -1.8263 -0.1105  0.2539
 7716TIP3   OH244562   6.125   1.110   5.602 -0.5069 -0.0611  0.3657
 7716TIP3    H144563   6.034   1.138   5.605 -1.3274 -2.3521 -0.6576
 7716TIP3    H244564   6.144   1.081   5.691 -0.8880  0.1491  0.5163
 7717TIP3   OH244565   2.497   0.961  15.538  0.1172 -0.2171  0.6440
 7717TIP3    H144566   2.420   1.016  15.547 -0.0337 -0.3289  0.0952
 7717TIP3    H244567   2.463   0.872  15.529  0.3059 -0.2728  0.4495
 7718TIP3   OH244568   4.509   1.380   6.652  0.4897 -0.2191  0.3280
 7718TIP3    H144569   4.437   1.429   6.613  0.6672 -1.8314 -2.2693
 7718TIP3    H244570   4.488   1.288   6.634  3.2782 -0.7281 -0.7887
 7719TIP3   OH244571   1.094   6.108   5.038 -0.1738  0.0282  0.0552
 7719TIP3    H144572   1.090   6.056   4.959 -1.5298  1.0192 -0.5793
 7719TIP3    H244573   1.094   6.199   5.007 -2.5673  0.4875  1.1468
 7720TIP3   OH244574   3.341   6.622   0.062  0.0819 -0.1205  0.9130
 7720TIP3    H144575   3.261   6.673   0.071  0.4274  0.4367  0.8653
 7720TIP3    H244576   3.409   6.687   0.042  0.0534 -0.8335 -2.0080
 7721TIP3   OH244577   5.165   3.990   0.392 -0.3399  0.1394  0.1364
 7721TIP3    H144578   5.133   3.928   0.457  0.8058  1.4673  2.0754
 7721TIP3    H244579   5.087   4.042   0.368 -0.6829 -0.0661  0.7906
 7722TIP3   OH244580   6.182   6.626   6.350  0.1853  0.5041 -0.0830
 7722TIP3    H144581   6.210   6.571   6.423  1.5386  0.4257 -0.6431
 7722TIP3    H244582   6.128   6.694   6.391  2.1225  1.3439  1.2343
 7723TIP3   OH244583   3.255   4.063  16.761 -0.3647 -0.3068 -0.1134
 7723TIP3    H144584   3.238   4.144  16.810 -0.3608 -0.9535  0.9890
 7723TIP3    H244585   3.346   4.041  16.782  0.2919  0.4403 -1.9848
 7724TIP3   OH244586   4.974   0.524   0.758 -0.0997 -0.6061  0.0078
 7724TIP3    H144587   4.994   0.611   0.722  0.2314 -0.2450  1.0264
 7724TIP3    H244588   5.040   0.466   0.719 -0.3872 -0.4200 -0.7573
 7725TIP3   OH244589   3.166   0.497  12.050  0.1547 -0.0032  0.1899
 7725TIP3    H144590   3.252   0.538  12.059  0.0015  0.1823  0.8234
 7725TIP3    H244591   3.105   0.570  12.043  0.0843 -0.1357 -0.6832
 7726TIP3   OH244592   4.832   4.352  10.911  0.3083  0.5463  0.1584
 7726TIP3    H144593   4.895   4.389  10.974 -0.0345  1.1572  0.1469
 7726TIP3    H244594   4.747   4.362  10.954  0.2621 -0.7399  0.3881
 7727TIP3   OH244595   5.104   0.052  16.073  0.0191 -0.5533  0.3160
 7727TIP3    H144596   5.125   0.118  16.139 -0.9632 -1.9692  2.1495
 7727TIP3    H244597   5.017   0.076  16.041  0.3985  0.0027 -0.3229
 7728TIP3   OH244598   0.143   2.659  16.471  0.4250  0.2713 -0.5794
 7728TIP3    H144599   0.112   2.598  16.404 -1.0332  0.3814 -0.0254
 7728TIP3    H244600   0.171   2.603  16.543  0.1283  0.2185 -0.5046
 7729TIP3   OH244601   2.015   6.692  14.029 -0.0858 -0.0550 -0.3357
 7729TIP3    H144602   2.102   6.674  14.064 -0.1954 -1.5008 -0.7158
 7729TIP3    H244603   1.959   6.699  14.106  0.2733  0.3264 -0.1078
 7730TIP3   OH244604   0.769   5.025  13.312 -0.4511 -0.0314 -0.0414
 7730TIP3    H144605   0.761   4.936  13.277  2.1940 -0.7045  0.8274
 7730TIP3    H244606   0.801   5.076  13.237  3.6179 -1.1340  0.6857
 7731TIP3   OH244607   3.742   3.377  13.446 -0.2487 -0.0071 -0.3095
 7731TIP3    H144608   3.789   3.335  13.518 -0.0072 -0.3866 -0.6837
 7731TIP3    H244609   3.653   3.390  13.479  0.2367  1.1716  0.5829
 7732TIP3   OH244610   1.166   6.462   0.924 -0.2356  0.6274 -0.3357
 7732TIP3    H144611   1.213   6.545   0.915 -0.8170  1.3256  2.1982
 7732TIP3    H244612   1.232   6.395   0.903  0.7096  1.6902 -0.8490
 7733TIP3   OH244613   2.201   2.550  14.147 -0.1715 -0.3257  0.1057
 7733TIP3    H144614   2.263   2.488  14.184  0.4608  0.8342  1.0363
 7733TIP3    H244615   2.254   2.625  14.121 -1.1441  0.6106  0.7269
 7734TIP3   OH244616   0.743   3.740   3.807 -0.1401  0.4328 -0.0221
 7734TIP3    H144617   0.714   3.817   3.857 -0.7794  0.5502 -0.5638
 7734TIP3    H244618   0.793   3.776   3.734  1.3484  0.2321  0.8702
 7735TIP3   OH244619   4.734   2.178   6.182 -0.2609  0.1928  0.3001
 7735TIP3    H144620   4.773   2.250   6.231  5.0071 -1.0187 -1.4907
 7735TIP3    H244621   4.723   2.108   6.247 -1.0969  1.1119  1.1745
 7736TIP3   OH244622   5.601   3.868   4.072 -0.5025 -0.2328  0.0784
 7736TIP3    H144623   5.529   3.881   4.011 -0.9565 -0.9745  0.4387
 7736TIP3    H244624   5.653   3.796   4.034  0.7575  1.0871 -0.8019
 7737TIP3   OH244625   4.557   2.493  13.924 -0.6508 -0.0769  0.1443
 7737TIP3    H144626   4.553   2.551  13.848 -0.8511 -0.4593 -0.1379
 7737TIP3    H244627   4.516   2.544  13.994  1.3258  1.0742  0.5383
 7738TIP3   OH244628   5.190   0.530  13.632  0.8242  0.4144  0.5055
 7738TIP3    H144629   5.226   0.459  13.578 -2.9971 -1.5461  0.1634
 7738TIP3    H244630   5.190   0.606  13.574  1.2016 -0.3936 -0.6025
 7739TIP3   OH244631   6.076   6.214  12.943  0.4552 -0.1390 -0.4975
 7739TIP3    H144632   6.067   6.186  13.034 -2.3608  1.0802 -0.2907
 7739TIP3    H244633   6.028   6.149  12.893 -0.6327  0.7846 -0.7093
 7740TIP3   OH244634   3.062   1.937   2.866  0.1328 -0.4292 -0.0900
 7740TIP3    H144635   3.015   1.925   2.783  0.9561  0.1964 -0.6638
 7740TIP3    H244636   3.047   2.029   2.888 -0.8779 -0.8207  0.9715
 7741TIP3   OH244637   6.651   3.517   4.708  0.1725  0.7034  0.4165
 7741TIP3    H144638   6.645   3.432   4.753 -2.3523  0.2273 -0.6653
 7741TIP3    H244639   6.648   3.581   4.779  1.4079 -0.0671  1.2062
 7742TIP3   OH244640   0.054   2.051  15.539 -0.2157 -0.1187  0.1456
 7742TIP3    H144641   0.101   2.125  15.501 -0.6286  0.0250 -0.1034
 7742TIP3    H244642   0.009   2.012  15.464  0.4467 -0.9646  0.1796
 7743TIP3   OH244643   5.630   5.169  16.859  0.3654 -0.0804  0.1726
 7743TIP3    H144644   5.606   5.209  16.775 -0.8767  0.1154  0.5905
 7743TIP3    H244645   5.554   5.186  16.916  1.4147  0.3136  1.5128
 7744TIP3   OH244646   6.632   4.834   1.142 -0.4101 -0.0921 -0.2214
 7744TIP3    H144647   6.685   4.764   1.105 -0.4127 -0.5633  0.6259
 7744TIP3    H244648   6.623   4.898   1.072 -0.1785 -0.8150 -0.9266
 7745TIP3   OH244649   4.892   5.063  16.680  0.4274  0.5325 -0.6383
 7745TIP3    H144650   4.816   5.110  16.648 -0.9507 -1.0055  0.1977
 7745TIP3    H244651   4.896   4.984  16.626 -2.0287 -2.1976  2.6358
 7746TIP3   OH244652   0.388   5.707   4.887 -0.3759  0.0983  0.3759
 7746TIP3    H144653   0.311   5.727   4.835 -1.9611 -2.3916  1.5488
 7746TIP3    H244654   0.425   5.629   4.846 -1.2637 -1.5075  2.4289
 7747TIP3   OH244655   5.418   3.511   4.412 -0.3038  0.2565 -0.0302
 7747TIP3    H144656   5.464   3.594   4.419  0.8634 -0.4617  1.4431
 7747TIP3    H244657   5.326   3.534   4.411 -0.0025  1.7372 -2.8069
 7748TIP3   OH244658   2.102   6.215   4.480 -0.1517  0.1278  0.5838
 7748TIP3    H144659   2.162   6.268   4.428 -0.1342  0.6249  1.0985
 7748TIP3    H244660   2.158   6.154   4.527  0.0071  0.8823  1.4024
 7749TIP3   OH244661   4.998   0.597   3.717 -0.3601  0.3300 -0.0771
 7749TIP3    H144662   4.934   0.637   3.658  2.1005  2.4000 -1.5190
 7749TIP3    H244663   4.976   0.632   3.803  0.6550  3.7303 -1.0309
 7750TIP3   OH244664   3.333   4.124  13.918 -0.0777  0.0841 -0.1240
 7750TIP3    H144665   3.368   4.065  13.851 -1.0183 -1.7316  0.9026
 7750TIP3    H244666   3.390   4.201  13.914  3.3554 -2.2113  0.6974
 7751TIP3   OH244667   6.516   1.441  13.885 -0.4834  0.6240 -0.0638
 7751TIP3    H144668   6.605   1.471  13.902  0.3912 -1.6904 -0.1108
 7751TIP3    H244669   6.516   1.417  13.792 -1.6999  2.1522 -0.5019
 7752TIP3   OH244670   4.163   3.221   5.106 -0.0866 -0.3447 -0.1599
 7752TIP3    H144671   4.078   3.177   5.096 -0.2389 -0.8044  2.6013
 7752TIP3    H244672   4.226   3.161   5.066 -0.9477 -0.2930 -1.6617
 7753TIP3   OH244673   3.049   5.927   1.526  0.4659  0.1354 -0.6997
 7753TIP3    H144674   2.986   5.949   1.458  0.9048 -0.9250 -1.4864
 7753TIP3    H244675   3.114   5.872   1.481  0.4870 -1.0129  0.6799
 7754TIP3   OH244676   4.999   2.899   5.466  0.3378  0.0303 -0.0858
 7754TIP3    H144677   4.948   2.868   5.541  0.8276 -1.0014 -0.1639
 7754TIP3    H244678   5.089   2.904   5.498  0.3880  0.6424 -0.3045
 7755TIP3   OH244679   5.973   6.158   3.089 -0.1487 -0.2068  0.2972
 7755TIP3    H144680   5.938   6.220   3.152 -1.9739 -0.3119 -0.5592
 7755TIP3    H244681   5.919   6.169   3.011  2.2352  0.1380 -1.4082
 7756TIP3   OH244682   4.349   3.805   4.648 -0.2814 -0.0979 -0.0821
 7756TIP3    H144683   4.333   3.754   4.569  1.2733 -1.8371  0.6377
 7756TIP3    H244684   4.277   3.781   4.707  1.1809 -2.7280  0.7759
 7757TIP3   OH244685   6.465   3.904  12.698 -0.2566 -0.3002  0.3371
 7757TIP3    H144686   6.418   3.831  12.657 -1.8805  0.7340  0.2611
 7757TIP3    H244687   6.449   3.978  12.640  1.0571  0.2168  0.6078
 7758TIP3   OH244688   0.872   4.824   0.410 -0.4738  0.3112  0.2952
 7758TIP3    H144689   0.875   4.777   0.327 -2.4337  0.9679 -0.1996
 7758TIP3    H244690   0.950   4.795   0.457  1.0657  0.4144 -2.0191
 7759TIP3   OH244691   4.972   2.136   2.277 -0.2743 -0.0491  0.1240
 7759TIP3    H144692   5.058   2.129   2.236  0.0726  0.8618  0.6756
 7759TIP3    H244693   4.939   2.221   2.249 -1.0828 -0.4679 -0.2322
 7760TIP3   OH244694   0.129   1.031  14.416 -0.1393 -0.2104  0.1965
 7760TIP3    H144695   0.166   0.958  14.466 -1.5166  0.1621  1.8621
 7760TIP3    H244696   0.077   0.989  14.348  1.9723 -0.7288 -1.1776
 7761TIP3   OH244697   5.311   6.304  15.109 -0.2341 -0.4051  0.1267
 7761TIP3    H144698   5.354   6.250  15.042 -0.6950 -0.0627 -0.4535
 7761TIP3    H244699   5.243   6.351  15.062 -1.7917 -1.5266  1.1821
 7762TIP3   OH244700   5.496   0.096   1.685 -0.5758  0.2481  0.5317
 7762TIP3    H144701   5.407   0.078   1.655 -0.3640 -0.1053  0.0986
 7762TIP3    H244702   5.494   0.076   1.778 -0.7118 -0.7063  0.3424
 7763TIP3   OH244703   4.077   4.313  17.191  0.2280  0.0537 -0.1994
 7763TIP3    H144704   4.043   4.268  17.114  0.2034 -0.4639  0.1163
 7763TIP3    H244705   4.032   4.398  17.190 -1.6389 -0.8996  0.6186
 7764TIP3   OH244706   2.503   3.276   1.795  0.3102 -0.4745  0.6730
 7764TIP3    H144707   2.459   3.201   1.836 -1.8618  0.8520  0.9531
 7764TIP3    H244708   2.596   3.253   1.796  0.0101 -1.9912  3.2310
 7765TIP3   OH244709   3.427   2.849   0.414  0.5044  0.7650 -0.4978
 7765TIP3    H144710   3.492   2.917   0.435 -0.6277  1.9493 -0.6861
 7765TIP3    H244711   3.351   2.898   0.382 -1.3506 -0.4066  1.8518
 7766TIP3   OH244712   3.119   2.976   5.802 -0.1914 -0.2817  0.4370
 7766TIP3    H144713   3.183   2.997   5.870  0.9097 -2.9592  0.3280
 7766TIP3    H244714   3.057   2.917   5.844 -0.9847  0.0627 -0.2245
 7767TIP3   OH244715   0.476   6.219  16.771 -0.1845 -0.1255 -0.4101
 7767TIP3    H144716   0.399   6.165  16.791 -0.6414  0.3231 -0.9199
 7767TIP3    H244717   0.510   6.182  16.689 -0.2295  0.0740 -0.5187
 7768TIP3   OH244718   2.870   3.337  12.036  0.8248 -0.2727 -0.1125
 7768TIP3    H144719   2.858   3.260  12.092 -1.5127 -0.1243 -0.3025
 7768TIP3    H244720   2.880   3.409  12.098 -1.4447 -0.1528  0.2236
 7769TIP3   OH244721   0.571   1.860   3.268  0.3757 -0.5846  0.1723
 7769TIP3    H144722   0.592   1.808   3.346  0.5649 -2.5257 -1.1244
 7769TIP3    H244723   0.495   1.817   3.230 -0.1741  0.7872 -0.3417
 7770TIP3   OH244724   4.045   3.514  16.637  0.7090  0.5384  0.3284
 7770TIP3    H144725   4.025   3.420  16.639  1.2028  0.3332 -1.7307
 7770TIP3    H244726   3.978   3.550  16.578  1.5268  1.1894 -0.2091
 7771TIP3   OH244727   2.252   2.867   4.704  0.0161 -0.3934  0.1189
 7771TIP3    H144728   2.256   2.951   4.749  0.4621  0.1022 -0.8233
 7771TIP3    H244729   2.339   2.830   4.714  0.0806 -0.3379 -0.2100
 7772TIP3   OH244730   4.976   2.550  13.882 -0.7493  0.8391 -0.2400
 7772TIP3    H144731   4.922   2.511  13.814  0.2620 -2.2074  0.5750
 7772TIP3    H244732   5.066   2.538  13.852 -0.1795 -2.0678  2.2015
 7773TIP3   OH244733   6.320   3.589   3.713  0.1227  0.2652 -0.0360
 7773TIP3    H144734   6.244   3.532   3.701  0.2496  0.4749 -2.2233
 7773TIP3    H244735   6.304   3.634   3.795 -1.3054 -0.9025  0.3624
 7774TIP3   OH244736   1.634   2.323  13.407 -0.3448 -0.3745  0.2818
 7774TIP3    H144737   1.597   2.277  13.483 -0.3536  2.0706  1.8446
 7774TIP3    H244738   1.569   2.310  13.338 -1.7530 -0.3039  1.5429
 7775TIP3   OH244739   0.228   3.322   3.034 -0.2496  0.2103  0.1899
 7775TIP3    H144740   0.181   3.290   2.957  0.5185 -1.6516  0.4352
 7775TIP3    H244741   0.161   3.330   3.102 -0.8905  1.6444 -0.5756
 7776TIP3   OH244742   0.078   0.912  17.420  0.5947 -0.2091 -0.7297
 7776TIP3    H144743   0.049   0.880  17.335  1.5590 -1.6638 -0.5482
 7776TIP3    H244744   0.155   0.858  17.441  0.8889  0.7020  0.6661
 7777TIP3   OH244745   1.434   3.734  11.583  0.7246  0.1621 -0.1124
 7777TIP3    H144746   1.455   3.668  11.517 -0.0568  0.6651 -0.8917
 7777TIP3    H244747   1.515   3.783  11.596  0.8719  0.0821 -0.7296
 7778TIP3   OH244748   3.398   3.358   3.511 -0.4453  0.0144 -0.3951
 7778TIP3    H144749   3.419   3.265   3.504  1.6383  0.3201  1.0261
 7778TIP3    H244750   3.474   3.403   3.475  0.2210  1.1488  2.1450
 7779TIP3   OH244751   6.278   5.304  17.378  0.0853 -0.1155  0.6198
 7779TIP3    H144752   6.281   5.286  17.284  1.8690 -0.4143  0.6974
 7779TIP3    H244753   6.308   5.223  17.419 -0.6185  0.0344  1.4629
 7780TIP3   OH244754   1.060   0.420  14.351  0.1368  0.5536  0.3589
 7780TIP3    H144755   1.106   0.497  14.320  0.7561  0.5665  1.3038
 7780TIP3    H244756   0.973   0.427  14.311  0.8079  0.7163 -1.1379
 7781TIP3   OH244757   3.694   3.607   4.613 -0.3027 -0.2087 -0.2651
 7781TIP3    H144758   3.771   3.645   4.655  0.0502  1.1660 -2.0436
 7781TIP3    H244759   3.726   3.576   4.528 -1.7492  0.7416 -1.2106
 7782TIP3   OH244760   6.639   5.587  12.397  0.0578  0.5166 -0.0797
 7782TIP3    H144761   6.650   5.530  12.473  2.4043  0.4963 -0.3646
 7782TIP3    H244762   6.636   5.526  12.322 -0.2693  0.6399 -0.1693
 7783TIP3   OH244763   0.071   5.802  13.085  0.2347  0.6191  0.1054
 7783TIP3    H144764   0.166   5.789  13.093  0.2483  1.2084  0.9901
 7783TIP3    H244765   0.035   5.713  13.085  0.7567  0.4023  0.1417
 7784TIP3   OH244766   3.820   6.354   1.282 -0.0804 -1.0777  1.0523
 7784TIP3    H144767   3.877   6.426   1.307  0.2259 -0.4749 -1.1333
 7784TIP3    H244768   3.829   6.290   1.353  2.1063 -0.3292  1.5428
 7785TIP3   OH244769   3.959   5.896   2.354 -0.5485  0.2124  0.0068
 7785TIP3    H144770   3.868   5.921   2.339 -0.6640 -0.2416 -0.0618
 7785TIP3    H244771   3.966   5.808   2.318 -0.1846  0.0869  0.3751
 7786TIP3   OH244772   3.443   1.859  13.703  0.0360  0.3810 -1.3057
 7786TIP3    H144773   3.358   1.892  13.734  0.1589 -0.7373  0.3682
 7786TIP3    H244774   3.453   1.896  13.616 -1.1049  2.4284 -0.6310
 7787TIP3   OH244775   0.131   3.215  14.618  0.0186 -0.0721  0.5493
 7787TIP3    H144776   0.060   3.265  14.659  0.8114  0.5079  1.2513
 7787TIP3    H244777   0.096   3.126  14.611 -0.6839  0.1414  1.1356
 7788TIP3   OH244778   2.053   1.660  13.547  0.6813  0.0091 -0.2611
 7788TIP3    H144779   2.105   1.672  13.626  1.3217  0.7715 -0.7768
 7788TIP3    H244780   1.967   1.634  13.579  0.6671  1.1801  0.7464
 7789TIP3   OH244781   3.865   2.139   2.695  0.2873  0.3223  0.7027
 7789TIP3    H144782   3.788   2.086   2.675  0.0444  0.4112  1.3794
 7789TIP3    H244783   3.929   2.115   2.627 -0.5401  0.7073 -0.2491
 7790TIP3   OH244784   0.024   4.386   2.139  0.0829 -0.2659  0.1452
 7790TIP3    H144785   0.085   4.317   2.115  0.5488 -0.1146  0.8477
 7790TIP3    H244786   0.071   4.467   2.120 -0.6968 -0.1185 -1.2697
 7791TIP3   OH244787   6.395   6.085   4.886 -0.2416  0.4179  0.1952
 7791TIP3    H144788   6.436   6.049   4.965 -1.0592  2.2636  1.5526
 7791TIP3    H244789   6.332   6.019   4.858  1.7980 -1.3588 -0.4484
 7792TIP3   OH244790   1.020   0.245   2.092  0.0915  0.0914 -0.2865
 7792TIP3    H144791   1.107   0.256   2.131  0.1407 -0.5688 -0.1899
 7792TIP3    H244792   1.018   0.305   2.018 -0.4468  2.3504  1.4159
 7793TIP3   OH244793   5.260   5.342   2.254 -0.2621  0.6198 -0.3681
 7793TIP3    H144794   5.346   5.357   2.216  0.1384  0.7513  0.5469
 7793TIP3    H244795   5.250   5.247   2.256  0.8909  0.4894  1.6543
 7794TIP3   OH244796   4.949   1.103  14.700  0.5924  0.7767  0.4575
 7794TIP3    H144797   5.043   1.085  14.688  0.3741 -1.4303  1.4895
 7794TIP3    H244798   4.947   1.166  14.771  1.3095  0.7308  0.5351
 7795TIP3   OH244799   2.690   2.857   3.826  0.3370 -0.0035  0.1656
 7795TIP3    H144800   2.693   2.806   3.745 -0.3468 -1.4178  1.0041
 7795TIP3    H244801   2.596   2.866   3.845  0.5065 -0.2407  1.1431
 7796TIP3   OH244802   1.897   6.212   0.736 -0.2709  0.0529  0.0656
 7796TIP3    H144803   1.869   6.303   0.741 -0.5550 -0.0053 -0.3963
 7796TIP3    H244804   1.937   6.203   0.650  0.7580  0.0095  0.5306
 7797TIP3   OH244805   5.883   2.458   5.715  0.0537 -0.6048 -0.1542
 7797TIP3    H144806   5.884   2.532   5.653 -0.6983  1.7017  2.3865
 7797TIP3    H244807   5.790   2.438   5.727  0.0925 -0.0809  1.1878
 7798TIP3   OH244808   1.577   5.324  13.157 -0.3683  0.1065 -0.0922
 7798TIP3    H144809   1.492   5.366  13.146 -0.4567  0.0688  0.3963
 7798TIP3    H244810   1.638   5.379  13.108 -0.4823  0.8130  0.5405
 7799TIP3   OH244811   3.100   3.187  11.904 -0.0473  0.0280  0.3622
 7799TIP3    H144812   3.109   3.114  11.966  0.0807 -1.5316 -1.4140
 7799TIP3    H244813   3.023   3.234  11.934 -0.5761 -1.2806  1.1348
 7800TIP3   OH244814   4.841   6.432   2.195  0.0122  0.5300 -0.8308
 7800TIP3    H144815   4.869   6.502   2.254  0.9644 -1.1326  0.7881
 7800TIP3    H244816   4.891   6.447   2.115  2.7269 -0.0919  0.6226
 7801TIP3   OH244817   4.068   0.646   2.920  0.1383 -0.0435 -0.8096
 7801TIP3    H144818   4.097   0.709   2.987 -0.3951  0.0493 -0.6646
 7801TIP3    H244819   4.062   0.698   2.840  1.4005 -0.2876 -1.0890
 7802TIP3   OH244820   5.366   2.884   2.662  0.1375 -0.0576 -0.6377
 7802TIP3    H144821   5.446   2.833   2.649  0.9431  1.3261 -1.3040
 7802TIP3    H244822   5.396   2.974   2.668 -1.3878  0.5000 -1.0549
 7803TIP3   OH244823   2.493   4.030   4.637 -0.1190 -0.0401  0.6867
 7803TIP3    H144824   2.544   4.100   4.678 -1.6265  2.1626 -0.9544
 7803TIP3    H244825   2.422   4.013   4.699  1.0070 -1.1899  1.7275
 7804TIP3   OH244826   5.888   4.073  16.428 -0.5708  0.0776  0.3761
 7804TIP3    H144827   5.830   4.148  16.427  0.5920  1.0137  0.8591
 7804TIP3    H244828   5.955   4.095  16.493 -0.3508 -1.4937  0.7395
 7805TIP3   OH244829   0.382   1.535  15.020  0.3344 -0.0966  0.3634
 7805TIP3    H144830   0.386   1.455  15.073  0.1255 -1.2366 -1.2623
 7805TIP3    H244831   0.473   1.562  15.011  0.4402 -0.3570  0.6196
 7806TIP3   OH244832   0.923   6.121  17.066 -0.2050 -0.1363  0.3736
 7806TIP3    H144833   0.983   6.094  17.136  0.2152 -1.3759 -0.4214
 7806TIP3    H244834   0.896   6.209  17.091  2.2507  0.6443  0.5803
 7807TIP3   OH244835   5.620   3.564  10.716 -0.1287  0.4388  0.0671
 7807TIP3    H144836   5.620   3.469  10.705  0.6308  0.3575  0.6927
 7807TIP3    H244837   5.528   3.586  10.734 -0.1615 -0.3066  0.8813
 7808TIP3   OH244838   0.087   4.223   1.654 -0.1947  0.7758  0.2314
 7808TIP3    H144839   0.040   4.306   1.647  1.8431  2.0467  0.6973
 7808TIP3    H244840   0.147   4.222   1.580 -0.2774 -0.3685  0.1496
 7809TIP3   OH244841   3.526   2.935  15.922 -0.1256  0.0148  0.1446
 7809TIP3    H144842   3.494   2.938  16.012 -0.4501 -1.0363  0.0784
 7809TIP3    H244843   3.447   2.918  15.869  0.0409  0.7593 -0.3541
 7810TIP3   OH244844   5.807   6.190  11.391 -0.9000 -0.2512 -0.3167
 7810TIP3    H144845   5.734   6.168  11.333 -1.8903  0.4884  0.6111
 7810TIP3    H244846   5.884   6.185  11.335 -1.7289 -0.3556 -1.4928
 7811TIP3   OH244847   0.318   5.941   2.125 -0.1154  0.1710  0.0637
 7811TIP3    H144848   0.381   6.002   2.087  0.1158 -1.1474 -1.7781
 7811TIP3    H244849   0.241   5.947   2.068 -0.2245 -0.9512  0.0660
 7812TIP3   OH244850   2.664   3.951   0.212 -0.2091 -0.1146 -0.2086
 7812TIP3    H144851   2.738   3.909   0.167  0.6905  0.4264  0.7222
 7812TIP3    H244852   2.596   3.957   0.146  1.0410  0.5661 -1.4827
 7813TIP3   OH244853   3.831   5.260  15.714 -0.1277 -0.7839 -0.0161
 7813TIP3    H144854   3.831   5.186  15.775  1.2670 -0.3644  0.5346
 7813TIP3    H244855   3.874   5.226  15.636  3.9398  0.3033  1.4915
 7814TIP3   OH244856   0.008   3.573  16.806  0.5937 -0.2400  0.5743
 7814TIP3    H144857  -0.031   3.562  16.893 -2.6133  0.5075 -0.6664
 7814TIP3    H244858  -0.037   3.509  16.751  3.6684 -1.8142 -0.3524
 7815TIP3   OH244859   0.422   4.418   1.179  0.5170  0.1204 -0.3354
 7815TIP3    H144860   0.469   4.469   1.245  1.9927 -0.1191 -1.1589
 7815TIP3    H244861   0.355   4.479   1.146 -0.0028  0.3581  1.0840
 7816TIP3   OH244862   2.122   0.842  13.360 -0.5280 -0.8077 -0.3175
 7816TIP3    H144863   2.029   0.862  13.351  0.0599  1.4763 -2.2205
 7816TIP3    H244864   2.143   0.789  13.283 -0.4746 -2.5538  0.8316
 7817TIP3   OH244865   3.423   3.782   0.234 -0.1277  0.1109 -0.5801
 7817TIP3    H144866   3.439   3.688   0.230  0.9051  0.2715 -0.3278
 7817TIP3    H244867   3.363   3.793   0.308  2.3480 -0.0502  1.5710
 7818TIP3   OH244868   5.203   4.406  12.713 -0.8868  0.0300  0.4659
 7818TIP3    H144869   5.238   4.494  12.722  0.2966 -0.3166 -0.3993
 7818TIP3    H244870   5.114   4.411  12.748 -2.3504  2.5430 -2.9624
 7819TIP3   OH244871   1.598   5.998   4.997 -0.2321 -0.3407  0.0136
 7819TIP3    H144872   1.657   6.072   5.015 -2.2474  0.9146  1.9487
 7819TIP3    H244873   1.554   5.982   5.080 -1.5141 -2.2648 -0.9713
 7820TIP3   OH244874   5.901   1.422   1.491  0.2880  0.0038 -0.3048
 7820TIP3    H144875   5.822   1.476   1.486  0.2795  0.1143  0.7725
 7820TIP3    H244876   5.883   1.359   1.561  1.7162  1.0282  1.0617
 7821TIP3   OH244877   1.344   3.503  17.170  0.3772  0.1359 -0.1140
 7821TIP3    H144878   1.323   3.413  17.146  1.0040  0.3007 -1.3158
 7821TIP3    H244879   1.434   3.499  17.201  0.8037  0.5352 -1.2736
 7822TIP3   OH244880   1.685   3.579   6.071  0.1055  0.1954 -0.6654
 7822TIP3    H144881   1.667   3.489   6.100  0.0640 -0.3893 -2.4033
 7822TIP3    H244882   1.780   3.582   6.061  0.0284  0.0210 -1.5405
 7823TIP3   OH244883   3.695   4.409   7.252 -0.5321 -0.5432 -0.4379
 7823TIP3    H144884   3.719   4.463   7.328 -0.1706 -2.5836  0.9803
 7823TIP3    H244885   3.722   4.461   7.176 -0.7083  1.4739  0.8169
 7824TIP3   OH244886   2.463   6.248  13.414  0.1721  0.1888 -0.3444
 7824TIP3    H144887   2.495   6.175  13.361  2.1857  1.0007 -0.3364
 7824TIP3    H244888   2.477   6.221  13.504  2.5399  1.1725 -0.3462
 7825TIP3   OH244889   0.563   3.971  12.080  0.0583  0.0288  0.1445
 7825TIP3    H144890   0.641   3.917  12.088  0.4675  0.0747 -2.6855
 7825TIP3    H244891   0.510   3.928  12.013 -1.1920  1.3128  0.2522
 7826TIP3   OH244892   2.597   3.065  14.904  0.0917 -0.1050  0.2688
 7826TIP3    H144893   2.654   3.111  14.843  1.1493  1.5604  2.3935
 7826TIP3    H244894   2.509   3.078  14.868  0.7110  0.1918 -1.2512
 7827TIP3   OH244895   5.161   0.763  14.920  0.3040 -0.1787  0.3175
 7827TIP3    H144896   5.107   0.834  14.956 -0.5654 -0.5023 -0.3278
 7827TIP3    H244897   5.171   0.785  14.827  1.6096  0.0686  0.4960
 7828TIP3   OH244898   0.369   3.659   0.590  0.2817 -0.5643  0.1423
 7828TIP3    H144899   0.310   3.704   0.530 -0.1998 -1.4087 -0.0364
 7828TIP3    H244900   0.437   3.723   0.611 -0.5769  0.3462  0.1763
 7829TIP3   OH244901   3.190   4.641  12.019  0.2280 -0.3958  0.1394
 7829TIP3    H144902   3.165   4.635  11.927  0.6895  0.1741 -0.0314
 7829TIP3    H244903   3.107   4.640  12.067 -0.1146  0.8823 -0.3749
 7830TIP3   OH244904   6.427   4.446  14.861 -0.1634  0.1110  0.4279
 7830TIP3    H144905   6.430   4.360  14.819 -1.7379  0.2011  0.0765
 7830TIP3    H244906   6.461   4.431  14.949 -1.4624 -1.1273  0.7569
 7831TIP3   OH244907   0.067   0.631   4.357  0.0634  0.1437 -0.0787
 7831TIP3    H144908  -0.023   0.638   4.387 -0.0331  2.3977 -0.7427
 7831TIP3    H244909   0.062   0.577   4.278 -0.6528 -0.0118  0.0690
 7832TIP3   OH244910   3.133   1.132  12.478 -0.7523 -0.1059 -0.0459
 7832TIP3    H144911   3.139   1.045  12.518 -0.9411  0.8310  2.1287
 7832TIP3    H244912   3.177   1.190  12.539 -2.3234  1.6324 -0.4869
 7833TIP3   OH244913   2.770   0.079  14.287  0.0233 -0.5563 -0.3110
 7833TIP3    H144914   2.797   0.019  14.357  0.5414  0.8369  0.7189
 7833TIP3    H244915   2.848   0.087  14.232  0.1651 -0.3195 -0.0774
 7834TIP3   OH244916   0.063   1.543  10.910  0.0140  0.8164 -0.3101
 7834TIP3    H144917   0.025   1.489  10.841 -0.3791  0.6369  0.0425
 7834TIP3    H244918   0.035   1.502  10.991  3.1217 -0.9229  0.0499
 7835TIP3   OH244919   0.185   0.194   0.860 -0.8240 -0.0911  0.5567
 7835TIP3    H144920   0.132   0.223   0.786  0.5398  0.0217 -0.4250
 7835TIP3    H244921   0.193   0.271   0.916  0.2049  0.5862 -0.4726
 7836TIP3   OH244922   3.046   0.612  15.547  0.0389 -0.1532 -0.0675
 7836TIP3    H144923   3.067   0.632  15.456 -1.4114  0.1392 -0.3691
 7836TIP3    H244924   3.017   0.521  15.544 -0.4809  0.0075  0.0072
 7837TIP3   OH244925   6.446   2.339  11.673 -0.6217  0.1506 -0.1504
 7837TIP3    H144926   6.502   2.401  11.627  0.6496  0.0279  1.1625
 7837TIP3    H244927   6.367   2.388  11.694  0.7272  1.7044  1.6986
 7838TIP3   OH244928   5.026   1.436  11.827  0.4047 -0.0044  0.2462
 7838TIP3    H144929   5.042   1.530  11.834 -0.0594  0.0618  0.4597
 7838TIP3    H244930   5.088   1.396  11.888  2.9875 -0.0941 -2.2053
 7839TIP3   OH244931   3.766   1.022  14.463  0.0735  0.5591 -0.1107
 7839TIP3    H144932   3.770   0.991  14.554  1.5534  1.2282  0.0767
 7839TIP3    H244933   3.823   0.962  14.415  0.6616  1.2324 -0.2699
 7840TIP3   OH244934   2.045   1.807  11.511  0.0938 -0.5998  0.3001
 7840TIP3    H144935   2.031   1.874  11.444  0.2617 -0.0559  0.7995
 7840TIP3    H244936   2.090   1.735  11.465  2.0508  0.5868  0.2457
 7841TIP3   OH244937   6.348   4.658   0.300 -0.2469 -0.0678  0.2147
 7841TIP3    H144938   6.331   4.696   0.387  0.7384  0.6939  0.0813
 7841TIP3    H244939   6.262   4.628   0.271 -0.5294 -0.7479  1.6402
 7842TIP3   OH244940   1.880   3.204  15.413  0.1146  0.2977  0.3108
 7842TIP3    H144941   1.853   3.190  15.322  1.0302  0.4618 -0.0039
 7842TIP3    H244942   1.813   3.262  15.449 -1.2036 -1.1573  0.2681
 7843TIP3   OH244943   5.690   4.275   3.046  0.2682 -0.1084  0.3381
 7843TIP3    H144944   5.782   4.261   3.023  0.2893 -0.3150  0.5403
 7843TIP3    H244945   5.663   4.191   3.084  0.2964  0.2830  1.2520
 7844TIP3   OH244946   3.561   4.366  14.804  0.5066  0.3210 -0.1160
 7844TIP3    H144947   3.597   4.287  14.845  1.1246  0.6772  0.0410
 7844TIP3    H244948   3.602   4.367  14.717 -3.0085 -2.0520 -2.0375
 7845TIP3   OH244949   0.252   3.891   1.230  0.5491 -0.0370  0.5170
 7845TIP3    H144950   0.275   3.849   1.147  0.0883  1.6725 -0.5388
 7845TIP3    H244951   0.332   3.938   1.256 -0.1298  1.7926 -0.5235
 7846TIP3   OH244952   0.928   1.291  13.943 -0.6794 -0.3199 -0.1833
 7846TIP3    H144953   1.005   1.275  13.998 -0.3569 -1.4664 -0.9332
 7846TIP3    H244954   0.931   1.384  13.923  0.7523 -0.4163 -0.5288
 7847TIP3   OH244955   2.729   2.262   3.144  0.2180  0.0916 -0.4172
 7847TIP3    H144956   2.821   2.239   3.156  0.2617 -0.5886 -1.9021
 7847TIP3    H244957   2.682   2.200   3.199  0.5986 -0.1845 -0.3974
 7848TIP3   OH244958   1.752   1.139  12.043  0.3984 -0.8453 -0.3847
 7848TIP3    H144959   1.714   1.212  12.092  0.7316 -1.4663  0.8296
 7848TIP3    H244960   1.808   1.182  11.978 -0.8782  0.0174 -0.9661
 7849TIP3   OH244961   1.088   3.965   4.685  0.2200 -0.0725  0.3965
 7849TIP3    H144962   1.107   4.053   4.652  0.1847 -1.1173 -2.7794
 7849TIP3    H244963   1.170   3.934   4.722  0.7081  0.6843 -0.0409
 7850TIP3   OH244964   5.215   0.392   0.642  0.3663 -0.1382 -0.0233
 7850TIP3    H144965   5.245   0.395   0.733  1.5912  1.6328 -0.4287
 7850TIP3    H244966   5.285   0.347   0.595 -0.7243 -1.9669  0.0230
 7851TIP3   OH244967   2.061   4.930  14.747 -0.4851  0.2430 -0.2484
 7851TIP3    H144968   1.981   4.880  14.731 -0.0442 -0.7665  0.5706
 7851TIP3    H244969   2.130   4.880  14.702 -0.0522  0.1199  0.5220
 7852TIP3   OH244970   1.767   4.387  12.327  0.1568  0.3804  0.3820
 7852TIP3    H144971   1.726   4.305  12.354  0.5609  0.0775  0.0908
 7852TIP3    H244972   1.698   4.452  12.333 -0.6076 -0.2704 -0.9416
 7853TIP3   OH244973   4.181   5.466   3.504 -0.2656 -0.7851 -0.0287
 7853TIP3    H144974   4.099   5.472   3.554 -0.1956 -0.1791  0.0218
 7853TIP3    H244975   4.176   5.537   3.440  0.3848 -0.4983  0.2247
 7854TIP3   OH244976   4.184   3.904  13.649 -0.1747  0.2561 -0.1531
 7854TIP3    H144977   4.258   3.963  13.637  1.1062 -1.4183 -1.0733
 7854TIP3    H244978   4.114   3.940  13.594  1.3809 -0.3130 -2.6769
 7855TIP3   OH244979   5.517   3.537   0.839 -0.3786  0.0435  0.0656
 7855TIP3    H144980   5.501   3.553   0.746 -2.5264 -0.3934  0.3053
 7855TIP3    H244981   5.594   3.481   0.840 -0.9523 -0.8484 -1.5224
 7856TIP3   OH244982   5.013   5.317  12.458  0.1863  0.0640  0.0662
 7856TIP3    H144983   5.106   5.331  12.439  0.1943  1.0639  0.7984
 7856TIP3    H244984   5.012   5.255  12.531  0.2446 -0.6815 -0.5531
 7857TIP3   OH244985   5.443   5.071  17.304  0.6485  0.4526 -0.1878
 7857TIP3    H144986   5.405   5.115  17.381 -0.3209 -0.3702 -0.1873
 7857TIP3    H244987   5.379   5.085  17.234  2.3490  2.7919 -1.4130
 7858TIP3   OH244988   4.569   3.467  13.169  0.5850 -0.0960  0.5512
 7858TIP3    H144989   4.585   3.447  13.077  0.6723 -1.7526  0.8927
 7858TIP3    H244990   4.633   3.534  13.191  0.9874 -0.1400 -0.4384
 7859TIP3   OH244991   5.240   2.383   1.173  0.7452  0.3768  0.0208
 7859TIP3    H144992   5.232   2.449   1.104  0.5709  0.1084 -0.2175
 7859TIP3    H244993   5.302   2.319   1.138 -0.4364 -0.5238 -0.5056
 7860TIP3   OH244994   6.309   4.853  11.058  0.3181 -0.4910  0.4610
 7860TIP3    H144995   6.232   4.864  11.113 -0.5609  0.2457 -0.8501
 7860TIP3    H244996   6.373   4.915  11.093 -0.6286  0.7912  0.0207
 7861TIP3   OH244997   1.160   6.233   5.862 -0.2371  0.3238 -0.0774
 7861TIP3    H144998   1.096   6.252   5.794 -0.5279 -3.0456 -0.8963
 7861TIP3    H244999   1.117   6.258   5.944 -1.2228  1.1958 -0.8356
 7862TIP3   OH245000   3.838   1.516  10.566 -0.5864 -0.4183 -0.2620
 7862TIP3    H145001   3.859   1.462  10.490 -3.1878 -2.8069  0.5511
 7862TIP3    H245002   3.916   1.512  10.621  0.4907 -0.5369 -1.7375
 7863TIP3   OH245003   5.968   2.986   2.958  0.3626  0.2342 -0.0329
 7863TIP3    H145004   5.876   3.007   2.973 -0.2583 -2.3082  0.1644
 7863TIP3    H245005   5.981   3.004   2.865 -0.4681  0.2087 -0.1667
 7864TIP3   OH245006   2.762   2.029   5.809  0.3161 -0.5342  0.0166
 7864TIP3    H145007   2.851   2.065   5.815  0.4702 -0.9736  0.4197
 7864TIP3    H245008   2.722   2.077   5.736  0.9659 -0.5127 -0.3365
 7865TIP3   OH245009   3.933   6.537  12.225  0.3865 -0.6226  0.1199
 7865TIP3    H145010   3.913   6.444  12.239 -1.2810 -0.3418 -0.1721
 7865TIP3    H245011   3.931   6.576  12.312  0.6699 -0.7850  0.1984
 7866TIP3   OH245012   3.246   5.241  17.203  0.0775  0.0811  0.2820
 7866TIP3    H145013   3.220   5.161  17.156  0.1111  0.8821 -1.1535
 7866TIP3    H245014   3.302   5.210  17.274  0.0961 -1.1748 -0.2567
 7867TIP3   OH245015   6.443   2.598  17.013  0.0412 -0.0563  0.1182
 7867TIP3    H145016   6.449   2.539  17.087  0.9870 -0.2801 -0.1309
 7867TIP3    H245017   6.524   2.648  17.015  1.2955 -1.7939 -2.2084
 7868TIP3   OH245018   4.009   6.542   1.403  0.1136 -0.3316 -0.1536
 7868TIP3    H145019   4.082   6.527   1.463  0.5856 -0.6923 -0.8117
 7868TIP3    H245020   3.967   6.622   1.436  0.7776 -0.1431  0.2484
 7869TIP3   OH245021   3.748   3.936  15.068  0.0403  0.3761 -0.4293
 7869TIP3    H145022   3.705   3.850  15.065 -0.3632  0.5751 -0.3996
 7869TIP3    H245023   3.811   3.929  15.140 -0.9317  0.5369  0.4608
 7870TIP3   OH245024   4.849   2.640   0.396  1.0490 -0.4755  0.5855
 7870TIP3    H145025   4.912   2.622   0.467  0.4031 -2.3694  0.7311
 7870TIP3    H245026   4.871   2.576   0.328 -0.4609 -0.9230  0.4893
 7871TIP3   OH245027   4.431   5.836   1.109  0.3291 -0.2539  0.1019
 7871TIP3    H145028   4.377   5.843   1.030  0.0825 -0.5306  0.2488
 7871TIP3    H245029   4.419   5.746   1.139  0.4592 -0.1614  0.4326
 7872TIP3   OH245030   6.350   0.534  14.283  0.2272  0.4993  0.0172
 7872TIP3    H145031   6.358   0.464  14.217 -0.6073 -1.0046  1.4323
 7872TIP3    H245032   6.256   0.551  14.287 -0.0093 -0.8943  2.1955
 7873TIP3   OH245033   1.650   0.896  16.890  0.5720 -0.4580  0.0181
 7873TIP3    H145034   1.635   0.967  16.827  0.0385  0.3814  1.0439
 7873TIP3    H245035   1.716   0.931  16.950  0.1834 -0.7583  0.6324
 7874TIP3   OH245036   1.338   5.521  14.154 -0.8823  0.6959  0.1385
 7874TIP3    H145037   1.382   5.485  14.231 -0.1473  0.5441 -0.3497
 7874TIP3    H245038   1.307   5.607  14.181  3.6271  2.8683 -0.7734
 7875TIP3   OH245039   2.600   6.584  13.113  0.4582 -0.4494 -0.1209
 7875TIP3    H145040   2.655   6.661  13.125 -0.6979  0.0578  2.5336
 7875TIP3    H245041   2.510   6.618  13.116 -0.0669 -1.6277 -1.3187
 7876TIP3   OH245042   4.827   5.853  12.123  0.5216  0.2081  0.0423
 7876TIP3    H145043   4.898   5.823  12.067  0.0307 -0.7113 -0.1037
 7876TIP3    H245044   4.747   5.822  12.080  0.1433 -0.6139  1.2759
 7877TIP3   OH245045   3.073   1.866   4.645 -0.0631 -0.3196  0.1099
 7877TIP3    H145046   3.158   1.830   4.670  0.4373  0.1306 -0.8797
 7877TIP3    H245047   3.062   1.943   4.701 -0.5726 -1.2641  1.3600
 7878TIP3   OH245048   0.942   1.937  12.934 -0.5659 -1.2714 -0.0155
 7878TIP3    H145049   0.999   2.003  12.974 -1.4606 -0.1713 -0.4906
 7878TIP3    H245050   0.988   1.854  12.947  2.0041 -0.2639 -1.8737
 7879TIP3   OH245051   5.601   5.255  13.658  0.1406 -0.1061 -0.0704
 7879TIP3    H145052   5.658   5.302  13.719  0.3435  1.9403 -1.7170
 7879TIP3    H245053   5.514   5.293  13.674 -0.2699 -1.2216  0.4897
 7880TIP3   OH245054   5.334   4.525  13.488  0.1597  0.7258  0.1731
 7880TIP3    H145055   5.295   4.558  13.570  0.1595  3.1737 -0.7224
 7880TIP3    H245056   5.262   4.528  13.425  0.3473 -0.4503 -0.1213
 7881TIP3   OH245057   5.640   6.693  15.565 -0.0392  0.2863 -0.2595
 7881TIP3    H145058   5.721   6.668  15.608  0.1111  1.7250  0.3445
 7881TIP3    H245059   5.659   6.778  15.525 -0.3061 -0.7415 -2.8051
 7882TIP3   OH245060   4.544   5.583   1.741  0.1323  0.0580  0.4045
 7882TIP3    H145061   4.622   5.527   1.738 -0.0071 -0.1083 -0.5746
 7882TIP3    H245062   4.559   5.641   1.815  0.2418 -1.3276  1.5077
 7883TIP3   OH245063   0.705   3.445   3.682 -0.6610  0.0651  0.2541
 7883TIP3    H145064   0.722   3.526   3.730 -1.6797  0.3912  0.0742
 7883TIP3    H245065   0.759   3.452   3.603 -0.6310  0.4934  0.3105
 7884TIP3   OH245066   2.287   0.757   2.699 -0.0697  0.4338 -0.1658
 7884TIP3    H145067   2.294   0.852   2.696 -1.7736  0.5738 -0.2682
 7884TIP3    H245068   2.239   0.738   2.779  1.3216 -0.4477  0.5063
 7885TIP3   OH245069   1.792   6.718  14.588 -0.3463  0.8646  0.2097
 7885TIP3    H145070   1.775   6.783  14.657  0.4279  0.1407  1.1189
 7885TIP3    H245071   1.880   6.738  14.557  0.3906 -0.4559  1.3474
 7886TIP3   OH245072   5.399   6.746  11.413  0.1514  0.4892  0.1105
 7886TIP3    H145073   5.454   6.824  11.402 -0.3416  0.8957  0.4651
 7886TIP3    H245074   5.453   6.674  11.382  1.4397  0.6707  1.7641
 7887TIP3   OH245075   1.173   3.437   6.106 -0.4355  0.1930  0.0442
 7887TIP3    H145076   1.091   3.403   6.073 -0.2456  1.0012 -1.3216
 7887TIP3    H245077   1.148   3.497   6.177 -0.7637 -2.7988  2.6964
 7888TIP3   OH245078   1.147   3.317   1.426  0.3762  0.1822  0.2860
 7888TIP3    H145079   1.158   3.359   1.340 -0.6126  1.6463  0.8437
 7888TIP3    H245080   1.130   3.225   1.405 -1.9084  0.8657 -1.2134
 7889TIP3   OH245081   1.156   4.008  15.910 -0.1081  0.4135 -0.1430
 7889TIP3    H145082   1.141   4.013  15.816 -4.2565 -2.3475  0.0774
 7889TIP3    H245083   1.204   3.925  15.922 -1.1525 -0.1623  0.1929
 7890TIP3   OH245084   1.398   1.144  12.772  0.1930 -0.2309 -0.5000
 7890TIP3    H145085   1.442   1.100  12.699 -0.8043  0.5016 -1.5776
 7890TIP3    H245086   1.370   1.074  12.829 -0.1721 -0.9146 -1.4968
 7891TIP3   OH245087   1.161   4.443   2.194  0.1160  0.4864 -0.2654
 7891TIP3    H145088   1.236   4.424   2.250  0.5590  1.9522 -0.3201
 7891TIP3    H245089   1.184   4.406   2.109  1.1153  1.5553 -0.4786
 7892TIP3   OH245090   0.933   2.679   3.734  0.1800  0.3153 -0.3888
 7892TIP3    H145091   0.877   2.723   3.798  2.2076  1.9332  0.4001
 7892TIP3    H245092   0.935   2.739   3.659 -1.3751 -1.0924 -1.6145
 7893TIP3   OH245093   1.496   3.558   2.932 -0.5817 -0.3637 -0.6963
 7893TIP3    H145094   1.438   3.606   2.992 -0.6204 -0.3926 -0.7110
 7893TIP3    H245095   1.496   3.469   2.966 -0.3465 -0.3067 -0.5479
 7894TIP3   OH245096   3.662   1.035   0.970  0.1984  0.3137  0.3041
 7894TIP3    H145097   3.704   1.063   1.051  0.1246 -1.0428  0.8448
 7894TIP3    H245098   3.732   1.034   0.905  0.1502  1.9159  0.1948
 7895TIP3   OH245099   2.244   6.359  14.231  0.1197 -0.1431 -0.0004
 7895TIP3    H145100   2.195   6.313  14.163 -0.5714 -1.3169  1.2469
 7895TIP3    H245101   2.289   6.290  14.280 -0.2713  0.5446  1.4021
 7896TIP3   OH245102   5.765   2.854  15.582 -0.1552  1.0313 -1.0040
 7896TIP3    H145103   5.755   2.839  15.488 -2.1417 -0.4773 -0.6127
 7896TIP3    H245104   5.696   2.917  15.604  0.1300  1.1751 -0.4853
 7897TIP3   OH245105   4.858   3.900   2.130 -0.1088  0.1000  0.0084
 7897TIP3    H145106   4.945   3.938   2.145  0.2959 -1.4064  2.0645
 7897TIP3    H245107   4.867   3.809   2.158 -2.0101 -0.4683 -1.0612
 7898TIP3   OH245108   6.503   4.235   0.989 -0.5347 -0.9151  0.1523
 7898TIP3    H145109   6.533   4.268   0.904  0.2323 -2.9574 -0.4377
 7898TIP3    H245110   6.583   4.220   1.039 -0.9872  3.1429  2.5770
 7899TIP3   OH245111   5.259   5.291   1.472 -0.2707 -0.1808 -0.1462
 7899TIP3    H145112   5.311   5.352   1.419 -0.9130  1.0006  0.5645
 7899TIP3    H245113   5.174   5.288   1.428 -0.3322 -0.3610 -0.0156
 7900TIP3   OH245114   1.906   4.924   0.257 -0.1482  0.1090  0.5887
 7900TIP3    H145115   1.959   4.845   0.273 -0.3995 -0.3456 -0.7180
 7900TIP3    H245116   1.829   4.912   0.313 -0.0724 -0.4544  0.5850
 7901TIP3   OH245117   6.048   6.646  16.866  0.4677 -0.0755 -0.2582
 7901TIP3    H145118   6.104   6.657  16.790 -2.2917  0.7897 -2.3509
 7901TIP3    H245119   6.022   6.554  16.863  0.1327  0.0253 -0.5730
 7902TIP3   OH245120   5.411   3.111  11.359  0.3148  0.0823  0.1856
 7902TIP3    H145121   5.492   3.063  11.344  1.2390  0.4420  3.2900
 7902TIP3    H245122   5.415   3.185  11.299  3.1521  1.0334  1.4174
 7903TIP3   OH245123   6.678   5.180  14.352  0.0673 -0.1719 -0.6558
 7903TIP3    H145124   6.598   5.221  14.383 -1.2485 -2.0846 -1.3619
 7903TIP3    H245125   6.665   5.170  14.257  1.1026 -0.5984 -0.7727
 7904TIP3   OH245126   1.902   1.571  14.181 -0.1417 -0.0392 -0.1356
 7904TIP3    H145127   1.834   1.638  14.187  0.2078  0.1941  2.1720
 7904TIP3    H245128   1.979   1.616  14.147 -0.8375 -0.0894 -1.8569
 7905TIP3   OH245129   1.438   3.643   2.677  0.6783 -0.0538  0.2233
 7905TIP3    H145130   1.463   3.630   2.769  0.2482 -0.1501  0.3253
 7905TIP3    H245131   1.348   3.674   2.681  1.3518  2.0575 -0.0632
 7906TIP3   OH245132   6.252   1.072  12.617  0.3996 -0.3054  0.5021
 7906TIP3    H145133   6.197   0.994  12.623  0.7566 -0.6979 -0.9306
 7906TIP3    H245134   6.313   1.052  12.546  0.3997  1.3480  0.0134
 7907TIP3   OH245135   5.472   3.440  11.740  0.5308  0.1262 -0.2753
 7907TIP3    H145136   5.461   3.516  11.684 -1.9477 -0.1855 -0.3194
 7907TIP3    H245137   5.509   3.372  11.683 -2.5241 -0.3896 -1.8182
 7908TIP3   OH245138   4.951   2.086  16.862  0.2353  0.4286  0.4232
 7908TIP3    H145139   4.950   1.992  16.844 -1.1493  0.4408  0.3595
 7908TIP3    H245140   4.988   2.126  16.783 -1.9090  0.1573 -0.7673
 7909TIP3   OH245141   3.431   3.122  11.515  0.2981 -0.2766 -0.5683
 7909TIP3    H145142   3.355   3.146  11.568  1.4087 -1.8302  1.9455
 7909TIP3    H245143   3.395   3.072  11.442 -1.1373 -0.8780  0.5063
 7910TIP3   OH245144   3.750   1.549  15.467  0.5252 -0.2983 -0.1380
 7910TIP3    H145145   3.807   1.610  15.419 -2.1091  2.0656 -0.5151
 7910TIP3    H245146   3.714   1.491  15.400  1.5233 -1.0353 -0.0608
 7911TIP3   OH245147   1.477   0.780  14.562 -0.2623 -0.3882 -0.0013
 7911TIP3    H145148   1.426   0.707  14.596 -1.5976  0.5374  0.0924
 7911TIP3    H245149   1.543   0.798  14.628 -1.2571 -0.1886  0.9629
 7912TIP3   OH245150   6.676   0.522   4.690 -0.2042  0.6414  0.2822
 7912TIP3    H145151   6.762   0.490   4.716  0.6851  0.9161 -2.0236
 7912TIP3    H245152   6.691   0.615   4.669 -0.7985  0.4449 -1.0971
 7913TIP3   OH245153   1.537   4.030  16.024  0.3020  0.6483  0.1050
 7913TIP3    H145154   1.520   4.092  16.094  0.3796  0.9159 -0.1096
 7913TIP3    H245155   1.549   3.946  16.068 -0.2617  0.7024  0.3596
 7914TIP3   OH245156   4.569   0.678   1.526  0.2171  0.2834 -0.0234
 7914TIP3    H145157   4.635   0.620   1.487  1.3057  1.1935  0.3933
 7914TIP3    H245158   4.533   0.728   1.452  0.7659  0.5227 -0.1365
 7915TIP3   OH245159   2.469   2.199  13.305  0.2194 -0.1467 -0.6048
 7915TIP3    H145160   2.468   2.103  13.305 -0.8040 -0.1488 -0.2345
 7915TIP3    H245161   2.550   2.222  13.260  1.5914 -1.1823  1.1960
 7916TIP3   OH245162   4.748   6.432  15.377  0.3199  0.2844 -0.6955
 7916TIP3    H145163   4.734   6.515  15.423 -1.7655  0.7272 -1.9805
 7916TIP3    H245164   4.817   6.451  15.313  0.4363  0.7691 -0.4299
 7917TIP3   OH245165   3.796   5.369  11.432  0.2865  0.0300  1.1729
 7917TIP3    H145166   3.759   5.414  11.507 -2.1842  0.3040 -0.1024
 7917TIP3    H245167   3.730   5.379  11.363  1.7194 -1.5900 -0.5439
 7918TIP3   OH245168   5.536   4.482   0.612 -0.1286  0.3708  0.4060
 7918TIP3    H145169   5.609   4.422   0.600  1.3314  1.8038  1.6710
 7918TIP3    H245170   5.548   4.518   0.700 -2.3976  0.6314  0.6771
 7919TIP3   OH245171   0.726   1.329  17.030 -0.0239  0.0963 -0.6661
 7919TIP3    H145172   0.775   1.406  17.057 -0.1419  0.3117 -1.0572
 7919TIP3    H245173   0.635   1.358  17.030 -0.1957 -0.3926  0.3802
 7920TIP3   OH245174   5.550   6.098  15.741 -0.0800 -0.0058  0.0805
 7920TIP3    H145175   5.520   6.160  15.674 -0.7376 -0.1066  0.2737
 7920TIP3    H245176   5.599   6.152  15.802 -0.9160  0.3975  0.4150
 7921TIP3   OH245177   3.827   3.669  14.848  0.4136  0.2504  0.2677
 7921TIP3    H145178   3.757   3.613  14.882  0.2266 -0.6073 -1.4308
 7921TIP3    H245179   3.887   3.609  14.804 -0.2982  1.4126 -2.4872
 7922TIP3   OH245180   4.126   2.106  14.952  0.4989 -0.4359 -0.0274
 7922TIP3    H145181   4.173   2.097  15.035  1.2427  1.4353 -0.2056
 7922TIP3    H245182   4.036   2.080  14.973  0.2181  1.7408  1.8743
 7923TIP3   OH245183   1.071   1.304  15.638  0.1349 -0.1307 -0.4701
 7923TIP3    H145184   1.020   1.292  15.718  2.4252 -0.4409  1.0107
 7923TIP3    H245185   1.006   1.296  15.567 -2.1978  1.4306  1.3352
 7924TIP3   OH245186   5.355   0.267   1.186 -0.5137  0.3275 -0.1183
 7924TIP3    H145187   5.340   0.326   1.259  0.9984  0.5850  0.0219
 7924TIP3    H245188   5.354   0.180   1.225  1.4850  0.5136  0.5027
 7925TIP3   OH245189   3.632   3.497  11.675 -0.1986  0.2897 -0.4350
 7925TIP3    H145190   3.643   3.449  11.757 -0.2551  2.6959  1.0808
 7925TIP3    H245191   3.672   3.441  11.608  1.7429 -0.8097  1.5468
 7926TIP3   OH245192   2.515   2.545  11.709 -0.1054 -0.1428 -0.4134
 7926TIP3    H145193   2.467   2.563  11.790 -1.6578  0.0548 -1.3378
 7926TIP3    H245194   2.577   2.477  11.733 -1.1832 -0.7661  0.7429
 7927TIP3   OH245195   5.421   6.302  13.396 -0.0648 -0.0520 -0.1511
 7927TIP3    H145196   5.344   6.343  13.356 -0.9353 -1.4542  0.0212
 7927TIP3    H245197   5.458   6.247  13.327  0.3659  0.0423 -0.0023
 7928TIP3   OH245198   4.165   1.841  15.665  0.3049  0.0950  0.3889
 7928TIP3    H145199   4.214   1.868  15.742  3.0591  0.7182 -1.4513
 7928TIP3    H245200   4.219   1.774  15.624  0.2473  1.5372 -2.3109
 7929TIP3   OH245201   1.383   1.891   6.128  0.0015  0.0445 -0.3429
 7929TIP3    H145202   1.318   1.870   6.195 -2.0063 -0.2991 -2.2846
 7929TIP3    H245203   1.418   1.976   6.155  1.8392 -1.5403  2.9270
 7930TIP3   OH245204   3.483   5.760   3.102 -0.0632 -0.1530  0.1565
 7930TIP3    H145205   3.422   5.807   3.045  0.3677  1.1442  0.7289
 7930TIP3    H245206   3.460   5.668   3.091 -1.2107  0.2113 -0.6839
 7931TIP3   OH245207   4.981   0.931   5.430 -0.1384  0.5107 -0.0874
 7931TIP3    H145208   4.935   1.005   5.393 -0.5767  0.9686  1.3017
 7931TIP3    H245209   5.058   0.969   5.473  2.4312 -0.3483 -3.4972
 7932TIP3   OH245210   3.465   4.805   5.923 -0.0930 -0.6354  0.1835
 7932TIP3    H145211   3.554   4.785   5.951  0.2360  0.4484 -0.0429
 7932TIP3    H245212   3.469   4.805   5.827 -0.1429  0.2132  0.1756
 7933TIP3   OH245213   0.187   5.649   6.389 -0.2619 -0.2851 -0.0347
 7933TIP3    H145214   0.142   5.576   6.346 -0.0005 -0.4797  0.0219
 7933TIP3    H245215   0.127   5.676   6.459 -0.9988  0.4772 -0.9333
 7934TIP3   OH245216   6.076   6.167   0.019  0.3801  0.2091 -0.1527
 7934TIP3    H145217   6.131   6.243   0.037  0.3789  0.1312  0.1831
 7934TIP3    H245218   6.101   6.102   0.085 -1.1564  0.7103  0.9680
 7935TIP3   OH245219   3.564   4.053   1.270 -0.1140 -0.1719 -0.5113
 7935TIP3    H145220   3.483   4.002   1.267 -0.3709  0.2239 -0.4722
 7935TIP3    H245221   3.628   4.001   1.223 -1.0114  0.5849 -2.6630
 7936TIP3   OH245222   3.544   1.195  11.918 -0.3634 -0.8346  0.2693
 7936TIP3    H145223   3.538   1.118  11.976  0.7971 -2.5272 -1.7336
 7936TIP3    H245224   3.463   1.192  11.867 -0.1208 -1.0122 -0.1120
 7937TIP3   OH245225   2.991   5.282   2.106 -0.1146  0.0130  0.6747
 7937TIP3    H145226   2.949   5.354   2.059  0.1503  0.5442  1.2242
 7937TIP3    H245227   2.929   5.210   2.100 -0.3302  0.2519  0.0046
 7938TIP3   OH245228   0.593   1.242   1.494 -0.0705  0.0853  0.2436
 7938TIP3    H145229   0.670   1.230   1.439 -0.2651 -1.3013  0.2336
 7938TIP3    H245230   0.526   1.185   1.455 -1.3498  1.7980 -0.1770
 7939TIP3   OH245231   1.042   5.954   2.091  0.1089  0.1160  0.0107
 7939TIP3    H145232   1.033   6.048   2.074 -2.3718 -0.2499 -1.0981
 7939TIP3    H245233   1.086   5.920   2.013 -1.0424  0.0598 -0.6317
 7940TIP3   OH245234   1.993   4.912   0.926  0.5993  0.4291  0.0041
 7940TIP3    H145235   2.000   4.818   0.909  2.3234  0.7023 -1.1068
 7940TIP3    H245236   2.082   4.939   0.948  0.4424  2.0394 -1.1476
 7941TIP3   OH245237   1.846   1.888  12.543  0.0828  0.0133  0.5878
 7941TIP3    H145238   1.827   1.981  12.553  1.5601  0.1795  2.5788
 7941TIP3    H245239   1.903   1.882  12.467  0.8959  0.9152  1.1078
 7942TIP3   OH245240   5.653   4.653   0.252  0.7212  0.3304  0.1908
 7942TIP3    H145241   5.600   4.671   0.173  0.5721 -0.5325  0.0882
 7942TIP3    H245242   5.597   4.680   0.324 -0.3502 -1.5986  0.1446
 7943TIP3   OH245243   0.006   5.067   0.691 -0.9527 -0.1651 -0.0556
 7943TIP3    H145244   0.044   5.153   0.714 -2.3648  0.4929 -0.0789
 7943TIP3    H245245  -0.023   5.077   0.601  0.0571 -1.1304 -0.5139
 7944TIP3   OH245246   0.877   2.937   4.387  0.1906 -0.5397 -0.6035
 7944TIP3    H145247   0.826   3.001   4.337 -1.0821 -2.8655 -2.5091
 7944TIP3    H245248   0.964   2.941   4.349 -0.3729 -1.2036 -2.0483
 7945TIP3   OH245249   2.480   0.592  13.361  0.3763  0.5561  0.2783
 7945TIP3    H145250   2.550   0.656  13.374 -0.3460  1.4392 -0.0118
 7945TIP3    H245251   2.473   0.583  13.266  0.1686  0.3903  0.3089
 7946TIP3   OH245252   5.203   4.902  15.061 -0.1451 -0.0404 -0.3456
 7946TIP3    H145253   5.227   4.906  14.969 -0.9411  0.8038 -0.5266
 7946TIP3    H245254   5.109   4.920  15.063 -0.2389 -0.5220  0.5913
 7947TIP3   OH245255   3.254   1.444   0.794  0.4873 -0.3578  0.5705
 7947TIP3    H145256   3.235   1.497   0.872 -0.2418  0.5041 -0.1626
 7947TIP3    H245257   3.174   1.450   0.741  0.8699 -1.1571 -0.1101
 7948TIP3   OH245258   4.782   1.773  16.578  0.2759  0.3842  0.6846
 7948TIP3    H145259   4.856   1.833  16.569  0.4565  0.1298  0.4498
 7948TIP3    H245260   4.705   1.826  16.556  0.4886  0.3844 -0.0729
 7949TIP3   OH245261   4.786   4.850   4.397  0.0762  0.3168  0.1078
 7949TIP3    H145262   4.839   4.923   4.428  1.7948 -0.3864 -0.9674
 7949TIP3    H245263   4.840   4.809   4.329 -0.3065 -2.5622  1.3565
 7950TIP3   OH245264   6.498   5.677   7.046  0.2032 -0.1191  0.6588
 7950TIP3    H145265   6.527   5.598   7.093  0.0152  0.3061  1.5005
 7950TIP3    H245266   6.576   5.732   7.042  0.9317 -1.1836 -1.7856
 7951TIP3   OH245267   3.186   1.708  16.056 -0.0980 -0.2894  0.1503
 7951TIP3    H145268   3.159   1.632  16.005  0.1094 -0.4318  0.2501
 7951TIP3    H245269   3.142   1.782  16.014  0.5968 -0.3122 -0.6676
 7952TIP3   OH245270   0.438   2.218   5.875  0.1004 -0.0644  0.2314
 7952TIP3    H145271   0.444   2.239   5.968 -1.5534  2.2784 -0.1195
 7952TIP3    H245272   0.518   2.255   5.837  0.7523 -0.9792  0.6778
 7953TIP3   OH245273   1.190   1.371  13.848 -0.4053 -0.2993 -0.0131
 7953TIP3    H145274   1.231   1.432  13.910  2.8829  1.1483 -3.2033
 7953TIP3    H245275   1.238   1.289  13.860  0.2382 -0.0157 -0.5319
 7954TIP3   OH245276   4.665   0.153   2.358  0.7959  0.0255  0.1764
 7954TIP3    H145277   4.615   0.234   2.342  1.0051  0.2405  0.5830
 7954TIP3    H245278   4.685   0.156   2.452  1.7924  0.0735 -0.0305
 7955TIP3   OH245279   6.416   3.990   2.807 -0.1763  0.0863  0.0548
 7955TIP3    H145280   6.335   3.978   2.757  0.8631 -2.4106 -1.2718
 7955TIP3    H245281   6.478   4.026   2.744  0.9058 -2.2591 -0.3498
 7956TIP3   OH245282   5.531   1.533   1.928  0.0935 -0.0074 -0.3536
 7956TIP3    H145283   5.446   1.510   1.966  1.2238 -2.7196  0.7394
 7956TIP3    H245284   5.525   1.505   1.837 -0.6999  1.4146 -0.7864
 7957TIP3   OH245285   5.629   0.246   2.618  0.1617 -0.0599 -0.2904
 7957TIP3    H145286   5.589   0.240   2.704 -0.4810 -0.6550 -0.6176
 7957TIP3    H245287   5.580   0.315   2.573 -0.7336 -0.9893 -0.7931
 7958TIP3   OH245288   6.742   1.526   1.110  0.0474 -0.2502  0.1287
 7958TIP3    H145289   6.752   1.440   1.071  1.3643  0.6657 -1.6803
 7958TIP3    H245290   6.825   1.542   1.155  0.0483  0.3173 -0.0645
 7959TIP3   OH245291   1.777   1.041   2.975  0.5397  0.2302  0.0514
 7959TIP3    H145292   1.849   0.979   2.984 -0.6441 -1.2234 -0.1790
 7959TIP3    H245293   1.730   1.014   2.896 -0.4822  0.9101  0.3945
 7960TIP3   OH245294   1.121   5.360   5.908  0.6423 -0.2429 -0.1864
 7960TIP3    H145295   1.031   5.335   5.887  0.5253 -0.3484  0.4235
 7960TIP3    H245296   1.113   5.413   5.987  0.9732  0.9887 -0.9403
 7961TIP3   OH245297   2.155   3.431   5.045  0.2208  0.2337 -0.1336
 7961TIP3    H145298   2.223   3.438   4.977 -0.2312 -0.5118 -0.6768
 7961TIP3    H245299   2.156   3.517   5.088  1.6162  0.1957 -0.0213
 7962TIP3   OH245300   3.290   0.748  13.864 -0.3456  0.6651 -0.2802
 7962TIP3    H145301   3.323   0.768  13.951 -0.1471 -4.1952  1.0592
 7962TIP3    H245302   3.368   0.724  13.814 -0.7512  0.0165 -0.6223
 7963TIP3   OH245303   1.599   2.130  14.424 -0.3231 -0.3034 -0.5281
 7963TIP3    H145304   1.644   2.101  14.503  1.2789 -0.7916 -1.5599
 7963TIP3    H245305   1.539   2.059  14.404 -0.8077 -0.1345  0.2907
 7964TIP3   OH245306   5.042   3.437  12.371  0.3912  0.1301 -0.2174
 7964TIP3    H145307   5.081   3.384  12.301  0.4116 -0.9159  0.5724
 7964TIP3    H245308   4.970   3.384  12.405 -0.7757  1.3886 -0.6164
 7965TIP3   OH245309   5.177   3.274   0.135  0.5545  0.0973 -0.8489
 7965TIP3    H145310   5.090   3.266   0.098  0.8124 -3.0462 -1.0233
 7965TIP3    H245311   5.236   3.267   0.059  0.9932 -0.4475 -0.4623
 7966TIP3   OH245312   6.510   1.957   0.285  0.0398 -0.1389 -0.5718
 7966TIP3    H145313   6.510   2.048   0.257  1.9811 -0.1028 -0.5926
 7966TIP3    H245314   6.450   1.955   0.360  0.2509  1.2128 -0.3423
 7967TIP3   OH245315   2.041   1.122  10.494  0.5661  0.2853  0.2396
 7967TIP3    H145316   2.107   1.081  10.550 -0.0201 -0.4927  0.3749
 7967TIP3    H245317   2.081   1.204  10.466  1.2628  0.2119  0.9869
 7968TIP3   OH245318   2.189   1.423   1.605 -0.1159  0.3230  0.2800
 7968TIP3    H145319   2.188   1.340   1.653 -0.0803 -0.3080 -0.7645
 7968TIP3    H245320   2.194   1.490   1.673 -1.4378 -0.4713  1.2082
 7969TIP3   OH245321   4.499   5.229  11.563 -0.0648  0.0150 -0.1882
 7969TIP3    H145322   4.523   5.139  11.539 -2.4454 -0.9640  0.7067
 7969TIP3    H245323   4.502   5.229  11.659 -3.0208 -0.1599  0.0147
 7970TIP3   OH245324   6.701   4.293   6.732 -0.4019 -0.4284 -0.7581
 7970TIP3    H145325   6.735   4.207   6.708  0.0599 -0.2231 -0.8554
 7970TIP3    H245326   6.620   4.303   6.682  0.8767  0.2770 -2.8119
 7971TIP3   OH245327   0.242   6.000   1.763 -0.7082  0.7189  0.2016
 7971TIP3    H145328   0.286   6.077   1.798 -1.6522  1.5110 -0.2898
 7971TIP3    H245329   0.167   5.987   1.821  0.3405 -0.8785  1.2943
 7972TIP3   OH245330   0.733   3.956   3.980  0.3192  0.2192 -0.0793
 7972TIP3    H145331   0.790   3.969   4.056  0.1068 -0.2008  0.1581
 7972TIP3    H245332   0.667   4.025   3.986  0.0692 -0.0498  0.3452
 7973TIP3   OH245333   3.466   3.288   0.139  0.0094 -0.6993  0.6742
 7973TIP3    H145334   3.515   3.227   0.084  0.4175 -1.1101  1.4720
 7973TIP3    H245335   3.395   3.235   0.177  0.0356 -0.5441  0.9429
 7974TIP3   OH245336   1.011   1.257  17.347 -0.3171  0.4435  0.2717
 7974TIP3    H145337   1.015   1.200  17.271  0.8756 -0.6187  1.0760
 7974TIP3    H245338   1.004   1.346  17.312  0.0291 -0.0446 -1.0599
 7975TIP3   OH245339   1.578   0.400  16.645 -0.0370  0.5755  0.0452
 7975TIP3    H145340   1.484   0.399  16.659 -0.2914  0.5093 -1.5438
 7975TIP3    H245341   1.589   0.420  16.552  1.4875 -0.4006 -0.0263
 7976TIP3   OH245342   2.661   5.135   0.681 -0.3103 -0.1412  0.1188
 7976TIP3    H145343   2.730   5.133   0.747  2.2088  1.1005 -2.2439
 7976TIP3    H245344   2.609   5.212   0.703  0.0543 -0.1340  1.0182
 7977TIP3   OH245345   4.760   3.428   3.089  0.7290  0.0476 -0.2084
 7977TIP3    H145346   4.824   3.360   3.108 -0.0669 -1.3338 -2.1287
 7977TIP3    H245347   4.781   3.457   3.000  1.2072  2.5749  0.6474
 7978TIP3   OH245348   6.119   5.819   4.419  0.2169  0.3419 -0.3452
 7978TIP3    H145349   6.075   5.902   4.398 -2.8822 -1.5115 -1.9309
 7978TIP3    H245350   6.153   5.788   4.335  0.7124 -0.3537  0.1011
 7979TIP3   OH245351   0.733   3.416  17.427 -0.1891  0.1501 -0.0573
 7979TIP3    H145352   0.696   3.395  17.341  2.3825 -0.3808 -1.1188
 7979TIP3    H245353   0.825   3.392  17.420  0.6631  2.4232  2.0662
 7980TIP3   OH245354   3.218   0.234  16.459  0.6338 -0.0648  0.3621
 7980TIP3    H145355   3.167   0.253  16.380  2.3242  1.6821 -0.3837
 7980TIP3    H245356   3.157   0.187  16.515 -0.6252 -1.4238 -1.9657
 7981TIP3   OH245357   0.522   1.479   3.751  0.3608  0.0954  0.3298
 7981TIP3    H145358   0.600   1.504   3.702 -0.8240 -0.0765 -1.7568
 7981TIP3    H245359   0.451   1.525   3.708 -0.8538 -0.6948  1.4144
 7982TIP3   OH245360   0.100   2.274  16.571 -0.4912 -0.0918 -0.1999
 7982TIP3    H145361   0.089   2.229  16.488  0.0524 -0.8111  0.1023
 7982TIP3    H245362   0.013   2.309  16.592 -0.5570  0.4053 -1.2241
 7983TIP3   OH245363   5.297   4.465  17.298 -0.4412  0.5402 -0.0505
 7983TIP3    H145364   5.383   4.500  17.320 -1.1720  1.8317  0.8862
 7983TIP3    H245365   5.235   4.524  17.341 -1.8065 -0.2614 -0.8368
 7984TIP3   OH245366   5.548   3.901  17.007 -0.2614 -0.3376 -0.2349
 7984TIP3    H145367   5.613   3.846  16.962 -0.7485  0.3964 -1.8869
 7984TIP3    H245368   5.554   3.873  17.099  0.3450 -2.3092 -0.8106
 7985TIP3   OH245369   1.411   4.472  15.867 -0.3309  0.2134 -0.0303
 7985TIP3    H145370   1.395   4.524  15.946 -2.5789  1.0700 -0.9760
 7985TIP3    H245371   1.376   4.525  15.796 -0.4013 -1.5132 -1.3393
 7986TIP3   OH245372   4.684   0.209  12.997  0.2501 -0.2846 -0.5056
 7986TIP3    H145373   4.755   0.186  13.057 -3.1062 -2.6822  2.9982
 7986TIP3    H245374   4.659   0.126  12.957 -0.4789  0.5516 -1.8381
 7987TIP3   OH245375   6.316   1.702   5.610 -0.1764 -0.1615  0.3492
 7987TIP3    H145376   6.352   1.790   5.619  0.4916 -0.1930 -1.6722
 7987TIP3    H245377   6.245   1.699   5.675  0.5597  1.4224  1.2929
 7988TIP3   OH245378   6.246   2.881  16.428  0.3459 -0.0275  0.7874
 7988TIP3    H145379   6.187   2.810  16.454 -0.5649  0.3538 -0.1641
 7988TIP3    H245380   6.279   2.915  16.511 -0.4743 -0.5164  1.3380
 7989TIP3   OH245381   0.731   0.537   5.467  0.4745 -0.3257  0.0534
 7989TIP3    H145382   0.761   0.599   5.400  1.6456 -0.2161  0.6599
 7989TIP3    H245383   0.714   0.456   5.419 -3.5760  1.0390 -1.2331
 7990TIP3   OH245384   5.993   1.912   1.148  0.0759  0.3335  0.2766
 7990TIP3    H145385   5.938   1.990   1.148 -0.5346 -0.0743 -0.6505
 7990TIP3    H245386   5.984   1.876   1.060  1.0856 -0.2745  0.3961
 7991TIP3   OH245387   0.952   0.658  11.971 -0.6068  0.1880  0.7665
 7991TIP3    H145388   0.905   0.726  12.020 -1.1389 -0.3234  0.9604
 7991TIP3    H245389   0.942   0.579  12.023 -1.3532 -0.4159 -0.2779
 7992TIP3   OH245390   4.713   5.369   3.591  0.8447 -0.1326 -0.2121
 7992TIP3    H145391   4.650   5.424   3.544 -0.3063 -0.8290  0.4735
 7992TIP3    H245392   4.726   5.415   3.674  0.0752 -0.7403  0.2584
 7993TIP3   OH245393   3.785   0.538   6.769 -0.2980 -0.1133  0.0256
 7993TIP3    H145394   3.775   0.447   6.795  1.1364 -0.3041 -0.0044
 7993TIP3    H245395   3.771   0.588   6.850 -2.3092 -0.2274 -0.1875
 7994TIP3   OH245396   4.845   0.703  15.370 -0.0805  0.5230 -0.5190
 7994TIP3    H145397   4.821   0.622  15.325  0.6272  0.5107 -0.8887
 7994TIP3    H245398   4.915   0.740  15.316 -0.1625  1.2022 -0.1603
 7995TIP3   OH245399   4.548   1.536  14.859 -0.7255 -0.2843 -0.2285
 7995TIP3    H145400   4.535   1.455  14.809 -0.7705  0.5922 -1.7003
 7995TIP3    H245401   4.485   1.597  14.822 -0.7175  0.4271  0.8971
 7996TIP3   OH245402   2.623   1.933  13.028  0.0022  0.5435  0.2659
 7996TIP3    H145403   2.620   1.974  13.114  0.6304 -1.8886  1.5584
 7996TIP3    H245404   2.676   1.992  12.975  0.7551  1.4683  1.9619
 7997TIP3   OH245405   4.710   3.464   5.477  0.2826 -0.3101 -0.1209
 7997TIP3    H145406   4.796   3.424   5.468  0.3595 -0.9331  2.4720
 7997TIP3    H245407   4.727   3.558   5.482  1.0708 -0.5218  2.1215
 7998TIP3   OH245408   1.637   2.844  14.428 -0.0584  0.5198 -0.0535
 7998TIP3    H145409   1.699   2.915  14.444 -2.9191  3.8792 -2.2959
 7998TIP3    H245410   1.589   2.835  14.510  1.6388 -0.4471  0.9125
 7999TIP3   OH245411   4.046   2.629   6.266 -0.1927 -0.0192  0.2593
 7999TIP3    H145412   4.083   2.627   6.354 -1.1640 -3.1729  0.7137
 7999TIP3    H245413   3.952   2.626   6.279 -0.4240  1.0553 -0.9343
 8000TIP3   OH245414   4.540   0.383   1.911 -0.3905  0.0029 -0.0988
 8000TIP3    H145415   4.490   0.441   1.853 -0.7100  0.9489  1.0815
 8000TIP3    H245416   4.630   0.413   1.904 -0.0518 -1.2494 -1.6863
 8001TIP3   OH245417   5.411   1.459   3.047 -0.4104 -0.3770 -0.0049
 8001TIP3    H145418   5.381   1.369   3.050  0.0176 -0.6424 -1.9161
 8001TIP3    H245419   5.501   1.453   3.015 -1.0115  0.7741 -2.1274
 8002TIP3   OH245420   5.007   4.211  12.447  0.8827 -0.2592 -0.0777
 8002TIP3    H145421   5.068   4.162  12.391  1.5844  0.4805  0.0259
 8002TIP3    H245422   5.050   4.214  12.532  1.5666  1.8065 -0.4487
 8003TIP3   OH245423   5.413   0.172  13.026 -0.1933 -0.6622 -0.0888
 8003TIP3    H145424   5.472   0.107  12.989  1.9434  1.1922 -0.1671
 8003TIP3    H245425   5.360   0.201  12.952  0.1786 -0.9326 -0.4656
 8004TIP3   OH245426   1.215   4.152   5.508 -0.7029 -0.1195  0.2990
 8004TIP3    H145427   1.154   4.195   5.568 -0.6104 -0.3645  0.5721
 8004TIP3    H245428   1.161   4.123   5.435 -0.7954  0.2998  0.1969
 8005TIP3   OH245429   2.150   3.172   2.227  0.6335 -0.0057  0.3985
 8005TIP3    H145430   2.212   3.225   2.176  0.1319  0.6690  0.4729
 8005TIP3    H245431   2.157   3.205   2.316  0.5984 -0.3286  0.5210
 8006TIP3   OH245432   0.756   3.573   4.042  0.2341  0.0295  0.0250
 8006TIP3    H145433   0.819   3.609   3.979 -0.1738  1.3676  0.3466
 8006TIP3    H245434   0.674   3.567   3.992  0.2617 -0.3183  0.0196
 8007TIP3   OH245435   3.919   1.229  14.304  0.1659 -0.3311  0.4971
 8007TIP3    H145436   3.854   1.188  14.361 -1.9526  2.0347 -0.0463
 8007TIP3    H245437   3.873   1.303  14.264  2.6230  0.2518 -1.5286
 8008TIP3   OH245438   4.140   5.514   4.886 -0.7628  0.0575  0.3525
 8008TIP3    H145439   4.070   5.569   4.920 -0.2584  1.7927 -1.2034
 8008TIP3    H245440   4.214   5.574   4.875 -0.6219 -0.4859 -2.7969
 8009TIP3   OH245441   2.037   5.688  15.937 -0.0092  0.1746 -1.1384
 8009TIP3    H145442   2.029   5.689  16.033 -1.5419 -2.0228 -1.1522
 8009TIP3    H245443   1.990   5.609  15.911 -0.0333  0.9737 -3.7636
 8010TIP3   OH245444   5.789   0.434  12.892  0.1260  0.5395  0.4404
 8010TIP3    H145445   5.697   0.426  12.865  0.2341  1.4546 -0.2332
 8010TIP3    H245446   5.804   0.528  12.899  0.9595  0.3920  0.7745
 8011TIP3   OH245447   4.402   3.658  12.372  0.3360  0.4425  0.0008
 8011TIP3    H145448   4.460   3.650  12.448  1.2352  3.0543 -0.3246
 8011TIP3    H245449   4.461   3.652  12.296 -0.3395 -0.4581 -0.4839
 8012TIP3   OH245450   1.363   4.439   5.778 -0.6761 -0.7217  0.4404
 8012TIP3    H145451   1.313   4.358   5.788 -0.5598 -0.9504 -0.7240
 8012TIP3    H245452   1.391   4.461   5.867 -1.9327 -1.1701  0.9737
 8013TIP3   OH245453   0.459   2.476  13.000  0.1405  0.0687  0.5351
 8013TIP3    H145454   0.518   2.470  12.926  0.1928  0.9925  0.4959
 8013TIP3    H245455   0.516   2.483  13.077  0.2224 -4.1331  1.1116
 8014TIP3   OH245456   3.511   3.392  13.089 -0.3054 -0.0030  0.1973
 8014TIP3    H145457   3.449   3.412  13.159 -1.6710  0.9611 -1.2292
 8014TIP3    H245458   3.512   3.296  13.085 -1.3649 -0.0437  0.5480
 8015TIP3   OH245459   4.702   3.504   5.102  0.2742 -0.0819 -0.1427
 8015TIP3    H145460   4.706   3.416   5.140  1.0699  0.3697  0.8566
 8015TIP3    H245461   4.640   3.551   5.157 -0.4731 -0.1220 -0.9316
 8016TIP3   OH245462   2.157   3.510  13.979 -0.7738  0.3834 -0.0451
 8016TIP3    H145463   2.211   3.564  13.922 -1.2869  1.1925  0.2193
 8016TIP3    H245464   2.177   3.540  14.067  0.0994 -0.9424  0.2300
 8017TIP3   OH245465   1.900   2.618   5.149  0.1137 -0.4590 -0.0544
 8017TIP3    H145466   1.855   2.697   5.119  0.4707 -0.0725  0.4127
 8017TIP3    H245467   1.834   2.550   5.144  0.1984 -0.4700 -1.9091
 8018TIP3   OH245468   3.500   0.001   5.160 -0.0521 -0.6831  0.7456
 8018TIP3    H145469   3.538  -0.037   5.239  0.5671  0.1616  0.8717
 8018TIP3    H245470   3.560   0.073   5.137  0.6524 -1.8554 -1.3524
 8019TIP3   OH245471   4.002   2.478  13.552 -0.4978  0.5280 -0.5037
 8019TIP3    H145472   4.084   2.515  13.584 -1.1368  1.5884 -0.0495
 8019TIP3    H245473   3.943   2.483  13.627 -0.7690 -0.9622 -0.5774
 8020TIP3   OH245474   3.948   4.879   3.708  0.4801 -0.7427 -0.7351
 8020TIP3    H145475   3.886   4.838   3.769 -0.9481 -1.0861 -2.3501
 8020TIP3    H245476   4.021   4.906   3.764 -0.5745 -1.3929  1.0674
 8021TIP3   OH245477   3.139   0.941   6.232 -0.4035 -0.0034 -0.0721
 8021TIP3    H145478   3.190   1.004   6.283  2.0106 -1.8934  0.0538
 8021TIP3    H245479   3.048   0.964   6.249  0.3440  1.6935  2.1601
 8022TIP3   OH245480   4.272   5.465  16.581 -0.1148  0.1315  0.1463
 8022TIP3    H145481   4.234   5.551  16.595 -0.3283 -0.0545  0.7541
 8022TIP3    H245482   4.222   5.427  16.509 -0.9238 -0.0181  0.7785
 8023TIP3   OH245483   2.472   2.967  16.962  0.5238 -0.1862  0.1867
 8023TIP3    H145484   2.507   2.884  16.931 -1.6948 -1.9045  1.9939
 8023TIP3    H245485   2.493   2.970  17.055 -1.4907  0.0737  0.6847
 8024TIP3   OH245486   5.319   6.416  16.988 -0.1984  0.4617  0.5509
 8024TIP3    H145487   5.226   6.411  16.969 -0.7384  0.3309  2.9783
 8024TIP3    H245488   5.336   6.508  17.006 -0.0574  0.3412  1.0417
 8025TIP3   OH245489   5.582   0.307  12.687 -0.0695  0.2504 -0.1781
 8025TIP3    H145490   5.504   0.252  12.684  1.4340 -2.0424  0.1543
 8025TIP3    H245491   5.560   0.382  12.632 -2.3078 -0.5513 -0.5014
 8026TIP3   OH245492   2.122   5.235  11.618 -0.2795 -0.1355 -0.1984
 8026TIP3    H145493   2.187   5.205  11.555 -1.1174  2.7167 -2.6549
 8026TIP3    H245494   2.041   5.243  11.567 -0.7793  3.2029  0.8527
 8027TIP3   OH245495   0.831   3.958   4.247 -0.0109  0.3682  0.3337
 8027TIP3    H145496   0.811   4.040   4.292 -1.0531 -0.1418  0.8478
 8027TIP3    H245497   0.825   3.892   4.316  2.0597 -0.0093  0.1876
 8028TIP3   OH245498   4.422   5.614  15.730  0.2061 -0.6988  0.3003
 8028TIP3    H145499   4.361   5.568  15.788 -0.0645  0.9343  1.3895
 8028TIP3    H245500   4.392   5.705  15.731  1.4775 -0.2400 -0.7345
 8029TIP3   OH245501   1.349   2.325   4.520  0.2071 -0.0159  0.3689
 8029TIP3    H145502   1.269   2.357   4.561 -0.1483 -0.8008  0.2966
 8029TIP3    H245503   1.378   2.397   4.464 -1.4219 -0.3697 -0.9865
 8030TIP3   OH245504   3.889   0.463   6.308  0.6386  0.1934 -0.6175
 8030TIP3    H145505   3.830   0.538   6.317 -0.3096 -0.5379 -0.5150
 8030TIP3    H245506   3.952   0.474   6.379  1.0537  1.3472 -1.1356
 8031TIP3   OH245507   4.635   2.178   2.242 -0.2076  0.4903 -0.1363
 8031TIP3    H145508   4.664   2.191   2.332  1.9320 -0.1698 -0.6552
 8031TIP3    H245509   4.656   2.086   2.223 -0.9419  0.5218 -1.2073
 8032TIP3   OH245510   6.120   3.448  16.077  0.7115  0.2604 -0.4598
 8032TIP3    H145511   6.096   3.540  16.089 -0.1061 -0.0793  0.7158
 8032TIP3    H245512   6.102   3.430  15.985  1.4207  1.4227 -0.8415
 8033TIP3   OH245513   5.926   2.486   4.080  0.2128  0.0479 -0.0950
 8033TIP3    H145514   5.946   2.506   3.989  0.3788  1.1789  0.1762
 8033TIP3    H245515   5.865   2.555   4.108 -0.9380 -1.0792  0.2558
 8034TIP3   OH245516   0.209   2.574   5.125 -0.5354  0.2813  0.0328
 8034TIP3    H145517   0.205   2.669   5.141  0.0002  0.0708  1.5431
 8034TIP3    H245518   0.302   2.553   5.133 -0.8111 -0.5947  1.1645
 8035TIP3   OH245519   1.453   5.278   3.750  0.0277 -0.4781  0.0055
 8035TIP3    H145520   1.410   5.200   3.785 -0.3236 -0.1563  0.3083
 8035TIP3    H245521   1.546   5.265   3.770 -0.0870 -0.6053  0.4712
 8036TIP3   OH245522   1.355   5.753   4.663 -0.2797 -0.0054 -0.2652
 8036TIP3    H145523   1.426   5.707   4.618 -1.2640 -0.3143 -1.5741
 8036TIP3    H245524   1.288   5.686   4.677 -1.2511  0.7332 -1.1530
 8037TIP3   OH245525   0.310   0.250  17.294 -0.3992  0.4892  0.2021
 8037TIP3    H145526   0.366   0.173  17.289 -1.9300 -0.6217 -0.8442
 8037TIP3    H245527   0.293   0.262  17.387 -0.3532 -0.6143  0.3702
 8038TIP3   OH245528   2.878   6.005   5.868  0.1340  0.3374  0.3450
 8038TIP3    H145529   2.810   6.022   5.933 -1.2809 -2.4960 -0.2578
 8038TIP3    H245530   2.846   6.048   5.788 -0.0759  0.4408  0.4850
 8039TIP3   OH245531   0.316   2.704  11.513 -0.2507  0.1429  0.3154
 8039TIP3    H145532   0.323   2.678  11.606  0.2598  0.5319  0.3930
 8039TIP3    H245533   0.396   2.753  11.497 -0.5060  0.3756 -0.2440
 8040TIP3   OH245534   5.160   2.603  15.259  0.5289  0.0644 -0.3972
 8040TIP3    H145535   5.197   2.526  15.302 -0.2185  0.7585  1.6002
 8040TIP3    H245536   5.083   2.626  15.311  0.0582  1.4833 -1.6286
 8041TIP3   OH245537   4.426   6.049  16.873  0.0399 -0.6577 -0.4890
 8041TIP3    H145538   4.351   6.058  16.930  0.0790 -1.5127 -0.2853
 8041TIP3    H245539   4.389   6.038  16.785 -0.0327  0.1434 -0.5628
 8042TIP3   OH245540   5.369   5.340  13.876 -0.4337  0.3412 -0.2489
 8042TIP3    H145541   5.421   5.333  13.957  0.7204 -0.1221 -1.0006
 8042TIP3    H245542   5.329   5.254  13.865  1.8464 -0.6351 -1.7076
 8043TIP3   OH245543   3.672   5.725  16.008 -0.5937  0.3843  0.2959
 8043TIP3    H145544   3.682   5.799  15.948 -1.0744  0.7600  0.6628
 8043TIP3    H245545   3.711   5.651  15.963 -0.9213  0.6671 -0.4607
 8044TIP3   OH245546   4.434   5.589   5.132  0.3639  0.5177  0.0321
 8044TIP3    H145547   4.462   5.611   5.221 -2.1755 -0.2911  1.1111
 8044TIP3    H245548   4.425   5.673   5.088  1.1520  0.9549  0.6705
 8045TIP3   OH245549   1.658   3.574  13.835 -0.2494  0.3605 -0.0218
 8045TIP3    H145550   1.745   3.600  13.862 -0.0933 -0.6675  0.5100
 8045TIP3    H245551   1.672   3.506  13.769 -0.6540  0.9079 -0.6972
 8046TIP3   OH245552   2.002   5.344  13.735  0.3199  0.6494  0.6577
 8046TIP3    H145553   2.092   5.311  13.734  0.0449 -0.1433  1.0217
 8046TIP3    H245554   1.948   5.269  13.710 -0.1217  1.6122 -1.4867
 8047TIP3   OH245555   6.614   0.057  13.058 -0.3127  0.2886  0.5971
 8047TIP3    H145556   6.600   0.069  12.964 -0.8442 -0.0997  0.6191
 8047TIP3    H245557   6.640  -0.035  13.067  0.3726  0.4910  0.7678
 8048TIP3   OH245558   1.165   5.796   2.895 -0.4308  0.1735  0.1515
 8048TIP3    H145559   1.077   5.783   2.861 -0.4635 -1.1429  0.7033
 8048TIP3    H245560   1.153   5.821   2.987 -0.2257 -0.1039  0.2553
 8049TIP3   OH245561   1.906   6.607  15.171  0.0012 -0.0768 -0.1019
 8049TIP3    H145562   1.977   6.670  15.176  0.5002 -0.5504 -0.9479
 8049TIP3    H245563   1.843   6.636  15.236 -0.3601  2.0401 -1.3082
 8050TIP3   OH245564   6.742   2.784  13.600  0.0504  0.1097  0.1657
 8050TIP3    H145565   6.657   2.745  13.583  0.3462 -0.5484  0.1657
 8050TIP3    H245566   6.805   2.722  13.562  0.4828  1.2356 -1.0597
 8051TIP3   OH245567   4.722   0.589  13.347  0.0335 -0.6233 -0.4373
 8051TIP3    H145568   4.631   0.618  13.342 -0.1613 -1.0034  0.6518
 8051TIP3    H245569   4.727   0.541  13.430  1.7310  1.1636  0.5662
 8052TIP3   OH245570   2.592   2.007   0.989  0.0480  0.1876 -0.4327
 8052TIP3    H145571   2.551   1.973   0.909 -0.7043  0.7752 -0.2994
 8052TIP3    H245572   2.552   2.093   1.002  0.1569  0.0915  0.5805
 8053TIP3   OH245573   1.998   5.420   0.382  0.2861  0.0848 -0.0489
 8053TIP3    H145574   2.024   5.336   0.343  0.6106 -0.1548  0.6513
 8053TIP3    H245575   2.080   5.458   0.412  0.0467  0.2516  0.4019
 8054TIP3   OH245576   3.738   2.610   3.673  0.3058 -0.2159 -0.1187
 8054TIP3    H145577   3.747   2.515   3.664 -0.9930 -0.4257  0.5240
 8054TIP3    H245578   3.825   2.645   3.655  1.1334 -1.6387  0.9522
 8055TIP3   OH245579   1.084   5.521  10.918  0.7827 -0.0855  0.3531
 8055TIP3    H145580   1.156   5.583  10.928  3.3872 -2.5894 -1.5733
 8055TIP3    H245581   1.115   5.441  10.959 -1.1350 -1.1346 -0.1300
 8056TIP3   OH245582   3.826   5.050  13.199 -0.0932  0.2537  0.0439
 8056TIP3    H145583   3.921   5.046  13.188 -0.2506 -2.1101 -1.0368
 8056TIP3    H245584   3.811   5.020  13.289  0.2028  1.6670  0.5882
 8057TIP3   OH245585   1.002   0.778  16.645  0.0129 -0.5211 -0.3317
 8057TIP3    H145586   0.919   0.823  16.636 -1.1616 -2.3832  0.5480
 8057TIP3    H245587   0.995   0.729  16.727  1.7340 -1.2007 -0.5294
 8058TIP3   OH245588   6.143   2.214   5.064 -0.3793  0.0677 -0.7592
 8058TIP3    H145589   6.085   2.282   5.029  0.2937  1.6333  0.9630
 8058TIP3    H245590   6.153   2.237   5.157  1.2882 -1.3818 -0.5295
 8059TIP3   OH245591   0.092   0.343   2.623 -0.0539  0.5714  0.4056
 8059TIP3    H145592   0.073   0.279   2.554 -2.3846 -0.5073  1.9000
 8059TIP3    H245593   0.135   0.415   2.578  0.5984 -1.0490 -1.7571
 8060TIP3   OH245594   2.043   0.739  15.723 -0.8429 -0.0233  0.3252
 8060TIP3    H145595   1.975   0.805  15.734 -2.2351 -1.5391  1.2122
 8060TIP3    H245596   2.002   0.669  15.671  1.1034  0.4531 -2.0427
 8061TIP3   OH245597   3.716   4.115  15.516 -0.7551 -0.2665  0.1892
 8061TIP3    H145598   3.800   4.126  15.561 -0.4302 -0.4162 -0.3822
 8061TIP3    H245599   3.733   4.142  15.426 -1.7663  1.4848  0.4668
 8062TIP3   OH245600   5.706   0.954   0.070  0.5036  0.1810  0.3908
 8062TIP3    H145601   5.631   0.985   0.121 -0.1631  3.0243 -2.0550
 8062TIP3    H245602   5.670   0.890   0.010 -0.1121  1.7345 -0.9587
 8063TIP3   OH245603   5.588   3.038  15.364 -0.4727  0.8229 -0.1671
 8063TIP3    H145604   5.545   2.983  15.430 -0.8003  1.5036  0.1929
 8063TIP3    H245605   5.522   3.103  15.340 -0.2408  0.7838 -0.9240
 8064TIP3   OH245606   4.097   4.811  12.302 -0.0706  0.2459  0.3655
 8064TIP3    H145607   4.161   4.785  12.236 -0.4048 -1.1077  0.5441
 8064TIP3    H245608   4.059   4.892  12.269 -1.9312 -1.5728 -2.3247
 8065TIP3   OH245609   1.780   2.296   0.312  0.3667  0.6925 -0.3559
 8065TIP3    H145610   1.701   2.273   0.263  0.8457 -1.9973 -0.0135
 8065TIP3    H245611   1.834   2.346   0.251  0.3898 -1.4526 -2.1710
 8066TIP3   OH245612   1.072   2.780  17.312  0.3383  0.0047 -0.7368
 8066TIP3    H145613   1.116   2.779  17.397  0.0068  1.5909 -0.5207
 8066TIP3    H245614   1.141   2.756  17.249  0.4990 -1.5542 -0.0213
 8067TIP3   OH245615   5.637   2.922   1.661 -0.3608 -0.1401  0.0121
 8067TIP3    H145616   5.651   2.866   1.737 -0.7217 -0.4288 -0.1263
 8067TIP3    H245617   5.673   3.007   1.686  1.1277 -0.6892 -0.1464
 8068TIP3   OH245618   5.804   1.553   5.586 -0.1951  0.5171  0.1562
 8068TIP3    H145619   5.759   1.635   5.606  0.5839  0.7252  1.0953
 8068TIP3    H245620   5.837   1.522   5.670  1.0171  0.1206 -0.4410
 8069TIP3   OH245621   5.256   1.275   1.603  0.1327 -0.2594  0.9086
 8069TIP3    H145622   5.320   1.238   1.664  2.0331  1.4235  0.0559
 8069TIP3    H245623   5.262   1.369   1.617  1.2731  0.2757 -2.3460
 8070TIP3   OH245624   3.123   3.563   1.922  0.2029  0.3864 -0.1790
 8070TIP3    H145625   3.201   3.552   1.975 -0.8388 -0.3941  1.2648
 8070TIP3    H245626   3.075   3.481   1.931 -2.7034  2.1144  2.2609
 8071TIP3   OH245627   2.588   5.333   1.208 -0.3542 -0.4139  0.8496
 8071TIP3    H145628   2.681   5.327   1.232  0.4074 -0.5836 -1.8374
 8071TIP3    H245629   2.574   5.425   1.189  0.4649 -0.8789 -2.6687
 8072TIP3   OH245630   5.060   0.028   3.709  0.0401  0.0666  0.4026
 8072TIP3    H145631   5.012   0.063   3.784 -3.2897 -1.3229 -0.8834
 8072TIP3    H245632   5.067  -0.066   3.727 -0.8052 -0.2837 -0.9863
 8073TIP3   OH245633   0.080   1.369   4.485 -0.0865  0.2385  0.3711
 8073TIP3    H145634   0.076   1.465   4.488  0.3127  0.2786 -0.2308
 8073TIP3    H245635   0.059   1.347   4.394 -0.7536 -0.2811  0.6434
 8074TIP3   OH245636   5.182   5.741   3.405 -0.3385 -0.0792 -0.1143
 8074TIP3    H145637   5.090   5.723   3.427 -0.9879  1.8083 -1.0223
 8074TIP3    H245638   5.206   5.673   3.342 -0.5120 -1.6252  1.3939
 8075TIP3   OH245639   4.999   3.130  17.124 -0.2758 -0.5408 -0.6883
 8075TIP3    H145640   4.951   3.086  17.194  1.0740 -1.2153 -0.1469
 8075TIP3    H245641   5.016   3.062  17.059  0.8161 -0.5736 -0.3916
 8076TIP3   OH245642   5.828   4.588  11.351 -0.3105  0.6093 -0.3410
 8076TIP3    H145643   5.821   4.678  11.319 -0.2834  0.9742  0.6269
 8076TIP3    H245644   5.804   4.594  11.444 -0.9842 -0.4995 -0.4220
 8077TIP3   OH245645   6.314   6.345  13.034 -0.1558 -0.6039 -0.4976
 8077TIP3    H145646   6.275   6.321  12.950  1.1704  0.6840 -1.5485
 8077TIP3    H245647   6.382   6.409  13.011  2.9288 -3.0346  1.1318
 8078TIP3   OH245648   6.729   6.299  14.966  0.0550 -0.6265  0.3467
 8078TIP3    H145649   6.734   6.222  15.022 -0.7198 -1.0714 -0.1925
 8078TIP3    H245650   6.722   6.373  15.028 -2.0666 -1.1927  0.8517
 8079TIP3   OH245651   3.078   0.233  15.993 -0.4627 -0.3087 -0.2209
 8079TIP3    H145652   3.108   0.146  16.020  0.0500 -1.0308 -2.7808
 8079TIP3    H245653   3.060   0.279  16.075 -0.0855 -2.5794  1.2353
 8080TIP3   OH245654   4.906   0.226   6.791  0.0832 -0.2293 -0.2253
 8080TIP3    H145655   4.906   0.251   6.698  1.6093 -0.1653 -0.2271
 8080TIP3    H245656   4.884   0.133   6.791 -2.0166  0.2119 -0.4750
 8081TIP3   OH245657   5.153   2.848  17.054  0.9750 -0.0891 -0.3253
 8081TIP3    H145658   5.075   2.853  17.109  1.2253  2.4129 -0.0927
 8081TIP3    H245659   5.146   2.763  17.010 -1.5326 -0.2141  0.1723
 8082TIP3   OH245660   6.655   3.694  15.250 -0.6756  0.0722 -0.3201
 8082TIP3    H145661   6.687   3.726  15.166  1.8114 -0.2012  0.4476
 8082TIP3    H245662   6.695   3.607  15.260 -1.3682 -0.1396  0.8906
 8083TIP3   OH245663   4.241   3.743  13.435  0.3051  0.1860  0.6560
 8083TIP3    H145664   4.234   3.795  13.515  0.6296 -0.7488  1.3162
 8083TIP3    H245665   4.160   3.762  13.387  0.1068  0.7643  1.1987
 8084TIP3   OH245666   0.217   1.544   5.925 -0.7039  0.2512  0.8189
 8084TIP3    H145667   0.285   1.561   5.990  2.2036 -0.6792 -1.7476
 8084TIP3    H245668   0.248   1.587   5.846 -2.1578 -1.7568 -0.9544
 8085TIP3   OH245669   3.158   2.548   0.584  0.0879 -0.2569  0.6794
 8085TIP3    H145670   3.102   2.623   0.603  0.3655  0.2751 -0.4620
 8085TIP3    H245671   3.247   2.582   0.591  0.2209 -0.5407  0.4043
 8086TIP3   OH245672   2.657   0.782  15.125 -0.4911 -0.3503 -0.3213
 8086TIP3    H145673   2.703   0.704  15.157 -0.5571  0.3924  1.7018
 8086TIP3    H245674   2.719   0.853  15.136 -1.4605  0.3693  0.7265
 8087TIP3   OH245675   3.988   1.160   0.400 -0.1635 -0.1921  0.1663
 8087TIP3    H145676   4.057   1.171   0.466 -0.1582  0.3755  0.0742
 8087TIP3    H245677   3.943   1.245   0.399  0.1850 -0.0111 -0.9540
 8088TIP3   OH245678   3.095   6.744  13.243 -0.1221  0.3120 -0.4266
 8088TIP3    H145679   3.184   6.752  13.276 -0.8461  0.0085  1.7554
 8088TIP3    H245680   3.078   6.650  13.241 -1.2038  0.4165  1.6461
 8089TIP3   OH245681   0.195   0.463   3.051 -0.1630  0.1507 -0.0235
 8089TIP3    H145682   0.189   0.495   3.140 -0.1478  1.5224 -0.4890
 8089TIP3    H245683   0.287   0.438   3.041  0.0447  0.8541  0.0745
 8090TIP3   OH245684   3.184   0.936   4.824 -0.7231 -0.1840 -0.3558
 8090TIP3    H145685   3.183   0.924   4.729  1.1198  0.3519 -0.4973
 8090TIP3    H245686   3.135   0.861   4.859  0.5084 -1.6663 -1.6539
 8091TIP3   OH245687   0.692   4.784   4.364  0.4510 -0.1111  0.2565
 8091TIP3    H145688   0.756   4.718   4.338  0.3672  0.3697 -1.2277
 8091TIP3    H245689   0.687   4.775   4.460  0.7497 -1.9517  0.1447
 8092TIP3   OH245690   2.361   2.649  16.727 -0.4233 -0.4682  0.2027
 8092TIP3    H145691   2.306   2.624  16.653  0.1545  0.9052 -0.7356
 8092TIP3    H245692   2.320   2.728  16.762  0.5984  0.2418 -0.1485
 8093TIP3   OH245693   1.999   0.860  14.894  0.1848 -0.4755  0.0614
 8093TIP3    H145694   2.041   0.892  14.974  1.9445 -1.0221 -0.6094
 8093TIP3    H245695   1.984   0.767  14.909 -1.6576 -0.1288  0.6263
 8094TIP3   OH245696   1.457   0.116   4.909  0.3126  0.3785  0.5418
 8094TIP3    H145697   1.456   0.098   5.003 -1.4419  2.6432  1.0607
 8094TIP3    H245698   1.441   0.210   4.903  0.6643  0.3368 -2.0372
 8095TIP3   OH245699   5.516   5.115   0.969 -0.3655  0.2468  0.2440
 8095TIP3    H145700   5.462   5.044   0.935  0.9228 -1.3619  1.4170
 8095TIP3    H245701   5.545   5.162   0.891  0.4728 -1.8082 -0.7608
 8096TIP3   OH245702   1.113   0.895  14.421 -0.6000 -0.5517  0.5820
 8096TIP3    H145703   1.153   0.979  14.400 -0.3719 -0.9198 -0.5204
 8096TIP3    H245704   1.068   0.910  14.505  0.7622  0.2254  1.2114
 8097TIP3   OH245705   4.914   0.830   1.349 -0.1684 -0.2529 -0.0654
 8097TIP3    H145706   4.988   0.861   1.403 -1.8165  1.2902  1.4414
 8097TIP3    H245707   4.945   0.747   1.312  2.1758  0.1407  0.8028
 8098TIP3   OH245708   0.753   5.987   4.991 -0.2979  0.3495 -0.4839
 8098TIP3    H145709   0.799   5.992   4.907  0.5404 -0.2722 -0.0885
 8098TIP3    H245710   0.674   6.039   4.979  0.5844  1.5998 -1.1467
 8099TIP3   OH245711   3.310   3.589   4.555 -0.2552  0.3599  0.0857
 8099TIP3    H145712   3.402   3.567   4.537 -0.2030  0.1590  0.5870
 8099TIP3    H245713   3.267   3.505   4.570 -0.4151  0.4827  0.3265
 8100TIP3   OH245714   3.209   0.801   1.515 -0.4019  0.2255 -0.1899
 8100TIP3    H145715   3.180   0.863   1.582  0.5933 -0.6805  1.1403
 8100TIP3    H245716   3.139   0.735   1.511 -0.3026  0.0890  0.2399
 8101TIP3   OH245717   4.870   3.337   5.297  0.6682 -0.1364  0.6957
 8101TIP3    H145718   4.926   3.260   5.311 -0.1544 -0.7882  0.5376
 8101TIP3    H245719   4.927   3.401   5.255  0.9969 -1.2406 -0.6533
 8102TIP3   OH245720   1.208   2.371  14.039  0.1236 -0.0117 -0.6624
 8102TIP3    H145721   1.200   2.288  13.993  0.7893 -0.3387 -0.2021
 8102TIP3    H245722   1.275   2.356  14.106  0.0027  0.7890 -0.3414
 8103TIP3   OH245723   1.153   3.187   5.947 -0.5790 -0.4762  0.7165
 8103TIP3    H145724   1.168   3.110   6.001 -0.6595  0.7409  2.5584
 8103TIP3    H245725   1.232   3.240   5.960 -0.3394 -0.3935 -0.8533
 8104TIP3   OH245726   4.153   4.197  16.232 -0.4937  0.0285  0.1772
 8104TIP3    H145727   4.083   4.234  16.179 -0.8234 -0.1653  0.4757
 8104TIP3    H245728   4.233   4.236  16.197 -0.5069 -1.4710 -1.7152
 8105TIP3   OH245729   2.799   2.778  15.357 -0.1864 -0.5629  0.2241
 8105TIP3    H145730   2.719   2.741  15.394  0.1927 -0.3433  1.2825
 8105TIP3    H245731   2.772   2.863  15.323 -0.3742 -0.4427  0.6760
 8106TIP3   OH245732   4.883   0.067   3.207  0.1687  0.1959 -0.1416
 8106TIP3    H145733   4.919   0.075   3.296 -2.2261 -1.0016  1.0458
 8106TIP3    H245734   4.847  -0.021   3.204  0.3733  0.1395 -2.4371
 8107TIP3   OH245735   3.198   6.528  14.162  0.1162  0.1643  0.2427
 8107TIP3    H145736   3.270   6.466  14.167  1.4181  1.4813 -1.1496
 8107TIP3    H245737   3.144   6.497  14.090 -0.0384 -0.1509  0.4947
 8108TIP3   OH245738   5.697   0.840   0.957  0.2906  0.4170 -0.1686
 8108TIP3    H145739   5.709   0.827   1.051  0.8905  0.4311 -0.2381
 8108TIP3    H245740   5.655   0.925   0.949 -0.8803 -0.1157  0.1441
 8109TIP3   OH245741   3.566   5.114  15.868  0.1864  0.2448 -0.2953
 8109TIP3    H145742   3.639   5.053  15.880 -0.0264  0.1295  0.4889
 8109TIP3    H245743   3.515   5.106  15.949  0.0447  1.3192 -0.2593
 8110TIP3   OH245744   3.227   1.219  11.797 -0.3847 -0.3352 -0.0037
 8110TIP3    H145745   3.279   1.235  11.718 -0.2185  0.0531  0.1836
 8110TIP3    H245746   3.227   1.303  11.843  0.3596 -0.8262  0.9139
 8111TIP3   OH245747   3.177   6.646  11.298 -0.0710  0.2073  0.6412
 8111TIP3    H145748   3.090   6.661  11.335  0.1949 -0.1101  1.4110
 8111TIP3    H245749   3.217   6.733  11.297 -0.9170  0.6133 -1.1121
 8112TIP3   OH245750   2.017   2.002  16.931 -0.2468  0.3273  0.0673
 8112TIP3    H145751   2.040   2.094  16.916 -0.4236  0.6206  1.4111
 8112TIP3    H245752   2.061   1.954  16.862  0.0826  1.3997 -0.4907
 8113TIP3   OH245753   1.983   1.802  16.065  0.3691 -0.0519  0.1012
 8113TIP3    H145754   2.052   1.737  16.072  1.2081  0.7461 -0.6127
 8113TIP3    H245755   2.028   1.885  16.058 -0.6828  0.5982  0.6551
 8114TIP3   OH245756   6.096   4.728   3.062  0.3654 -0.0853  0.0757
 8114TIP3    H145757   6.077   4.804   3.117 -0.9625  1.2784 -2.1088
 8114TIP3    H245758   6.014   4.678   3.061  1.2800 -1.7413  1.6408
 8115TIP3   OH245759   0.327   1.863   4.124 -0.1787  0.1536 -0.6664
 8115TIP3    H145760   0.244   1.903   4.149  0.7558  1.1288  0.9690
 8115TIP3    H245761   0.316   1.770   4.145 -0.3016  0.5454  1.1258
 8116TIP3   OH245762   0.876   1.846   3.902 -0.0264  0.4414 -0.3594
 8116TIP3    H145763   0.886   1.776   3.965  2.7071  0.5383 -0.5648
 8116TIP3    H245764   0.911   1.924   3.946 -0.8161  1.1630 -0.9650
 8117TIP3   OH245765   2.882   0.989  16.069  0.2236 -0.0804 -0.3746
 8117TIP3    H145766   2.907   0.938  16.146 -0.0248  2.6246  1.6653
 8117TIP3    H245767   2.908   0.935  15.995  0.8676 -2.6630  1.5742
 8118TIP3   OH245768   3.036   5.578   2.351 -0.1287 -0.3101  0.6989
 8118TIP3    H145769   3.025   5.489   2.385  0.1936 -0.5021  0.3095
 8118TIP3    H245770   3.079   5.626   2.422  0.9239 -0.8147  0.4250
 8119TIP3   OH245771   5.333   3.384   6.291  0.3482 -0.0022 -0.1465
 8119TIP3    H145772   5.270   3.314   6.272  0.0536  0.1720  0.1738
 8119TIP3    H245773   5.365   3.364   6.379 -1.3909  1.4709  0.8902
 8120TIP3   OH245774   3.681   4.053   1.590 -0.8157  0.3177 -0.1014
 8120TIP3    H145775   3.775   4.038   1.600 -0.0224  3.8760 -0.8586
 8120TIP3    H245776   3.644   4.025   1.673  1.1743  0.5056  0.9207
 8121TIP3   OH245777   3.589   6.447   4.179  0.0750  0.1713 -0.7858
 8121TIP3    H145778   3.494   6.449   4.196  0.0411 -1.5699 -0.6519
 8121TIP3    H245779   3.599   6.383   4.108  1.1307  0.5845 -1.0182
 8122TIP3   OH245780   5.995   0.106  10.922  0.0195 -0.3737  0.3929
 8122TIP3    H145781   5.927   0.044  10.949 -1.3525  1.4704  1.3918
 8122TIP3    H245782   6.017   0.154  11.002  2.0414 -0.4428 -0.0621
 8123TIP3   OH245783   4.327   4.702   3.874  0.3329 -0.2453 -0.8334
 8123TIP3    H145784   4.351   4.786   3.835  0.2745  0.4557  0.6001
 8123TIP3    H245785   4.347   4.712   3.967 -3.2511 -0.4029  0.0866
 8124TIP3   OH245786   6.014   6.524   3.707 -0.1592  0.4568 -0.0760
 8124TIP3    H145787   6.103   6.521   3.672 -0.7589 -0.2133 -1.6184
 8124TIP3    H245788   5.997   6.434   3.736 -0.7712  0.2794 -0.9592
 8125TIP3   OH245789   6.106   3.391   3.607  0.6724 -0.1742  0.9072
 8125TIP3    H145790   6.182   3.368   3.553  0.8367  0.4930  0.8459
 8125TIP3    H245791   6.124   3.351   3.692  2.0734  1.5964  1.5320
 8126TIP3   OH245792   0.077   5.312   5.579 -0.4890 -1.1980  0.2655
 8126TIP3    H145793   0.136   5.347   5.646 -0.5027 -0.4810 -0.0828
 8126TIP3    H245794   0.107   5.223   5.564  1.1416 -0.5351 -0.6217
 8127TIP3   OH245795   2.485   4.818  15.855 -0.5337 -0.1676 -0.4328
 8127TIP3    H145796   2.581   4.810  15.858 -0.3461  1.4051 -1.3380
 8127TIP3    H245797   2.458   4.755  15.789 -0.2353 -1.2827  0.4701
 8128TIP3   OH245798   6.700   3.794   2.128  0.4365  0.1768 -0.3827
 8128TIP3    H145799   6.656   3.776   2.046 -0.9117 -1.4802  0.6448
 8128TIP3    H245800   6.740   3.711   2.154  0.8475  0.6615  0.6284
 8129TIP3   OH245801   6.367   3.476  13.352 -0.0767  0.2191  0.2425
 8129TIP3    H145802   6.341   3.557  13.307  0.7429 -0.7954 -2.1980
 8129TIP3    H245803   6.409   3.506  13.432 -1.3065  2.1322  0.2430
 8130TIP3   OH245804   1.086   2.943   4.195  0.1018  0.2535 -0.4385
 8130TIP3    H145805   1.062   2.854   4.220  0.7768  0.8392  2.7446
 8130TIP3    H245806   1.161   2.964   4.251  2.1745  1.7220 -3.4416
 8131TIP3   OH245807   5.752   0.818  13.469  0.8548 -0.0975 -0.1181
 8131TIP3    H145808   5.818   0.830  13.537 -1.5414  0.4492  2.2801
 8131TIP3    H245809   5.712   0.734  13.489 -0.7869  0.6870  0.0241
 8132TIP3   OH245810   4.034   5.968   5.648  0.0963 -0.1630  0.3191
 8132TIP3    H145811   4.122   5.933   5.661  0.5379  1.1438  1.0336
 8132TIP3    H245812   3.978   5.913   5.702  0.6793 -0.1949  0.9002
 8133TIP3   OH245813   5.991   6.336   0.217  0.6067 -0.3184 -0.2009
 8133TIP3    H145814   6.085   6.352   0.227  1.1069 -1.6298 -2.2100
 8133TIP3    H245815   5.971   6.271   0.285  1.0336  0.3093  0.5390
 8134TIP3   OH245816   2.857   0.431  11.971  0.2529 -0.3518 -0.7864
 8134TIP3    H145817   2.833   0.352  11.923  0.2596 -0.4124 -0.6902
 8134TIP3    H245818   2.877   0.401  12.060  0.7087 -0.3020 -0.8706
 8135TIP3   OH245819   4.815   2.939   2.722 -0.4288 -0.0721  0.1665
 8135TIP3    H145820   4.756   2.908   2.654 -0.7535 -1.6173  1.1096
 8135TIP3    H245821   4.891   2.972   2.675 -0.6969 -1.0066 -0.9504
 8136TIP3   OH245822   2.895   2.936   2.584  1.0688  0.2672 -0.1518
 8136TIP3    H145823   2.942   2.882   2.521 -0.1676 -1.7348  0.5552
 8136TIP3    H245824   2.852   3.003   2.531  1.8533 -0.0036 -1.1610
 8137TIP3   OH245825   6.047   0.383  15.364 -0.2298 -0.2898  0.4391
 8137TIP3    H145826   6.085   0.295  15.373 -0.9792 -0.6056  0.6298
 8137TIP3    H245827   6.067   0.426  15.446  1.1239  0.1248 -0.0833
 8138TIP3   OH245828   2.822   6.168  12.513 -0.1307  0.6103 -0.2339
 8138TIP3    H145829   2.893   6.218  12.473 -0.0075  1.8286  1.4006
 8138TIP3    H245830   2.867   6.104  12.569 -0.2372 -2.2900 -3.1608
 8139TIP3   OH245831   6.469   0.559  11.853 -0.6837  0.2077  0.3877
 8139TIP3    H145832   6.459   0.474  11.894 -3.3043 -0.3792 -1.2099
 8139TIP3    H245833   6.526   0.543  11.777 -0.1676  0.1613  0.7832
 8140TIP3   OH245834   5.686   2.513  14.504  0.7518  0.2366  0.2839
 8140TIP3    H145835   5.694   2.476  14.592  0.3607  1.3100  0.7840
 8140TIP3    H245836   5.591   2.516  14.488  0.8227 -0.0147 -0.2127
 8141TIP3   OH245837   1.639   5.778   3.544 -0.2726  0.8141 -0.5002
 8141TIP3    H145838   1.596   5.698   3.514 -0.1402  0.3790  0.4159
 8141TIP3    H245839   1.732   5.762   3.528 -0.2757  0.9282 -0.6323
 8142TIP3   OH245840   5.011   0.623   1.711  0.3448 -0.3237 -0.2480
 8142TIP3    H145841   5.076   0.576   1.764  0.0446 -1.0929 -0.5430
 8142TIP3    H245842   5.047   0.624   1.623  1.3017  1.8126  0.1113
 8143TIP3   OH245843   1.225   2.172  11.234 -0.2395 -0.6930  0.4048
 8143TIP3    H145844   1.225   2.231  11.309 -1.3608  1.1842 -0.9913
 8143TIP3    H245845   1.318   2.158  11.215  0.0438 -0.2133  1.3604
 8144TIP3   OH245846   1.140   4.814   0.901  0.1192  0.2584  0.2883
 8144TIP3    H145847   1.227   4.837   0.934  0.4055  0.7385 -0.7666
 8144TIP3    H245848   1.136   4.718   0.906 -0.2432  0.3436  2.6402
 8145TIP3   OH245849   5.343   5.414  15.835  0.7053  0.3308 -0.0625
 8145TIP3    H145850   5.334   5.502  15.871 -0.8335 -0.1454  0.8140
 8145TIP3    H245851   5.260   5.371  15.856  1.2147 -1.1592 -0.9524
 8146TIP3   OH245852   4.450   6.532   6.095 -0.1220 -0.0206 -0.0858
 8146TIP3    H145853   4.455   6.626   6.077 -0.6934 -0.3580 -2.3627
 8146TIP3    H245854   4.520   6.516   6.158  1.2896  1.6089 -1.1375
 8147TIP3   OH245855   2.310   5.304   0.263  0.4318 -0.7572  0.3465
 8147TIP3    H145856   2.311   5.351   0.180  0.2502 -1.4745 -0.0702
 8147TIP3    H245857   2.249   5.232   0.249 -1.5048  0.4675  1.8643
 8148TIP3   OH245858   3.161   6.586   3.493  0.0743 -0.1768 -0.1301
 8148TIP3    H145859   3.161   6.674   3.533  2.6137 -0.1099 -0.1158
 8148TIP3    H245860   3.153   6.527   3.568  3.7640 -0.0144  0.6126
 8149TIP3   OH245861   0.442   3.136   3.111  0.2240  0.1633 -0.2056
 8149TIP3    H145862   0.437   3.070   3.042 -0.8869 -0.4317  0.4101
 8149TIP3    H245863   0.365   3.191   3.097 -0.1316 -0.0948  0.6696
 8150TIP3   OH245864   5.235   5.198   4.050 -0.4407  1.0601  0.2709
 8150TIP3    H145865   5.223   5.289   4.024  0.0010  0.8658 -0.6653
 8150TIP3    H245866   5.311   5.169   4.001 -0.5180  0.2138  0.6381
 8151TIP3   OH245867   3.389   6.326   1.275 -0.1895 -0.3208  0.2145
 8151TIP3    H145868   3.365   6.391   1.340  0.7515  0.8691 -0.5880
 8151TIP3    H245869   3.384   6.242   1.321 -0.8875  0.3653  1.4136
 8152TIP3   OH245870   0.859   1.307   5.012  0.1379 -0.1218  0.2949
 8152TIP3    H145871   0.787   1.369   5.009  0.6952  0.6795  2.0247
 8152TIP3    H245872   0.938   1.361   5.015  0.7745 -0.9604 -0.6048
 8153TIP3   OH245873   5.293   2.529  13.636 -0.6779 -0.3786  0.0075
 8153TIP3    H145874   5.237   2.584  13.582  1.7432  1.6022 -0.6577
 8153TIP3    H245875   5.235   2.461  13.670 -3.3689  1.3568 -0.8555
 8154TIP3   OH245876   2.172   4.918  14.087  0.0912 -0.2341  0.1704
 8154TIP3    H145877   2.211   4.986  14.141  0.5602  0.1977 -0.6966
 8154TIP3    H245878   2.243   4.887  14.031  0.1210 -2.0609  1.1423
 8155TIP3   OH245879   1.296   5.258   5.103  0.1424 -0.1504  0.3727
 8155TIP3    H145880   1.219   5.304   5.137 -0.1084  0.8649 -1.4131
 8155TIP3    H245881   1.292   5.273   5.009  3.0147  0.7156  0.3107
 8156TIP3   OH245882   1.781   0.430   5.484 -0.7139  0.2429 -0.2391
 8156TIP3    H145883   1.758   0.445   5.576  2.1811  0.0319  0.6095
 8156TIP3    H245884   1.834   0.350   5.485  0.4293  0.9254 -1.8878
 8157TIP3   OH245885   3.993   3.518  12.128 -0.1437  0.2419 -0.4370
 8157TIP3    H145886   3.951   3.583  12.072  0.5004  1.7363  0.7537
 8157TIP3    H245887   4.077   3.500  12.086  0.1766  1.0750 -0.1632
 8158TIP3   OH245888   6.393   3.677  11.569 -0.0460  0.5430 -0.0220
 8158TIP3    H145889   6.378   3.703  11.478 -0.6816  1.0407  0.2198
 8158TIP3    H245890   6.341   3.738  11.620  0.3246  0.2760  0.6816
 8159TIP3   OH245891   4.674   4.324  14.368 -0.5155 -0.7153 -0.3673
 8159TIP3    H145892   4.580   4.342  14.364 -0.1155  2.1740  0.8949
 8159TIP3    H245893   4.703   4.366  14.450  2.0021 -0.8360 -1.1163
 8160TIP3   OH245894   6.047   6.303   3.402 -0.0542  0.5295 -0.4391
 8160TIP3    H145895   6.107   6.340   3.337 -0.9657  0.6652 -1.2506
 8160TIP3    H245896   5.962   6.342   3.380 -0.3542  0.7363  0.9827
 8161TIP3   OH245897   3.829   6.382  11.925 -0.1366  0.3845 -0.3192
 8161TIP3    H145898   3.912   6.349  11.889  0.5209  1.5409  0.0872
 8161TIP3    H245899   3.848   6.472  11.949  0.0555 -0.6544  4.4506
 8162TIP3   OH245900   6.629   3.405   1.041 -0.4319 -0.1026  0.0503
 8162TIP3    H145901   6.680   3.354   0.979 -0.1887  0.5358 -0.2856
 8162TIP3    H245902   6.639   3.496   1.012 -0.9642  0.1277  0.5524
 8163TIP3   OH245903   3.599   5.531  17.061 -0.1827  0.0652  0.3125
 8163TIP3    H145904   3.595   5.523  16.966 -0.2413 -1.8031  0.4381
 8163TIP3    H245905   3.554   5.613  17.080 -1.3891 -0.2100 -1.1744
 8164TIP3   OH245906   5.720   3.644  12.038 -0.8105 -0.4155 -0.2525
 8164TIP3    H145907   5.727   3.551  12.017  1.4878 -0.2760 -0.3506
 8164TIP3    H245908   5.707   3.646  12.133 -2.1231 -0.8245 -0.3959
 8165TIP3   OH245909   2.792   1.030   2.998 -0.7413  0.0377  0.3686
 8165TIP3    H145910   2.753   1.081   2.927  0.2629  1.8477  1.0620
 8165TIP3    H245911   2.883   1.058   3.002  0.8072 -4.0156 -1.1490
 8166TIP3   OH245912   0.135   4.226  15.094 -0.0992  0.2335 -0.0831
 8166TIP3    H145913   0.152   4.215  15.187  0.2222  1.6729  0.0451
 8166TIP3    H245914   0.202   4.173  15.051 -0.1757 -0.3416  0.4823
 8167TIP3   OH245915   5.379   6.284   1.181 -0.0455 -0.4674  0.3070
 8167TIP3    H145916   5.357   6.326   1.264 -1.4130  0.7002 -0.5971
 8167TIP3    H245917   5.387   6.191   1.202 -1.1106 -0.2948  1.6027
 8168TIP3   OH245918   5.712   2.490  14.243  0.0828  0.4425  0.2208
 8168TIP3    H145919   5.767   2.562  14.211  0.2373  0.1748 -0.1128
 8168TIP3    H245920   5.708   2.505  14.337  2.7667 -0.8945  0.6643
 8169TIP3   OH245921   0.320   2.638  13.556  0.0778  0.0058  0.0563
 8169TIP3    H145922   0.345   2.621  13.647 -2.8602 -2.8334  0.5049
 8169TIP3    H245923   0.338   2.556  13.510  0.7830  1.1421 -1.8087
 8170TIP3   OH245924   3.593   4.830  17.317  0.2370  0.2588  0.0874
 8170TIP3    H145925   3.605   4.832  17.222  2.2300  1.4179  0.2988
 8170TIP3    H245926   3.563   4.741  17.336 -0.9609  0.2435 -1.6718
 8171TIP3   OH245927   2.383   5.399   3.018 -0.1500 -0.4477 -0.6961
 8171TIP3    H145928   2.290   5.402   3.041  0.3191 -2.4922  2.0169
 8171TIP3    H245929   2.406   5.307   3.024  2.3845  0.1673  0.3040
 8172TIP3   OH245930   1.298   2.942  14.387 -0.6724  0.3860  0.5840
 8172TIP3    H145931   1.323   2.932  14.479 -1.2728 -1.8141  0.5819
 8172TIP3    H245932   1.203   2.950  14.389 -0.9165 -1.7753  0.1109
 8173TIP3   OH245933   0.189   6.092  11.046  0.7617 -0.6635 -0.4030
 8173TIP3    H145934   0.255   6.030  11.076  1.3893  1.3320  2.8026
 8173TIP3    H245935   0.234   6.147  10.982  0.4767 -2.7506 -2.5150
 8174TIP3   OH245936   2.603   4.183  14.676 -0.2939 -0.0820  0.2890
 8174TIP3    H145937   2.689   4.154  14.705 -0.2740  0.6283  0.9922
 8174TIP3    H245938   2.547   4.105  14.684  0.4005 -0.7092 -0.7619
 8175TIP3   OH245939   1.843   0.475  17.296 -0.0203  0.0616 -0.3778
 8175TIP3    H145940   1.926   0.428  17.288  1.0846  1.6247  0.9764
 8175TIP3    H245941   1.835   0.492  17.390 -0.1230  2.8432 -0.8017
 8176TIP3   OH245942   6.186   5.582  12.874 -1.1827  0.7237  0.4637
 8176TIP3    H145943   6.131   5.563  12.950 -0.6013 -0.5915  0.5791
 8176TIP3    H245944   6.215   5.497  12.843 -1.3692  1.2377 -1.2301
 8177TIP3   OH245945   0.100   3.559  15.966 -0.1537  0.6324  0.0205
 8177TIP3    H145946   0.157   3.530  16.036  0.6028  0.6135 -0.5908
 8177TIP3    H245947   0.049   3.631  16.004 -1.0198 -0.5269  1.1107
 8178TIP3   OH245948   4.116   3.004   4.437  0.0034 -0.2263  0.0243
 8178TIP3    H145949   4.148   2.950   4.509  0.3849 -1.3156 -0.9206
 8178TIP3    H245950   4.183   3.071   4.426 -0.2744  0.2175  0.9518
 8179TIP3   OH245951   1.755   1.762   3.997  0.5777  0.0877 -0.4436
 8179TIP3    H145952   1.828   1.784   4.055 -1.8132 -0.3176  3.0553
 8179TIP3    H245953   1.757   1.666   3.991  0.3821  0.0816 -0.4185
 8180TIP3   OH245954   5.620   2.043   2.304  0.3893  0.6471 -0.5065
 8180TIP3    H145955   5.544   2.028   2.360  1.6859 -2.2143  0.7231
 8180TIP3    H245956   5.584   2.051   2.216 -1.3738 -1.5030 -0.0842
 8181TIP3   OH245957   2.167   1.430   6.268 -0.6930 -0.4526  0.1023
 8181TIP3    H145958   2.145   1.419   6.360 -0.1266 -2.7730  0.0297
 8181TIP3    H245959   2.247   1.378   6.256 -0.3141  0.4294 -1.5318
 8182TIP3   OH245960   3.424   6.167   3.006  0.3893  0.2837  0.0050
 8182TIP3    H145961   3.442   6.112   3.083 -1.5601  0.1664  0.4054
 8182TIP3    H245962   3.500   6.153   2.949  0.5166 -1.9215  0.6255
 8183TIP3   OH245963   0.692   3.586   1.056  0.2305 -0.2826 -0.3969
 8183TIP3    H145964   0.704   3.659   1.117 -1.2874  0.7951 -1.3343
 8183TIP3    H245965   0.781   3.555   1.038  0.8451  0.7665  0.6871
 8184TIP3   OH245966   5.642   1.982   0.894  0.3379  0.2105 -0.1785
 8184TIP3    H145967   5.619   2.074   0.878 -0.2794  0.4512  1.7693
 8184TIP3    H245968   5.570   1.932   0.856  1.3039  0.4097 -2.4032
 8185TIP3   OH245969   6.304   0.086  11.687  0.1195 -0.2406 -0.5774
 8185TIP3    H145970   6.223   0.070  11.639 -0.3223  0.8819 -0.2489
 8185TIP3    H245971   6.363   0.017  11.659 -0.4949 -0.2658 -1.8755
 8186TIP3   OH245972   2.022   4.742  17.316 -0.4589  0.4766 -0.2525
 8186TIP3    H145973   1.982   4.706  17.238 -2.5893  0.5548  0.7424
 8186TIP3    H245974   1.968   4.711  17.388  1.8409 -0.2033  1.3170
 8187TIP3   OH245975   6.463   5.170  14.589 -0.1967  0.2999 -0.5022
 8187TIP3    H145976   6.381   5.186  14.541 -0.6923  0.1596  0.2886
 8187TIP3    H245977   6.507   5.255  14.589 -1.1113  0.8053  0.4829
 8188TIP3   OH245978   4.576   5.181  14.450 -0.1195  0.1633  0.0650
 8188TIP3    H145979   4.527   5.191  14.532 -0.0372 -2.4855  0.5205
 8188TIP3    H245980   4.654   5.133  14.475  0.2112 -0.1468 -1.4788
 8189TIP3   OH245981   5.241   0.252  12.791  0.0876  0.2283 -0.2828
 8189TIP3    H145982   5.258   0.186  12.723  0.3443 -0.2951  0.2822
 8189TIP3    H245983   5.235   0.335  12.743  1.0601 -0.0173 -0.8586
 8190TIP3   OH245984   3.785   6.597  14.715  0.0084  0.1471 -0.0150
 8190TIP3    H145985   3.803   6.504  14.728 -0.3066 -0.0346 -0.8084
 8190TIP3    H245986   3.816   6.639  14.795 -2.3137 -0.9384  1.5889
 8191TIP3   OH245987   6.138   3.234  10.444 -0.2369 -0.5632 -0.3213
 8191TIP3    H145988   6.190   3.301  10.487 -0.0656 -0.3204 -0.8956
 8191TIP3    H245989   6.091   3.191  10.515  1.0349 -1.0447  0.2509
 8192TIP3   OH245990   3.200   3.195   0.184 -0.2388 -0.2301  0.2660
 8192TIP3    H145991   3.178   3.278   0.142 -0.2660  0.2777  1.2569
 8192TIP3    H245992   3.128   3.137   0.162 -1.2747  0.6303  1.2803
 8193TIP3   OH245993   2.852   2.649   5.741 -0.1588  0.1855 -0.3082
 8193TIP3    H145994   2.927   2.591   5.756 -0.8920 -0.9774 -1.0124
 8193TIP3    H245995   2.806   2.651   5.825 -1.0636 -1.6581 -0.7226
 8194TIP3   OH245996   1.672   2.267  17.170 -0.3697 -0.4411  0.0878
 8194TIP3    H145997   1.595   2.298  17.218 -1.2680 -2.2353 -0.1131
 8194TIP3    H245998   1.744   2.271  17.234 -0.8443  0.2678  0.5864
 8195TIP3   OH245999   0.229   0.889   5.168 -0.3800  0.3222 -0.1872
 8195TIP3    H146000   0.144   0.893   5.211  0.8279  1.1868  2.2752
 8195TIP3    H246001   0.242   0.976   5.131 -0.3794  0.3069 -0.2237
 8196TIP3   OH246002   1.929   4.977  13.847 -0.1454  0.1563  0.8713
 8196TIP3    H146003   1.858   5.031  13.812  0.1906  0.4380  0.6093
 8196TIP3    H246004   1.974   5.034  13.909  1.3675  0.8578 -0.7869
 8197TIP3   OH246005   5.852   5.570  12.639 -0.5390 -0.1595 -0.4661
 8197TIP3    H146006   5.815   5.569  12.727 -0.6803 -0.8718 -0.5296
 8197TIP3    H246007   5.796   5.630  12.589  0.3143  1.2839  0.2493
 8198TIP3   OH246008   0.570   0.918  12.472 -0.0622 -0.2367 -0.0405
 8198TIP3    H146009   0.575   1.012  12.491  0.0368 -0.0239 -1.0763
 8198TIP3    H246010   0.519   0.882  12.544 -1.4720  0.8500 -0.4597
 8199TIP3   OH246011   4.257   3.469  16.395  0.1332 -0.4604 -0.2812
 8199TIP3    H146012   4.183   3.473  16.334 -0.1478  0.3879  0.0831
 8199TIP3    H246013   4.218   3.436  16.476  0.2418 -0.4361 -0.2201
 8200TIP3   OH246014   0.722   2.563   3.499 -0.0623  0.3258 -0.4509
 8200TIP3    H146015   0.673   2.537   3.421  0.4456  0.6483 -0.8750
 8200TIP3    H246016   0.692   2.651   3.519 -0.8305 -0.0755  0.2345
 8201TIP3   OH246017   6.662   2.525  12.294 -0.3035  0.5259 -0.3707
 8201TIP3    H146018   6.593   2.467  12.261 -0.7526  0.0932  1.2321
 8201TIP3    H246019   6.626   2.561  12.375  0.5799  1.8675 -0.5486
 8202TIP3   OH246020   6.043   1.964   4.462  0.6007 -0.4100 -0.1470
 8202TIP3    H146021   6.042   1.925   4.550 -0.2754  0.4331  0.2364
 8202TIP3    H246022   6.024   2.056   4.477 -0.0385 -0.3460 -1.2760
 8203TIP3   OH246023   1.924   4.004   2.082  0.4330 -0.9805 -0.1111
 8203TIP3    H146024   1.851   3.949   2.110 -0.3874 -0.0228 -0.2976
 8203TIP3    H246025   1.929   3.990   1.987  0.1043 -0.6197 -0.1875
 8204TIP3   OH246026   1.175   6.580  16.917  0.4856 -0.6028 -0.2707
 8204TIP3    H146027   1.142   6.564  16.829  2.2042 -1.8479 -0.7490
 8204TIP3    H246028   1.269   6.561  16.911  0.6601 -0.6281  1.7983
 8205TIP3   OH246029   1.350   1.676  11.806 -0.2927  0.5845 -0.0357
 8205TIP3    H146030   1.270   1.652  11.759  1.2555 -0.1364 -2.5202
 8205TIP3    H246031   1.417   1.680  11.738  2.2735 -0.9369  2.1982
 8206TIP3   OH246032   2.696   3.914  14.674 -0.0265  0.2639 -0.2908
 8206TIP3    H146033   2.706   3.934  14.767 -0.8820  0.0672 -0.1447
 8206TIP3    H246034   2.785   3.919  14.638  0.3475  0.0883  0.5846
 8207TIP3   OH246035   4.306   6.315   0.047 -0.0040  0.1406 -0.0667
 8207TIP3    H146036   4.315   6.383   0.113 -0.2417 -0.6543  0.7891
 8207TIP3    H246037   4.395   6.304   0.012  0.0741  0.7276 -0.0563
 8208TIP3   OH246038   0.162   6.397   5.239 -0.1951 -0.4590  0.2600
 8208TIP3    H146039   0.150   6.303   5.230 -1.2990 -0.4900  1.7423
 8208TIP3    H246040   0.074   6.433   5.230  0.2866  0.5075 -0.8721
 8209TIP3   OH246041   3.509   2.278  11.666 -0.1494 -0.2679  0.7177
 8209TIP3    H146042   3.497   2.361  11.712 -1.7778  0.1197 -0.3198
 8209TIP3    H246043   3.456   2.215  11.714  1.4508 -0.8863  1.7860
 8210TIP3   OH246044   1.283   2.381   4.183  0.3256 -0.0492 -0.1525
 8210TIP3    H146045   1.296   2.464   4.230  0.6131  0.9323 -1.8690
 8210TIP3    H246046   1.367   2.336   4.190  0.0490 -0.4189  1.1335
 8211TIP3   OH246047   3.584   0.422  11.186  0.0883 -0.6632  0.6964
 8211TIP3    H146048   3.513   0.358  11.176 -2.7112  2.4009 -1.0704
 8211TIP3    H246049   3.655   0.388  11.131 -2.0276 -1.4231 -1.7788
 8212TIP3   OH246050   5.068   0.557  17.113  0.3345  0.2528 -0.1323
 8212TIP3    H146051   5.012   0.486  17.083  1.2331 -0.3136 -0.4754
 8212TIP3    H246052   5.145   0.515  17.150 -0.8485  0.8680  3.4504
 8213TIP3   OH246053   5.613   0.881   5.374  0.2671 -0.0723 -0.3574
 8213TIP3    H146054   5.539   0.832   5.409  0.3831 -1.5604 -2.0272
 8213TIP3    H246055   5.608   0.967   5.416 -3.9361  0.8528 -2.2297
 8214TIP3   OH246056   0.251   5.631   5.621  0.3045  0.4404 -0.3653
 8214TIP3    H146057   0.300   5.688   5.681 -1.0474  0.4231  0.8153
 8214TIP3    H246058   0.200   5.691   5.567  0.2301  0.4025 -0.3371
 8215TIP3   OH246059   0.722   2.743  13.648 -0.5599 -0.0222  0.6200
 8215TIP3    H146060   0.747   2.679  13.581 -0.1477  1.2873 -0.5360
 8215TIP3    H246061   0.626   2.744  13.645 -0.5508 -0.1609  0.2147
 8216TIP3   OH246062   4.251   0.339  11.470 -0.3298 -0.2082  0.6167
 8216TIP3    H146063   4.243   0.257  11.421  0.5744 -0.5156  0.9638
 8216TIP3    H246064   4.208   0.320  11.554  0.2568 -0.4741  0.8616
 8217TIP3   OH246065   1.000   6.312  13.988 -0.2202 -0.1597  0.1181
 8217TIP3    H146066   1.072   6.367  13.958  1.3447 -1.2010  1.7555
 8217TIP3    H246067   1.022   6.224  13.957 -0.7664 -0.4984  0.6682
 8218TIP3   OH246068   0.081   0.719  14.763 -0.3247 -0.4137 -0.1454
 8218TIP3    H146069   0.012   0.769  14.806 -0.3414  0.8895 -1.5870
 8218TIP3    H246070   0.135   0.785  14.719 -0.2099 -1.6169 -1.9178
 8219TIP3   OH246071   6.063   1.950   2.868  0.0028 -0.0113 -0.2206
 8219TIP3    H146072   6.127   1.911   2.808 -0.2809  0.1504 -0.6267
 8219TIP3    H246073   6.035   2.031   2.826 -0.2060  0.1010  0.1253
 8220TIP3   OH246074   2.522   0.266   6.450 -0.9032  0.1261 -0.0043
 8220TIP3    H146075   2.456   0.259   6.519  0.8736  1.2406  1.9138
 8220TIP3    H246076   2.528   0.359   6.432 -2.5569 -0.2007 -3.0811
 8221TIP3   OH246077   4.772   6.381   4.216  0.7486 -0.1087 -0.3667
 8221TIP3    H146078   4.836   6.316   4.245  1.6491  1.2736  0.9002
 8221TIP3    H246079   4.825   6.454   4.182 -0.2218  0.1816 -1.3247
 8222TIP3   OH246080   4.502   3.348  11.324  0.7645  0.3325 -0.1417
 8222TIP3    H146081   4.543   3.349  11.238 -0.2286 -0.1304 -0.6253
 8222TIP3    H246082   4.569   3.312  11.382  1.2269  0.0811 -0.8252
 8223TIP3   OH246083   1.254   6.563   1.205  0.0137  0.6596  0.0568
 8223TIP3    H146084   1.311   6.548   1.130 -1.2049 -0.3796 -0.7116
 8223TIP3    H246085   1.312   6.558   1.281  0.8936 -0.8054 -0.6659
 8224TIP3   OH246086   2.847   1.800  17.323 -0.4183  0.5920 -0.3047
 8224TIP3    H146087   2.813   1.855  17.394  1.3139 -0.4760  1.4523
 8224TIP3    H246088   2.774   1.793  17.262 -2.6221  0.2132  2.1710
 8225TIP3   OH246089   4.922   3.285   0.062 -0.4538  0.2529 -0.5645
 8225TIP3    H146090   4.905   3.366   0.014 -1.3281 -0.6169 -1.7854
 8225TIP3    H246091   4.848   3.276   0.121  0.7834  1.4960  1.3018
 8226TIP3   OH246092   0.494   5.983  12.788 -0.3670  0.0544 -0.1893
 8226TIP3    H146093   0.478   6.051  12.854  2.2262  1.8554 -1.2610
 8226TIP3    H246094   0.456   6.019  12.708  0.9333  0.2184 -0.7459
 8227TIP3   OH246095   4.868   0.143   1.450 -0.1078 -0.2700  0.3795
 8227TIP3    H146096   4.938   0.203   1.426  1.2256 -1.1970  1.7879
 8227TIP3    H246097   4.844   0.100   1.368  2.2815 -1.2505  0.1096
 8228TIP3   OH246098   1.634   5.587  12.000 -0.3282 -0.3419 -0.3982
 8228TIP3    H146099   1.682   5.649  12.055 -0.7163 -1.1639  0.9198
 8228TIP3    H246100   1.549   5.578  12.043 -0.0430 -2.2788 -0.1609
 8229TIP3   OH246101   6.390   1.313   4.841  0.4794  0.2551 -0.3703
 8229TIP3    H146102   6.466   1.254   4.833  0.9787  0.8974 -0.4651
 8229TIP3    H246103   6.417   1.377   4.907 -0.6137 -0.4515  0.8133
 8230TIP3   OH246104   1.885   4.182  16.197  0.4244 -0.4173 -0.2781
 8230TIP3    H146105   1.816   4.174  16.263  0.3821  2.1573  0.1087
 8230TIP3    H246106   1.905   4.092  16.171 -1.8945 -1.3244  0.8143
 8231TIP3   OH246107   6.007   3.816   6.099  0.3952 -0.3077 -0.0419
 8231TIP3    H146108   5.976   3.892   6.148  1.1728 -0.3937  0.6047
 8231TIP3    H246109   5.995   3.840   6.007 -1.8917 -0.4739  0.1425
 8232TIP3   OH246110   5.271   2.707  14.408 -0.1449 -0.5000 -0.1756
 8232TIP3    H146111   5.341   2.645  14.429  0.2310 -0.0225  0.0117
 8232TIP3    H246112   5.232   2.673  14.328  0.3065 -0.7749 -0.2829
 8233TIP3   OH246113   2.030   2.747   1.159 -0.1738 -0.3420 -0.0055
 8233TIP3    H146114   2.084   2.825   1.167 -1.8316  0.6852  2.2523
 8233TIP3    H246115   1.996   2.751   1.069 -0.1484  1.5065  0.0288
 8234TIP3   OH246116   5.679   6.400  13.724 -0.3332  0.0102 -0.4030
 8234TIP3    H146117   5.713   6.489  13.712  2.9924 -0.7894  1.7828
 8234TIP3    H246118   5.695   6.357  13.640  1.7390  0.4787 -0.3158
 8235TIP3   OH246119   4.755   2.050  14.057  0.4904 -0.4255  0.3090
 8235TIP3    H146120   4.679   1.999  14.084  0.0656  0.5907  1.1028
 8235TIP3    H246121   4.729   2.090  13.974 -0.0288  0.2614  0.7866
 8236TIP3   OH246122   4.374   3.137   2.113  0.4816  0.3669 -0.0835
 8236TIP3    H146123   4.452   3.095   2.151  1.2436  0.7702 -1.1699
 8236TIP3    H246124   4.388   3.230   2.126 -1.1850  0.3726  2.2645
 8237TIP3   OH246125   5.013   0.780   1.002 -0.2094  0.4711  0.1382
 8237TIP3    H146126   5.008   0.710   1.068 -1.3802  0.5006  0.0996
 8237TIP3    H246127   5.100   0.770   0.963 -0.2462 -0.7759  0.3381
 8238TIP3   OH246128   1.523   2.725   0.152  0.2344  0.2951  0.4670
 8238TIP3    H146129   1.429   2.714   0.136  0.5088 -1.9507  0.1281
 8238TIP3    H246130   1.562   2.640   0.130  2.5420  1.5468 -0.7281
 8239TIP3   OH246131   6.672   0.913   6.169  0.8571  0.2272  0.0945
 8239TIP3    H146132   6.726   0.835   6.179  0.4174  0.1292  2.0416
 8239TIP3    H246133   6.639   0.931   6.257 -1.5642  0.8028 -0.8549
 8240TIP3   OH246134   1.296   2.089   2.032  0.1986 -0.6207 -0.1978
 8240TIP3    H146135   1.308   2.177   2.066  0.4576 -1.0419  0.8166
 8240TIP3    H246136   1.218   2.095   1.976 -0.5790 -0.0413  0.9184
 8241TIP3   OH246137   3.415   0.131   2.312 -0.1289  0.0046  0.1493
 8241TIP3    H146138   3.456   0.093   2.235 -1.1610 -0.5524 -0.1424
 8241TIP3    H246139   3.321   0.131   2.292 -0.3845  0.1537  1.2713
 8242TIP3   OH246140   0.874   4.584   4.331 -0.7107  0.7122  0.6542
 8242TIP3    H146141   0.937   4.633   4.277 -0.1542  0.3304  0.9546
 8242TIP3    H246142   0.862   4.501   4.285  2.9587 -1.4303  3.1258
 8243TIP3   OH246143   5.068   1.556  14.581 -0.3586  0.1799 -0.0376
 8243TIP3    H146144   5.094   1.554  14.673 -0.4535 -1.1299 -0.0256
 8243TIP3    H246145   5.080   1.647  14.555 -0.3427  0.5722  1.2723
 8244TIP3   OH246146   6.668   3.449  17.434  0.4670  0.2372  0.6705
 8244TIP3    H146147   6.653   3.357  17.413  0.5407  0.0829  1.2518
 8244TIP3    H246148   6.624   3.498  17.365 -3.6708 -0.1575  2.7189
 8245TIP3   OH246149   1.904   4.021  15.204 -0.3216  0.5915 -0.2122
 8245TIP3    H146150   1.893   3.969  15.125  0.4005  0.6497 -0.3603
 8245TIP3    H246151   1.908   3.957  15.275  1.2837  0.3642 -0.4639
 8246TIP3   OH246152   3.658   6.729  13.552 -0.0740 -0.1897  0.3225
 8246TIP3    H146153   3.600   6.700  13.622 -0.4180  0.0118  0.1226
 8246TIP3    H246154   3.736   6.762  13.597  0.5578 -1.8688  0.5580
 8247TIP3   OH246155   1.065   0.513  11.686 -0.6196  0.3316 -0.4070
 8247TIP3    H146156   1.134   0.571  11.652  0.5575 -0.5413  0.4126
 8247TIP3    H246157   1.112   0.435  11.716 -1.7868  0.3208  1.5399
 8248TIP3   OH246158   4.984   1.161   1.552 -0.1923 -0.4344  0.5699
 8248TIP3    H146159   5.055   1.189   1.610 -0.4627  0.0683  0.6645
 8248TIP3    H246160   5.014   1.184   1.464  1.1210 -3.0335  0.2400
 8249TIP3   OH246161   4.250   3.893   0.271 -0.5565  0.3599 -0.3728
 8249TIP3    H146162   4.254   3.818   0.213 -2.6795  0.7170 -1.0578
 8249TIP3    H246163   4.241   3.855   0.359  0.0202 -0.1650 -0.5324
 8250TIP3   OH246164   5.293   5.583   2.896 -0.3769 -0.2099 -0.5974
 8250TIP3    H146165   5.339   5.666   2.882  0.0546 -0.3157  0.0817
 8250TIP3    H246166   5.358   5.516   2.874 -0.8833 -0.3738 -1.6191
 8251TIP3   OH246167   2.456   1.377   3.381 -0.4687  0.3263  0.2931
 8251TIP3    H146168   2.463   1.321   3.459 -0.2695 -0.8935 -0.5616
 8251TIP3    H246169   2.543   1.374   3.342 -0.7224  0.4345 -0.2913
 8252TIP3   OH246170   0.242   4.219   3.366 -0.8996  0.3867 -0.0224
 8252TIP3    H146171   0.205   4.249   3.283  0.8785  1.0263 -0.6307
 8252TIP3    H246172   0.248   4.124   3.357  1.6285  0.6051 -1.7427
 8253TIP3   OH246173   5.843   6.746   4.385  0.9262 -0.1451  0.0697
 8253TIP3    H146174   5.789   6.699   4.449  1.7561  0.4668  1.2593
 8253TIP3    H246175   5.794   6.738   4.303 -0.0230 -1.2185  0.6928
 8254TIP3   OH246176   2.533   0.540  12.596 -0.3020  0.2997  0.0993
 8254TIP3    H146177   2.600   0.561  12.661 -0.1971  2.0320 -0.5083
 8254TIP3    H246178   2.451   0.545  12.644 -0.0792 -1.4646  0.7607
 8255TIP3   OH246179   2.792   1.793   1.036  0.4477 -0.2849  0.5405
 8255TIP3    H146180   2.718   1.853   1.025  0.6072  0.2088  1.9122
 8255TIP3    H246181   2.751   1.711   1.063  0.3114 -0.3996 -0.0170
 8256TIP3   OH246182   4.463   3.576  15.829  0.0549 -0.3641 -0.1552
 8256TIP3    H146183   4.376   3.535  15.827 -0.4679  0.6307  0.9269
 8256TIP3    H246184   4.518   3.517  15.778 -1.4600 -0.5385 -1.6967
 8257TIP3   OH246185   5.044   6.480  11.600  0.0106  0.0551  0.4901
 8257TIP3    H146186   4.955   6.509  11.581 -0.2679  0.5406  2.3838
 8257TIP3    H246187   5.099   6.526  11.536 -0.9227  1.0416  0.3932
 8258TIP3   OH246188   3.522   3.432   4.428 -0.2953 -0.1283 -0.1472
 8258TIP3    H146189   3.488   3.351   4.392 -2.3264  0.1367  1.0140
 8258TIP3    H246190   3.551   3.409   4.517 -0.2606  0.2826 -0.0467
 8259TIP3   OH246191   2.165   0.799   1.102 -0.4867 -0.0645 -0.2760
 8259TIP3    H146192   2.140   0.770   1.190  0.0671  1.1741  0.3122
 8259TIP3    H246193   2.126   0.886   1.094  0.7831  0.4893 -0.6460
 8260TIP3   OH246194   5.941   3.626  12.699 -0.6294  0.0353  0.3043
 8260TIP3    H146195   5.990   3.632  12.617 -0.9232  1.6904  0.2171
 8260TIP3    H246196   5.870   3.565  12.681  0.0759 -0.6426 -0.2505
 8261TIP3   OH246197   1.322   4.109  13.590  0.6004 -0.1502 -0.3116
 8261TIP3    H146198   1.251   4.091  13.528  1.1106 -0.2834 -0.8631
 8261TIP3    H246199   1.377   4.031  13.588  0.7923 -0.0316  0.0872
 8262TIP3   OH246200   3.705   0.236  13.745  0.0659 -0.1172  0.0664
 8262TIP3    H146201   3.748   0.166  13.696 -0.1075 -0.9956  1.1199
 8262TIP3    H246202   3.733   0.221  13.836  0.3855  1.4539  0.2469
 8263TIP3   OH246203   2.233   3.919   1.120 -0.1809  0.4379 -0.1831
 8263TIP3    H146204   2.287   3.997   1.105 -0.8180  1.1192  0.9084
 8263TIP3    H246205   2.176   3.914   1.044 -0.0602  0.9854 -0.3161
 8264TIP3   OH246206   3.526   4.298   2.762 -0.5095 -0.4222 -0.1765
 8264TIP3    H146207   3.591   4.357   2.722 -0.4885  0.2486  0.8173
 8264TIP3    H246208   3.463   4.282   2.692 -0.4788  0.7431 -0.5020
 8265TIP3   OH246209   4.690   0.790  14.004  0.0580 -0.2441 -0.1249
 8265TIP3    H146210   4.745   0.857  13.961  1.3388 -0.7186  0.7068
 8265TIP3    H246211   4.600   0.815  13.982  0.2740  3.2651  2.1722
 8266TIP3   OH246212   2.696   3.293   1.560 -0.6227  0.0672 -0.1005
 8266TIP3    H146213   2.691   3.371   1.615  0.4931  0.3133 -0.3389
 8266TIP3    H246214   2.765   3.311   1.497  0.8467 -1.7354  0.8864
 8267TIP3   OH246215   4.111   2.116  13.875  0.1084  0.0062  0.0264
 8267TIP3    H146216   4.047   2.046  13.884 -0.4653  0.0074 -2.8787
 8267TIP3    H246217   4.195   2.076  13.897  0.3169 -2.7906 -4.4699
 8268TIP3   OH246218   4.982   2.687  14.551 -0.6940 -0.2294  0.1070
 8268TIP3    H146219   4.966   2.741  14.474 -1.6873 -2.3314 -1.2857
 8268TIP3    H246220   4.997   2.599  14.515 -1.3184 -1.3091  2.3068
 8269TIP3   OH246221   1.841   5.047   4.811 -0.4104 -0.8490 -0.5083
 8269TIP3    H146222   1.846   4.953   4.790  0.9228 -0.6863 -1.0329
 8269TIP3    H246223   1.933   5.074   4.821 -0.7734  0.4102 -0.4152
 8270TIP3   OH246224   0.987   0.921  12.661  0.2083 -0.6905  0.1187
 8270TIP3    H146225   0.924   0.957  12.724  0.0824  0.0200 -0.3991
 8270TIP3    H246226   0.939   0.918  12.578  0.0411 -2.5887  0.2422
 8271TIP3   OH246227   0.305   6.511  15.315 -0.5784 -0.3489  0.3734
 8271TIP3    H146228   0.332   6.508  15.407 -0.8023 -0.8636  0.4205
 8271TIP3    H246229   0.379   6.554  15.271 -0.5356  0.0431  0.8112
 8272TIP3   OH246230   0.272   4.980  17.418 -0.0473 -0.7284  0.5180
 8272TIP3    H146231   0.219   5.051  17.453  1.4618  1.5908 -1.6091
 8272TIP3    H246232   0.334   4.960  17.488  0.1533  0.7627  0.7860
 8273TIP3   OH246233   2.864   1.284  15.355 -0.2036 -0.1908  0.0124
 8273TIP3    H146234   2.833   1.200  15.390  0.5173 -1.5713 -2.4602
 8273TIP3    H246235   2.786   1.323  15.315 -0.3748 -0.0216  0.5031
 8274TIP3   OH246236   1.670   4.700   1.547  0.3204  0.0376  0.2209
 8274TIP3    H146237   1.592   4.749   1.571  0.4263 -0.7392  2.4880
 8274TIP3    H246238   1.726   4.704   1.625  1.4478 -1.4741 -0.4349
 8275TIP3   OH246239   3.057   0.790   2.514  0.1377 -0.7000  0.0562
 8275TIP3    H146240   3.149   0.787   2.487 -0.1438  0.4006 -1.1797
 8275TIP3    H246241   3.039   0.883   2.527 -0.7179 -0.9312  0.6085
 8276TIP3   OH246242   0.969   5.482  14.755  0.7765 -0.4869  0.5455
 8276TIP3    H146243   0.911   5.435  14.815  0.4756 -1.4445 -0.4603
 8276TIP3    H246244   1.019   5.414  14.710  2.3032  0.2915  0.9723
 8277TIP3   OH246245   0.476   2.338  10.845 -0.6591  0.5189  0.0614
 8277TIP3    H146246   0.435   2.424  10.845 -3.0680 -0.5283  0.8285
 8277TIP3    H246247   0.439   2.294  10.768 -0.6334 -0.3394  0.5262
 8278TIP3   OH246248   6.321   6.285   2.763  0.4211 -0.4987  0.0054
 8278TIP3    H146249   6.276   6.347   2.706 -0.1102 -0.2991  0.6225
 8278TIP3    H246250   6.405   6.270   2.721 -0.4509 -1.3508 -1.5015
 8279TIP3   OH246251   1.579   0.892   4.655 -0.1318  0.3494  0.1519
 8279TIP3    H146252   1.516   0.945   4.703 -1.5772 -0.4186 -0.8189
 8279TIP3    H246253   1.532   0.865   4.576  1.5779  0.1246 -0.8411
 8280TIP3   OH246254   4.345   2.713  16.043 -0.4101 -0.8868  0.3699
 8280TIP3    H146255   4.362   2.773  16.115 -0.5616 -0.4228  0.0206
 8280TIP3    H246256   4.380   2.629  16.073  0.8083 -0.3798  0.4242
 8281TIP3   OH246257   5.776   6.083   3.997 -0.1375  0.0712 -0.3701
 8281TIP3    H146258   5.757   6.021   3.927 -1.7986  0.5108 -0.3733
 8281TIP3    H246259   5.728   6.162   3.972 -1.1801  0.0819  1.4549
 8282TIP3   OH246260   3.795   0.990  11.792  0.4630  0.1707 -0.2195
 8282TIP3    H146261   3.859   0.925  11.763 -0.2929  0.5846 -3.1567
 8282TIP3    H246262   3.847   1.062  11.827  1.6119  0.2226 -1.9432
 8283TIP3   OH246263   6.516   5.750   1.658  0.6038 -0.3484 -0.7451
 8283TIP3    H146264   6.428   5.759   1.696  0.1873  1.4199 -1.9734
 8283TIP3    H246265   6.566   5.821   1.698  1.9197 -2.1272  0.9319
 8284TIP3   OH246266   3.069   1.357   4.018  0.3032 -0.7226  0.2029
 8284TIP3    H146267   2.985   1.365   3.972  0.6059 -1.3272 -0.4691
 8284TIP3    H246268   3.076   1.438   4.067  0.4947  0.4942 -1.7155
 8285TIP3   OH246269   6.494   2.035   3.054 -0.1937  0.3394 -0.5337
 8285TIP3    H146270   6.549   1.957   3.047  1.4320  1.4466 -0.6778
 8285TIP3    H246271   6.520   2.089   2.979  0.2856  1.9554  0.7267
 8286TIP3   OH246272   2.488   4.070   2.939  0.0058 -0.1014 -0.9780
 8286TIP3    H146273   2.499   3.976   2.956 -1.0388 -0.0577  0.1016
 8286TIP3    H246274   2.397   4.079   2.914  0.3117  0.5333 -1.8880
 8287TIP3   OH246275   0.671   3.243   3.009 -0.2132  0.4548  0.7075
 8287TIP3    H146276   0.647   3.270   2.921 -0.3829  0.1907  0.6711
 8287TIP3    H246277   0.599   3.187   3.037  0.8913 -1.3102  0.1651
 8288TIP3   OH246278   2.618   6.596   5.408  0.3067  0.4126  0.4290
 8288TIP3    H146279   2.644   6.545   5.484  0.4923 -0.3092 -0.1050
 8288TIP3    H246280   2.688   6.583   5.345  1.3636  2.9475  0.9650
 8289TIP3   OH246281   2.650   5.200   3.529  0.4071 -0.0285  0.1579
 8289TIP3    H146282   2.594   5.199   3.606  1.7579 -1.6194  1.1856
 8289TIP3    H246283   2.631   5.117   3.485  0.8917  0.0972 -0.2930
 8290TIP3   OH246284   1.424   3.265   0.215 -0.2425  0.4052  0.7105
 8290TIP3    H146285   1.477   3.185   0.204 -3.6806 -2.1210  0.8134
 8290TIP3    H246286   1.459   3.305   0.294  1.8735 -0.7720  0.4521
 8291TIP3   OH246287   5.831   5.478   6.211  0.9318 -0.2480  0.4847
 8291TIP3    H146288   5.769   5.480   6.139  0.6659  0.1860  0.7169
 8291TIP3    H246289   5.892   5.550   6.193  0.7586 -0.0251  0.7831
 8292TIP3   OH246290   1.761   2.045  15.056  0.2671 -0.3350 -0.0389
 8292TIP3    H146291   1.851   2.050  15.087 -0.0364 -1.0419  0.9914
 8292TIP3    H246292   1.708   2.047  15.135 -0.5628 -1.4720 -0.5390
 8293TIP3   OH246293   1.030   3.218   0.385 -0.3966 -0.0274  0.1180
 8293TIP3    H146294   1.075   3.253   0.308  0.0918 -0.6357  0.1239
 8293TIP3    H246295   0.947   3.184   0.352  0.0766 -0.8539 -0.2545
 8294TIP3   OH246296   4.923   3.013  13.662  0.0315  0.2312 -0.0385
 8294TIP3    H146297   4.982   3.066  13.609 -0.4802  0.6114 -0.2374
 8294TIP3    H246298   4.924   3.055  13.748  0.9537 -0.4558  0.2933
 8295TIP3   OH246299   3.628   1.938   4.064  0.3518 -0.0071 -0.1962
 8295TIP3    H146300   3.689   1.993   4.016  1.3134 -1.9478 -1.3063
 8295TIP3    H246301   3.656   1.848   4.045 -2.9776 -1.0305 -0.9619
 8296TIP3   OH246302   4.592   2.916  14.434 -0.0632  0.0737 -0.3730
 8296TIP3    H146303   4.598   2.938  14.341 -1.2346 -0.6294 -0.6369
 8296TIP3    H246304   4.530   2.980  14.469  1.1151  0.9658  0.1610
 8297TIP3   OH246305   2.841   3.209  16.929  0.5660 -0.3292 -0.0258
 8297TIP3    H146306   2.864   3.289  16.882  0.9893  0.1369  0.9487
 8297TIP3    H246307   2.752   3.190  16.901  2.0814 -2.4626 -4.2965
 8298TIP3   OH246308   5.122   1.449   5.868  0.3716  0.4221  0.0202
 8298TIP3    H146309   5.103   1.379   5.931  1.9467 -0.2256 -0.1867
 8298TIP3    H246310   5.182   1.507   5.914  2.5972 -0.7553 -1.2503
 8299TIP3   OH246311   1.888   6.609  16.020 -0.1873 -0.4003  0.1292
 8299TIP3    H146312   1.808   6.585  15.972 -0.1056 -2.2182  0.8266
 8299TIP3    H246313   1.957   6.559  15.976  0.3446  0.1044  0.3904
 8300TIP3   OH246314   3.867   1.979   1.262 -0.5036 -0.3017  0.7575
 8300TIP3    H146315   3.895   2.070   1.273  0.4712 -0.5541  0.4494
 8300TIP3    H246316   3.843   1.972   1.170  0.0744 -0.5209  0.6170
 8301TIP3   OH246317   4.956   6.716  15.054  0.0742 -0.4952 -0.2136
 8301TIP3    H146318   4.896   6.647  15.080  1.0447 -0.9776  0.8579
 8301TIP3    H246319   4.935   6.734  14.962 -1.1231 -1.2196 -0.0975
 8302TIP3   OH246320   5.631   5.357   0.422 -0.2465  0.1533 -0.0856
 8302TIP3    H146321   5.626   5.277   0.369 -1.1411  0.5282 -0.5964
 8302TIP3    H246322   5.564   5.414   0.385 -3.4266 -0.8292  3.5574
 8303TIP3   OH246323   6.526   6.090   3.238 -0.1489  0.7991  0.4091
 8303TIP3    H146324   6.509   6.129   3.152  0.0442  0.9408  0.4348
 8303TIP3    H246325   6.555   6.001   3.219  0.3756  0.9904  0.3045
 8304TIP3   OH246326   4.602   4.197   5.557  0.3232 -0.1921  0.0768
 8304TIP3    H146327   4.646   4.249   5.490  1.2946 -0.3599  0.5706
 8304TIP3    H246328   4.600   4.108   5.520  0.1874 -0.1355 -0.0506
 8305TIP3   OH246329   4.441   3.719   5.614 -0.0280 -0.3267 -0.3146
 8305TIP3    H146330   4.410   3.721   5.523 -1.7334 -0.9364  0.2224
 8305TIP3    H246331   4.362   3.715   5.666  0.9269 -2.7724  1.1189
 8306TIP3   OH246332   2.098   4.421  13.918  0.1308 -0.3849 -0.8480
 8306TIP3    H146333   2.139   4.335  13.925 -0.2781 -0.4980  0.4397
 8306TIP3    H246334   2.121   4.466  13.999  0.6986  0.9009 -1.6874
 8307TIP3   OH246335   6.085   1.266  12.514  0.7462  0.6684 -0.2817
 8307TIP3    H146336   6.173   1.241  12.540  1.1437 -0.3778 -2.4391
 8307TIP3    H246337   6.028   1.201  12.556  1.2332 -0.0614 -0.7202
 8308TIP3   OH246338   2.610   4.811  13.050  0.1594  0.2018 -0.2135
 8308TIP3    H146339   2.556   4.852  12.982  1.1968  0.8169 -0.7105
 8308TIP3    H246340   2.548   4.766  13.107 -0.7197 -0.8551 -1.9011
 8309TIP3   OH246341   0.346   1.038   2.683  0.6496  0.1886  0.1878
 8309TIP3    H146342   0.380   0.957   2.644  0.8496  0.4019 -0.0928
 8309TIP3    H246343   0.278   1.067   2.622 -2.3829 -1.9078  2.3137
 8310TIP3   OH246344   5.638   0.209   3.249 -0.3532  0.3071  0.1767
 8310TIP3    H146345   5.616   0.292   3.292 -0.4227  0.5123 -0.2524
 8310TIP3    H246346   5.683   0.234   3.169 -0.4891 -0.0687 -0.0206
 8311TIP3   OH246347   1.335   1.228  17.244 -0.1210 -0.1109  0.0362
 8311TIP3    H146348   1.302   1.221  17.155  0.4476  0.7181 -0.2502
 8311TIP3    H246349   1.420   1.185  17.243  0.6368  1.3190 -0.2512
 8312TIP3   OH246350   2.197   5.459  14.097 -0.1237  0.1787 -0.1273
 8312TIP3    H146351   2.263   5.452  14.165 -0.2459  1.0043  0.0802
 8312TIP3    H246352   2.217   5.388  14.036  0.7501  0.2274  0.1031
 8313TIP3   OH246353   4.684   6.010   5.001 -0.4834 -0.4074  0.0873
 8313TIP3    H146354   4.712   5.937   5.057 -0.6215 -0.4359  0.1197
 8313TIP3    H246355   4.746   6.080   5.021 -0.3316 -0.5281  0.0316
 8314TIP3   OH246356   6.588   1.975   4.267 -0.3478 -0.4118  0.9668
 8314TIP3    H146357   6.607   2.069   4.270 -0.7506 -0.2894  0.1227
 8314TIP3    H246358   6.549   1.962   4.181  0.2789 -1.4682  0.8278
 8315TIP3   OH246359   4.408   0.994   5.105  0.2692  0.0779 -0.3658
 8315TIP3    H146360   4.314   1.010   5.109  0.6064  3.0390 -1.7592
 8315TIP3    H246361   4.445   1.051   5.173  1.2744  2.4687 -2.7355
 8316TIP3   OH246362   3.490   0.321  17.410  0.1593 -0.2583  0.0414
 8316TIP3    H146363   3.401   0.291  17.389  0.4349 -0.0197 -1.6539
 8316TIP3    H246364   3.478   0.405  17.453 -0.4333 -0.0612 -0.5001
 8317TIP3   OH246365   0.506   0.748   4.502  0.1061  0.3925 -0.3756
 8317TIP3    H146366   0.534   0.804   4.430 -0.0675 -0.8127 -1.4156
 8317TIP3    H246367   0.411   0.759   4.505  0.2539  1.5054  0.5983
 8318TIP3   OH246368   2.795   6.508   3.253 -0.2179 -0.0412 -0.1131
 8318TIP3    H146369   2.767   6.594   3.284  3.1198  1.1857 -0.0920
 8318TIP3    H246370   2.783   6.450   3.328 -0.6659  0.8340  0.5053
 8319TIP3   OH246371   5.701   5.416  13.868  0.0589 -0.4616 -0.5858
 8319TIP3    H146372   5.785   5.371  13.863  0.5756  0.5617 -1.2750
 8319TIP3    H246373   5.699   5.454  13.956  0.4435 -0.2508 -0.6668
 8320TIP3   OH246374   2.706   2.204  14.191  0.1454  0.4747  0.2144
 8320TIP3    H146375   2.674   2.279  14.141  1.3065  0.4856 -0.5526
 8320TIP3    H246376   2.663   2.129  14.150 -0.4737  0.6607  0.5221
 8321TIP3   OH246377   0.689   5.620  11.335  0.0094 -0.7064  0.0812
 8321TIP3    H146378   0.658   5.705  11.303  0.6476 -0.6299 -0.3444
 8321TIP3    H246379   0.720   5.574  11.257  1.5635 -0.5257  0.5655
 8322TIP3   OH246380   4.303   0.087   3.009  0.0775  0.6061 -0.2986
 8322TIP3    H146381   4.301   0.175   2.973  0.8369  1.3448  1.3609
 8322TIP3    H246382   4.374   0.043   2.963  1.5557  1.7739  0.7875
 8323TIP3   OH246383   1.878   5.415  16.883 -0.7396  0.1605 -0.1796
 8323TIP3    H146384   1.851   5.328  16.915 -0.4994  0.4482  0.8337
 8323TIP3    H246385   1.908   5.461  16.962 -0.1880  0.9160 -0.8220
 8324TIP3   OH246386   1.613   4.470   3.780 -0.2313  0.0776 -0.2324
 8324TIP3    H146387   1.584   4.549   3.735  0.1191  0.3288 -0.0144
 8324TIP3    H246388   1.645   4.500   3.865 -3.1267 -0.6301  1.2438
 8325TIP3   OH246389   4.645   3.935   1.991  0.2229 -0.0054 -0.2534
 8325TIP3    H146390   4.603   4.020   2.008 -0.0228  0.5347 -3.0009
 8325TIP3    H246391   4.731   3.942   2.033 -0.4796  0.8657  1.1224
 8326TIP3   OH246392   5.041   2.327  10.748  0.2483 -0.2962  0.3051
 8326TIP3    H146393   4.953   2.289  10.743  0.6658 -1.1623 -0.7649
 8326TIP3    H246394   5.067   2.339  10.657  2.0964 -2.0971  0.5305
 8327TIP3   OH246395   4.987   2.660   0.653 -0.0856 -0.2211 -0.3877
 8327TIP3    H146396   5.064   2.604   0.652  0.5078  0.4738  1.5278
 8327TIP3    H246397   4.936   2.629   0.728 -2.1150 -1.1918 -2.0942
 8328TIP3   OH246398   2.387   3.847   0.128  0.0135  0.1924  0.0028
 8328TIP3    H146399   2.349   3.903   0.195 -1.8580 -0.9580  0.0022
 8328TIP3    H246400   2.463   3.807   0.169 -0.2834  0.5764  0.9478
 8329TIP3   OH246401   0.888   2.008  16.983 -0.4519 -0.0123  0.1088
 8329TIP3    H146402   0.866   1.996  16.891 -1.5493 -1.0631  0.4695
 8329TIP3    H246403   0.963   1.950  16.998  1.1646  1.8200 -0.5973
 8330TIP3   OH246404   1.906   0.714   0.432 -0.0157 -0.3569 -0.3687
 8330TIP3    H146405   1.945   0.694   0.518  2.6678 -0.3757 -1.4938
 8330TIP3    H246406   1.906   0.809   0.428  2.6528 -0.3063 -1.3980
 8331TIP3   OH246407   6.201   1.251  15.381 -0.0738 -0.8106  0.0741
 8331TIP3    H146408   6.260   1.235  15.308 -1.7985  0.4936 -1.6820
 8331TIP3    H246409   6.245   1.317  15.434  0.1576 -0.0291 -1.0737
 8332TIP3   OH246410   4.727   3.496   3.665  0.1090  0.2194  0.0682
 8332TIP3    H146411   4.793   3.428   3.650 -0.4825 -0.4018  0.2630
 8332TIP3    H246412   4.643   3.451   3.656 -0.2845  0.6551  1.3552
 8333TIP3   OH246413   6.262   3.934  16.587  0.1961  0.1932 -0.1196
 8333TIP3    H146414   6.233   3.854  16.543 -2.6857  2.0993 -1.9976
 8333TIP3    H246415   6.351   3.949  16.553 -1.2398  0.6425 -4.2007
 8334TIP3   OH246416   6.734   5.998   3.979 -0.2880 -0.1421 -0.4213
 8334TIP3    H146417   6.816   6.041   3.954  0.1105 -0.3369  0.4731
 8334TIP3    H246418   6.743   5.909   3.946 -0.2653 -0.0836 -0.5736
 8335TIP3   OH246419   3.881   1.910  12.134 -0.3702 -0.9283 -0.0243
 8335TIP3    H146420   3.849   1.839  12.078  1.5674 -1.1875 -0.9012
 8335TIP3    H246421   3.849   1.888  12.221  0.2809 -3.0144 -0.2427
 8336TIP3   OH246422   3.152   2.178   5.294  0.2384  0.4026 -0.2395
 8336TIP3    H146423   3.176   2.262   5.333  0.1657  0.3629 -0.1101
 8336TIP3    H246424   3.151   2.195   5.200  2.2424  0.0488 -0.3771
 8337TIP3   OH246425   3.704   0.507  17.261 -0.1306  0.3241  0.1759
 8337TIP3    H146426   3.619   0.489  17.222 -0.2083 -1.7093  1.1102
 8337TIP3    H246427   3.685   0.563  17.336 -0.5656  0.4017  0.0105
 8338TIP3   OH246428   2.879   3.195  11.368  0.1814  0.2648 -0.3423
 8338TIP3    H146429   2.810   3.223  11.307  0.0716  0.5458 -0.0932
 8338TIP3    H246430   2.867   3.251  11.444 -0.5061 -0.9382  0.4716
 8339TIP3   OH246431   1.602   1.853  13.681 -0.3061  0.0538 -0.8470
 8339TIP3    H146432   1.612   1.761  13.658 -0.6147  0.1524 -1.4055
 8339TIP3    H246433   1.680   1.895  13.645 -0.3766  0.0771 -0.9733
 8340TIP3   OH246434   5.203   5.616  14.870 -0.1274 -0.0377  0.5249
 8340TIP3    H146435   5.158   5.571  14.798 -0.5003 -0.3999  0.9773
 8340TIP3    H246436   5.237   5.546  14.925 -0.8762  0.2131  1.3419
 8341TIP3   OH246437   0.549   4.292   5.238 -0.7302 -0.4774 -0.2510
 8341TIP3    H146438   0.587   4.219   5.189 -0.4501  0.0847 -0.9009
 8341TIP3    H246439   0.457   4.293   5.213 -0.3406  0.6112 -1.8720
 8342TIP3   OH246440   0.344   2.565   1.066  0.6486  0.2987  0.1146
 8342TIP3    H146441   0.404   2.502   1.105  0.1168  0.8788  1.9937
 8342TIP3    H246442   0.311   2.521   0.988  2.6216 -0.4773 -0.3446
 8343TIP3   OH246443   4.965   1.126   0.255 -0.2093  0.1084  0.3327
 8343TIP3    H146444   5.027   1.193   0.282 -0.2716  0.2206  0.2010
 8343TIP3    H246445   4.928   1.159   0.173 -1.7850  0.9038  1.3271
 8344TIP3   OH246446   3.973   2.490  12.289 -0.2162  0.8054 -0.4963
 8344TIP3    H146447   4.014   2.475  12.374 -1.7463 -1.1233 -0.0197
 8344TIP3    H246448   3.942   2.580  12.293 -1.4227  0.3730  1.5618
 8345TIP3   OH246449   3.681   5.888  12.448  0.1884  0.3830 -0.1810
 8345TIP3    H146450   3.689   5.845  12.363 -0.0666 -0.7716  0.3631
 8345TIP3    H246451   3.704   5.820  12.511 -0.9738  0.8156  0.7377
 8346TIP3   OH246452   4.915   0.139  15.700 -0.2243  0.5457  0.4772
 8346TIP3    H146453   4.862   0.155  15.622  1.7563  0.5609 -0.9540
 8346TIP3    H246454   4.973   0.067  15.674  0.2895  0.3695  2.0509
 8347TIP3   OH246455   0.392   6.572  14.952 -0.3572  1.2796 -0.0627
 8347TIP3    H146456   0.414   6.571  15.045 -1.9091 -0.9374  0.3896
 8347TIP3    H246457   0.327   6.641  14.943  0.1255  1.7970  0.4119
 8348TIP3   OH246458   0.402   6.674  11.941  0.7662  0.1545 -0.0269
 8348TIP3    H146459   0.340   6.739  11.976  0.7808  0.5109 -0.6579
 8348TIP3    H246460   0.353   6.592  11.944  0.1469  0.4790 -0.7798
 8349TIP3   OH246461   6.333   1.380   1.246  0.4985  0.3466 -0.1624
 8349TIP3    H146462   6.239   1.393   1.251  0.5413  1.0555 -0.9775
 8349TIP3    H246463   6.346   1.329   1.166  0.7737 -0.2746  0.2603
 8350TIP3   OH246464   4.537   1.581  16.187 -0.0142  0.2857  0.4767
 8350TIP3    H146465   4.562   1.523  16.259 -0.6491  1.4289  1.6685
 8350TIP3    H246466   4.442   1.571  16.180  0.0493  0.1704 -0.2091
 8351TIP3   OH246467   0.023   2.140   3.994  0.3448  0.8144 -0.4943
 8351TIP3    H146468   0.005   2.186   3.912  0.8118  0.5561 -0.7469
 8351TIP3    H246469   0.013   2.047   3.971  2.6914  0.5733 -0.8712
 8352TIP3   OH246470   0.508   4.710   4.170 -0.1584  0.5694 -0.2070
 8352TIP3    H146471   0.576   4.734   4.233 -0.0517 -0.5358  0.1111
 8352TIP3    H246472   0.502   4.615   4.175 -0.4104  0.4863 -1.6137
 8353TIP3   OH246473   3.413   4.339  12.158  0.0549  0.2700  0.0054
 8353TIP3    H146474   3.476   4.266  12.156  1.1346  1.1579  0.4966
 8353TIP3    H246475   3.391   4.353  12.066  0.7011  0.0459 -0.1951
 8354TIP3   OH246476   3.019   3.722   3.134 -0.3340 -0.3427 -0.3924
 8354TIP3    H146477   3.048   3.675   3.212 -0.4593  0.2770  0.0367
 8354TIP3    H246478   3.034   3.815   3.154 -0.0702 -0.1941 -1.2269
 8355TIP3   OH246479   5.614   6.703  13.178 -0.1135  0.0546 -0.1412
 8355TIP3    H146480   5.648   6.784  13.215 -0.1951  0.3811 -0.7619
 8355TIP3    H246481   5.578   6.655  13.253 -1.0542  1.0731  0.0892
 8356TIP3   OH246482   2.124   4.597   5.978  0.1264 -0.3767  0.1517
 8356TIP3    H146483   2.150   4.665   6.040  0.0526 -0.8741  0.7365
 8356TIP3    H246484   2.134   4.638   5.892  0.3418  0.2821  0.4833
 8357TIP3   OH246485   4.173   5.700   5.121  0.2498 -0.1433 -0.1066
 8357TIP3    H146486   4.211   5.692   5.209  1.1112 -2.2488 -0.6305
 8357TIP3    H246487   4.237   5.660   5.063 -0.6292  0.5873 -1.6350
 8358TIP3   OH246488   6.673   3.776  11.505  0.2607  0.4727 -0.4859
 8358TIP3    H146489   6.680   3.692  11.550 -1.7309  0.5314  0.0612
 8358TIP3    H246490   6.613   3.760  11.432  1.1998  1.0429 -1.4024
 8359TIP3   OH246491   6.606   5.008  13.037 -0.2116 -0.2320 -0.0928
 8359TIP3    H146492   6.650   5.009  12.952  1.7923 -4.4308  0.6366
 8359TIP3    H246493   6.674   5.037  13.099 -1.0988  1.0672  0.3042
 8360TIP3   OH246494   5.996   6.619  14.715  0.4390 -0.0765 -0.7786
 8360TIP3    H146495   5.964   6.709  14.722 -1.0376 -0.6683  0.6528
 8360TIP3    H246496   6.091   6.627  14.724  0.4319  1.4248 -1.7254
 8361TIP3   OH246497   4.734   3.169  13.930  0.4812  0.2971 -0.2710
 8361TIP3    H146498   4.683   3.204  14.003  2.0143 -0.0207  1.0077
 8361TIP3    H246499   4.674   3.108  13.887 -1.3886  2.5085 -1.0252
 8362TIP3   OH246500   6.587   4.105   3.731 -0.2232  0.5436 -0.4432
 8362TIP3    H146501   6.571   4.132   3.821  1.5079  2.8088 -0.7395
 8362TIP3    H246502   6.510   4.051   3.709  0.1843 -1.7282  2.9120
 8363TIP3   OH246503   2.357   0.166   1.879  0.2893  0.5802 -0.1756
 8363TIP3    H146504   2.344   0.248   1.831 -0.3279  1.3128  1.2093
 8363TIP3    H246505   2.443   0.174   1.918 -0.5251  1.4356  1.5425
 8364TIP3   OH246506   4.705   0.860   5.977  0.3999  0.4325  0.1567
 8364TIP3    H146507   4.735   0.856   5.886 -1.3681  2.2128 -0.5750
 8364TIP3    H246508   4.661   0.776   5.991 -0.1920  0.5429 -0.9697
 8365TIP3   OH246509   5.988   1.513  12.177  0.7723  0.1508 -0.0151
 8365TIP3    H146510   6.030   1.486  12.095  1.7035  0.7698  0.2432
 8365TIP3    H246511   6.061   1.528  12.237  0.2348  2.0184  0.2160
 8366TIP3   OH246512   4.955   3.047  11.331 -0.1284 -0.4202  0.1806
 8366TIP3    H146513   4.955   3.084  11.243 -2.0184 -1.0637 -0.1326
 8366TIP3    H246514   5.044   3.012  11.342  0.4331  0.5403 -1.0632
 8367TIP3   OH246515   0.495   5.810  16.247 -0.1321  0.3187  0.6479
 8367TIP3    H146516   0.549   5.767  16.314  0.5427 -0.5255 -0.4024
 8367TIP3    H246517   0.521   5.902  16.251  0.3487  0.1687  1.1201
 8368TIP3   OH246518   5.473   6.404  11.577 -0.1079  0.0707 -0.1781
 8368TIP3    H146519   5.488   6.444  11.491  1.9912 -0.0963  0.0446
 8368TIP3    H246520   5.397   6.347  11.564 -1.5311  2.0657 -1.1781
 8369TIP3   OH246521   6.325   4.565   6.442 -0.2733  0.4068  0.3733
 8369TIP3    H146522   6.363   4.484   6.477 -0.0279 -0.0399 -0.8922
 8369TIP3    H246523   6.296   4.613   6.520  0.5546 -0.4073  1.2074
 8370TIP3   OH246524   0.279   6.437  13.606 -0.1193  0.1422 -0.5185
 8370TIP3    H146525   0.291   6.529  13.581 -0.8064  0.7136  1.1061
 8370TIP3    H246526   0.219   6.402  13.541  1.0454  0.4865 -1.8354
 8371TIP3   OH246527   2.884   2.366   1.118 -0.1568 -0.4503  0.0578
 8371TIP3    H146528   2.885   2.323   1.033  0.3630 -3.1246  1.3169
 8371TIP3    H246529   2.830   2.444   1.105 -1.8379 -1.8856 -2.2264
 8372TIP3   OH246530   0.514   6.284   0.619 -0.3000  0.2651 -0.0907
 8372TIP3    H146531   0.568   6.212   0.653  0.3631  0.7383 -0.1135
 8372TIP3    H246532   0.459   6.309   0.693  1.6565  1.7898  0.9486
 8373TIP3   OH246533   5.731   1.047   3.930  0.2506  0.1383 -0.0758
 8373TIP3    H146534   5.699   1.042   4.019  0.1366  2.5482  0.0762
 8373TIP3    H246535   5.656   1.021   3.875  0.1293 -0.7010  0.4651
 8374TIP3   OH246536   0.198   3.418   0.700  0.4268  0.1347  0.7378
 8374TIP3    H146537   0.259   3.403   0.628  0.4130  1.0076  0.5330
 8374TIP3    H246538   0.253   3.431   0.777  0.4305 -2.8262  1.3635
 8375TIP3   OH246539   3.784   5.932   1.358 -0.0852  0.1337 -0.3654
 8375TIP3    H146540   3.781   5.973   1.445  0.1657  0.0942 -0.3377
 8375TIP3    H246541   3.723   5.983   1.306 -1.5581 -0.8896  0.2784
 8376TIP3   OH246542   6.705   0.671   3.114 -0.4373 -0.7860 -0.4838
 8376TIP3    H146543   6.625   0.681   3.062  0.7137 -1.2738 -2.4677
 8376TIP3    H246544   6.773   0.717   3.064  0.9808 -2.2995 -0.0552
 8377TIP3   OH246545   2.734   0.014   3.862  0.7252 -0.2513  0.3090
 8377TIP3    H146546   2.703   0.079   3.799  0.8109 -1.5384 -1.1200
 8377TIP3    H246547   2.656  -0.036   3.886  0.7392  0.0698  1.0336
 8378TIP3   OH246548   0.435   0.896  13.607  0.3352  0.1385  0.2239
 8378TIP3    H146549   0.428   0.969  13.668  0.6276 -0.2594  0.7426
 8378TIP3    H246550   0.529   0.881  13.598  0.2811 -0.0990  0.0269
 8379TIP3   OH246551   5.398   5.315  13.438  0.1561  0.1673 -0.1342
 8379TIP3    H146552   5.370   5.248  13.375 -2.3751  0.0419  1.0167
 8379TIP3    H246553   5.342   5.390  13.419  0.0382  0.4637  1.3147
 8380TIP3   OH246554   2.928   6.158  16.232  0.0810 -0.0057 -0.2488
 8380TIP3    H146555   2.921   6.252  16.245 -0.5874 -0.0548 -0.2389
 8380TIP3    H246556   3.018   6.137  16.256 -0.0022  0.5013  0.5150
 8381TIP3   OH246557   1.901   4.123  13.276 -0.4008  0.2011 -0.1108
 8381TIP3    H146558   1.831   4.130  13.341 -0.2071 -1.8971  0.4078
 8381TIP3    H246559   1.894   4.033  13.243  1.6613  0.1260 -0.4813
 8382TIP3   OH246560   6.014   1.872   5.744  0.5736 -0.6162 -0.4064
 8382TIP3    H146561   5.936   1.927   5.742  0.7553 -0.3800 -1.6157
 8382TIP3    H246562   6.069   1.911   5.812  0.5225  0.4445 -0.9594
 8383TIP3   OH246563   5.061   5.027   4.122 -0.4307 -0.3447 -0.2462
 8383TIP3    H146564   5.043   4.957   4.059  1.2926 -1.9286  0.9298
 8383TIP3    H246565   5.150   5.055   4.101 -0.3296  0.0104  0.6579
 8384TIP3   OH246566   6.292   3.404   6.413  0.4559  0.3584  0.6777
 8384TIP3    H146567   6.323   3.314   6.430 -1.7558 -0.4347  0.7661
 8384TIP3    H246568   6.338   3.429   6.332  0.6238 -1.1025  0.2816
 8385TIP3   OH246569   5.114   4.304   5.884 -0.0399 -0.5365  0.4288
 8385TIP3    H146570   5.113   4.308   5.980 -1.2376 -1.8694  0.5021
 8385TIP3    H246571   5.140   4.392   5.857 -0.6576  0.1609  1.9777
 8386TIP3   OH246572   2.463   4.926   2.159 -0.1534 -0.2913  0.4307
 8386TIP3    H146573   2.374   4.958   2.172 -0.3415 -0.8399  0.4888
 8386TIP3    H246574   2.515   4.974   2.223 -0.3438  0.2872  0.1656
 8387TIP3   OH246575   0.422   4.971  17.196 -0.2464 -0.2159  0.1974
 8387TIP3    H146576   0.344   4.965  17.251  0.4909 -1.2504  1.2047
 8387TIP3    H246577   0.486   4.915  17.241  0.6224 -0.5136 -1.3574
 8388TIP3   OH246578   0.894   5.557   5.957 -0.2587 -1.2108 -0.5749
 8388TIP3    H146579   0.818   5.599   5.916 -0.1928 -0.4207  0.0781
 8388TIP3    H246580   0.968   5.584   5.903 -0.1472 -0.0167  0.1325
 8389TIP3   OH246581   1.657   1.474   0.166 -0.1493  0.1251 -0.1754
 8389TIP3    H146582   1.616   1.556   0.138 -0.2378 -0.3123 -1.4331
 8389TIP3    H246583   1.642   1.414   0.092  0.8400 -0.6983  0.2616
 8390TIP3   OH246584   2.639   4.439   1.500  0.3385  0.2764  0.2495
 8390TIP3    H146585   2.668   4.530   1.499 -2.2008  1.1698 -0.0278
 8390TIP3    H246586   2.707   4.391   1.453  0.7395  2.3856 -1.4497
 8391TIP3   OH246587   0.325   3.521  14.069 -0.3874 -0.5933  0.0819
 8391TIP3    H146588   0.419   3.536  14.064 -0.4928  0.3803  0.6265
 8391TIP3    H246589   0.313   3.429  14.045  0.7039 -0.7362  0.0566
 8392TIP3   OH246590   1.237   3.211   3.265  0.0524 -0.7557  0.4781
 8392TIP3    H146591   1.190   3.221   3.348  0.6027 -0.7265  0.7928
 8392TIP3    H246592   1.291   3.133   3.277  0.8240 -0.2353  0.4942
 8393TIP3   OH246593   4.685   2.911  16.348  0.3837 -0.2325  0.1041
 8393TIP3    H146594   4.725   2.896  16.434  0.3582  1.3247  0.4214
 8393TIP3    H246595   4.746   2.970  16.304 -1.2500  1.7525  0.3818
 8394TIP3   OH246596   5.461   5.212  12.998 -0.0756 -0.8542  0.1375
 8394TIP3    H146597   5.503   5.130  13.025 -1.5868 -1.7341 -0.0622
 8394TIP3    H246598   5.368   5.199  13.017 -0.1961  1.3887  1.4365
 8395TIP3   OH246599   1.031   3.953  16.724  0.0609  0.3800  0.4155
 8395TIP3    H146600   0.978   3.888  16.679  1.9637 -1.0774  0.1511
 8395TIP3    H246601   1.032   3.925  16.816  3.0081 -1.6796 -0.0841
 8396TIP3   OH246602   6.351   5.512  11.736  0.1342 -0.4570 -0.3168
 8396TIP3    H146603   6.392   5.459  11.804  1.9672 -1.8801 -2.4015
 8396TIP3    H246604   6.398   5.596  11.740 -0.8725  0.0845  1.1469
 8397TIP3   OH246605   5.144   1.189   4.274  0.6867  0.0925  0.2554
 8397TIP3    H146606   5.200   1.255   4.316 -0.7674  1.1077  0.7017
 8397TIP3    H246607   5.193   1.161   4.197  1.9691  0.6447  0.8507
 8398TIP3   OH246608   2.115   0.972  15.113 -0.3855  0.2499  0.4635
 8398TIP3    H146609   2.179   0.963  15.184  0.2424  0.8853 -0.0040
 8398TIP3    H246610   2.109   1.067  15.098  1.0371  0.0824 -1.6812
 8399TIP3   OH246611   2.322   0.677   2.166  0.4156  0.1133 -0.3393
 8399TIP3    H146612   2.300   0.761   2.207  1.7443  1.0401 -1.4007
 8399TIP3    H246613   2.256   0.616   2.198 -1.1012  1.7539 -0.1684
 8400TIP3   OH246614   2.619   6.026  15.490  0.1243 -0.4592 -0.3259
 8400TIP3    H146615   2.677   5.976  15.548  1.1807  1.7138  0.6210
 8400TIP3    H246616   2.628   6.116  15.520 -1.3407  0.3886 -2.2435
 8401TIP3   OH246617   0.349   3.973  16.982  0.0163  0.0028 -0.1458
 8401TIP3    H146618   0.327   3.951  16.891 -0.4225  1.4692 -0.4150
 8401TIP3    H246619   0.264   3.985  17.025  0.1697  2.9274 -0.4899
 8402TIP3   OH246620   6.629   0.472  12.706  0.0641  0.1576 -0.0938
 8402TIP3    H146621   6.666   0.530  12.772 -0.5036  1.1996 -0.6502
 8402TIP3    H246622   6.695   0.467  12.637  1.6083 -2.6733  1.4165
 8403TIP3   OH246623   2.840   2.905   1.451  0.0903  0.1250 -0.8005
 8403TIP3    H146624   2.887   2.849   1.389 -0.9407 -1.3731 -0.2771
 8403TIP3    H246625   2.893   2.901   1.531  0.2403  0.2472 -0.8926
 8404TIP3   OH246626   1.786   6.094   3.866  0.1269 -0.8179  0.2951
 8404TIP3    H146627   1.736   6.098   3.947 -2.0048 -2.1143 -0.8581
 8404TIP3    H246628   1.829   6.179   3.859 -4.1630  1.6080  0.0574
 8405TIP3   OH246629   2.623   2.726  14.886 -0.4238 -0.0017 -0.4650
 8405TIP3    H146630   2.575   2.651  14.853 -0.1437  0.4255 -1.8886
 8405TIP3    H246631   2.677   2.755  14.813  2.4436 -0.7650  1.2083
 8406TIP3   OH246632   0.792   2.866   5.065 -0.1292 -0.1710  0.6129
 8406TIP3    H146633   0.777   2.779   5.103 -0.3027 -0.5656 -0.3511
 8406TIP3    H246634   0.744   2.926   5.123  0.5394 -0.6272  1.6689
 8407TIP3   OH246635   6.060   6.224   2.731  0.0982  0.3373 -0.5302
 8407TIP3    H146636   6.043   6.153   2.669 -0.1611  0.2869 -0.4038
 8407TIP3    H246637   6.156   6.225   2.741  0.0854 -0.1956 -0.3068
 8408TIP3   OH246638   0.605   6.278   3.319  0.6157 -0.0838 -0.1862
 8408TIP3    H146639   0.631   6.304   3.231 -1.3828  0.8571 -0.5673
 8408TIP3    H246640   0.509   6.272   3.315  0.5968 -1.7674  1.4754
 8409TIP3   OH246641   4.547   5.099   4.176  0.2974  0.0149  0.0730
 8409TIP3    H146642   4.532   5.072   4.267  0.1229 -0.7672 -0.1786
 8409TIP3    H246643   4.642   5.101   4.167  0.3119 -0.6290  0.0665
 8410TIP3   OH246644   4.798   3.611   0.839 -0.1969  0.3502  0.4788
 8410TIP3    H146645   4.739   3.656   0.779  1.6778 -0.5929 -2.2846
 8410TIP3    H246646   4.771   3.519   0.833  1.4699 -0.1018 -0.8731
 8411TIP3   OH246647   1.559   5.638   1.294  0.1052  0.4199  0.4126
 8411TIP3    H146648   1.597   5.559   1.332  0.6175 -0.1491 -1.2111
 8411TIP3    H246649   1.533   5.612   1.206  3.7316  2.9114 -1.6543
 8412TIP3   OH246650   3.966   3.551  12.868  0.4539 -0.2834  0.5150
 8412TIP3    H146651   3.989   3.564  12.960  3.2190 -0.0102 -0.1079
 8412TIP3    H246652   4.006   3.467  12.845  0.5304  0.0424 -0.6331
 8413TIP3   OH246653   1.384   3.145  16.610 -0.0260  0.3007  0.2740
 8413TIP3    H146654   1.374   3.237  16.586 -0.1249  0.2399  0.0797
 8413TIP3    H246655   1.474   3.123  16.587 -0.2851  0.0906 -0.5687
 8414TIP3   OH246656   4.651   4.196   1.127  0.0780  0.0321 -0.2001
 8414TIP3    H146657   4.676   4.289   1.132  2.3011 -0.5520  0.9508
 8414TIP3    H246658   4.701   4.162   1.052  2.5976 -1.0268  1.7831
 8415TIP3   OH246659   6.062   3.934  16.206  0.4299 -0.0787  0.2874
 8415TIP3    H146660   6.014   3.962  16.129 -0.0189 -3.0760 -0.6172
 8415TIP3    H246661   6.008   3.964  16.280 -1.6202 -1.2347 -0.6575
 8416TIP3   OH246662   5.630   4.307   2.521 -0.6439 -0.7264 -0.0299
 8416TIP3    H146663   5.664   4.397   2.525 -1.6428 -0.3310  0.0212
 8416TIP3    H246664   5.545   4.312   2.565 -0.4924 -1.8134  0.4120
 8417TIP3   OH246665   2.948   0.709  13.768 -0.2018  0.1879  0.4297
 8417TIP3    H146666   3.030   0.759  13.764  0.6151 -1.1979 -1.6341
 8417TIP3    H246667   2.966   0.629  13.719 -2.5859 -0.5025  0.5486
 8418TIP3   OH246668   4.738   4.976   3.451  0.2231 -0.3263  0.2342
 8418TIP3    H146669   4.817   4.947   3.406 -0.9236  0.2812 -2.3795
 8418TIP3    H246670   4.767   5.043   3.512  2.0669 -2.3032  1.6893
 8419TIP3   OH246671   3.478   2.468   2.667  0.5474  0.0190 -0.0125
 8419TIP3    H146672   3.512   2.388   2.627 -1.3777 -0.7412 -0.2558
 8419TIP3    H246673   3.520   2.472   2.753  1.5638 -0.6019 -0.4643
 8420TIP3   OH246674   3.345   2.538  11.760 -0.2696  0.3141  0.2831
 8420TIP3    H146675   3.366   2.586  11.681 -1.0176  2.8700  1.5332
 8420TIP3    H246676   3.417   2.559  11.821  1.8963 -3.8762 -0.4080
 8421TIP3   OH246677   2.763   0.181   0.347 -0.4247  0.2288  0.3557
 8421TIP3    H146678   2.814   0.101   0.355  0.3643  0.8630  2.4046
 8421TIP3    H246679   2.824   0.246   0.313 -0.1282  0.7232  1.7744
 8422TIP3   OH246680   2.333   0.676  13.883 -0.2282  0.1201 -0.4563
 8422TIP3    H146681   2.390   0.618  13.933 -1.2188 -0.2100  0.3163
 8422TIP3    H246682   2.381   0.692  13.801 -0.4534 -2.7869 -1.2682
 8423TIP3   OH246683   5.664   5.443   1.753  0.4197  0.2612 -0.1684
 8423TIP3    H146684   5.657   5.389   1.675  0.8416 -0.3440  0.2012
 8423TIP3    H246685   5.732   5.401   1.805  1.0674  1.4018 -0.0650
 8424TIP3   OH246686   5.372   2.792  13.121 -0.3676  0.1164 -0.1572
 8424TIP3    H146687   5.281   2.774  13.098  0.1151 -1.4041 -0.9909
 8424TIP3    H246688   5.405   2.847  13.050 -0.2320 -0.5906 -0.6561
 8425TIP3   OH246689   2.167   2.726   2.186  0.3830 -0.2858  0.0289
 8425TIP3    H146690   2.231   2.791   2.215 -0.2932  0.2711  0.3037
 8425TIP3    H246691   2.202   2.642   2.216  0.1977  0.1664  1.6130
 8426TIP3   OH246692   6.514   0.708  14.569  0.7179 -0.6520  0.0140
 8426TIP3    H146693   6.530   0.622  14.531 -0.8880 -0.0787 -2.1850
 8426TIP3    H246694   6.419   0.710  14.585  0.8621  0.3918  0.8762
 8427TIP3   OH246695   1.377   5.551   4.068 -0.6918  0.0010 -0.4321
 8427TIP3    H146696   1.308   5.494   4.034  1.1053 -1.5888 -1.6268
 8427TIP3    H246697   1.422   5.498   4.133  0.9417  0.0409 -1.4885
 8428TIP3   OH246698   4.412   1.694   3.807 -0.8171  0.2864  0.3451
 8428TIP3    H146699   4.318   1.710   3.803 -0.8550  1.0813  2.9004
 8428TIP3    H246700   4.452   1.778   3.784 -0.6559 -0.1375 -1.0804
 8429TIP3   OH246701   1.662   0.260   5.122  0.3852  0.1351  0.3794
 8429TIP3    H146702   1.644   0.271   5.216 -0.4370 -0.8501  0.3610
 8429TIP3    H246703   1.588   0.303   5.078 -0.8177 -1.8921  0.2647
 8430TIP3   OH246704   2.234   0.402  15.581  0.3616 -0.6078 -0.5434
 8430TIP3    H146705   2.298   0.407  15.510 -0.7785 -0.4809 -1.6077
 8430TIP3    H246706   2.267   0.332  15.638  2.1120  0.3412 -0.3313
 8431TIP3   OH246707   2.896   5.763   2.616 -0.2037  0.5932  0.3113
 8431TIP3    H146708   2.880   5.844   2.664 -0.0672  0.8318 -0.0375
 8431TIP3    H246709   2.865   5.780   2.527 -0.8090  0.0244  0.4028
 8432TIP3   OH246710   0.714   4.217   5.722 -0.1912 -0.2546  0.2023
 8432TIP3    H146711   0.653   4.270   5.773 -0.2595  0.9213 -1.0383
 8432TIP3    H246712   0.699   4.127   5.753 -2.3907  0.0096  0.0965
 8433TIP3   OH246713   3.110   4.667   4.643  0.1481  0.0627 -0.8913
 8433TIP3    H146714   3.094   4.705   4.557 -0.7955 -1.0021 -1.2188
 8433TIP3    H246715   3.095   4.739   4.705  0.3537  0.7075 -1.5787
 8434TIP3   OH246716   1.967   3.340  17.425  0.8239  0.2356  0.5398
 8434TIP3    H146717   1.913   3.295  17.360  0.9043  2.2690 -1.0616
 8434TIP3    H246718   2.019   3.271  17.466 -1.0143 -1.4232  0.2117
 8435TIP3   OH246719   6.054   3.699  16.430 -0.3550 -0.5997  0.2523
 8435TIP3    H146720   6.042   3.612  16.392  0.0961 -0.3141 -0.5564
 8435TIP3    H246721   6.142   3.725  16.402 -1.5037  1.2679 -1.8442
 8436TIP3   OH246722   3.005   1.889   5.562 -0.2533  0.0513 -0.3271
 8436TIP3    H146723   2.967   1.806   5.531 -0.6181 -0.3666  1.1582
 8436TIP3    H246724   3.099   1.874   5.559 -0.2113  0.4105 -2.2015
 8437TIP3   OH246725   3.560   6.558  12.187 -0.0920 -0.6065  0.1889
 8437TIP3    H146726   3.539   6.590  12.274 -4.3429 -1.9913 -0.0530
 8437TIP3    H246727   3.562   6.462  12.196 -0.4806 -0.7728 -1.1414
 8438TIP3   OH246728   5.265   3.560  12.733  0.4926 -0.1167  0.3010
 8438TIP3    H146729   5.198   3.545  12.800 -0.2941  0.1151 -0.4243
 8438TIP3    H246730   5.257   3.653  12.712  0.7628 -0.1803 -0.0860
 8439TIP3   OH246731   3.505   0.235   2.556 -0.8202  0.3439  0.6244
 8439TIP3    H146732   3.466   0.180   2.487  0.4654 -0.0888  0.2077
 8439TIP3    H246733   3.467   0.202   2.637  0.7390 -1.9924  0.5132
 8440TIP3   OH246734   0.820   1.576  13.020  0.0304 -0.1607  0.5753
 8440TIP3    H146735   0.894   1.540  13.069  1.1372 -0.2605 -1.0639
 8440TIP3    H246736   0.785   1.500  12.972  0.2058  0.2673 -0.2506
 8441TIP3   OH246737   3.316   3.217   2.358  0.0248  0.3480  0.3475
 8441TIP3    H146738   3.249   3.219   2.426  0.3592 -0.8809  0.7272
 8441TIP3    H246739   3.361   3.134   2.370  2.0154  1.3694  0.4602
 8442TIP3   OH246740   5.325   4.500  14.600  0.2187 -0.1438 -0.4899
 8442TIP3    H146741   5.277   4.426  14.563 -1.4798  1.3098 -1.3755
 8442TIP3    H246742   5.415   4.468  14.609 -0.7441 -2.8187  0.7357
 8443TIP3   OH246743   0.236   4.426  14.064 -0.1264  0.5412  0.1559
 8443TIP3    H146744   0.211   4.341  14.028 -0.1103 -0.5722  2.5434
 8443TIP3    H246745   0.299   4.461  14.001 -0.1167 -1.2225 -0.8881
 8444TIP3   OH246746   3.832   4.988   6.250 -0.6719  0.2506 -0.1173
 8444TIP3    H146747   3.829   5.082   6.235 -1.1336  0.1092 -0.9560
 8444TIP3    H246748   3.835   4.979   6.345  0.8126  1.1482 -0.0356
 8445TIP3   OH246749   2.497   5.766   2.204  0.6417  0.3508  0.3724
 8445TIP3    H146750   2.473   5.809   2.286  1.1073  0.6695  0.3424
 8445TIP3    H246751   2.418   5.772   2.149  0.5282  0.6725  0.5710
 8446TIP3   OH246752   5.406   0.712  13.882  0.2594 -0.6047  0.3758
 8446TIP3    H146753   5.483   0.663  13.910 -0.9294 -4.1681 -1.8747
 8446TIP3    H246754   5.426   0.739  13.793  0.1364  1.4699  0.9395
 8447TIP3   OH246755   2.177   5.427  16.630  0.0103 -0.5698  0.2367
 8447TIP3    H146756   2.209   5.499  16.575  0.5977 -1.0270 -0.0317
 8447TIP3    H246757   2.157   5.468  16.714  1.7032 -0.3046  0.5500
 8448TIP3   OH246758   5.610   1.203  17.025  0.1870 -0.0571 -0.5417
 8448TIP3    H146759   5.660   1.162  17.096  0.7629  1.1266 -0.2435
 8448TIP3    H246760   5.635   1.155  16.947 -1.1869 -2.0342  0.1448
 8449TIP3   OH246761   0.998   6.434  15.206 -0.6334  0.1603  0.3309
 8449TIP3    H146762   0.931   6.429  15.274 -0.2093  3.4333  1.1820
 8449TIP3    H246763   0.950   6.423  15.124 -2.2796  2.1537  0.9269
 8450TIP3   OH246764   2.563   4.762  12.324  0.5056 -0.0071  0.4943
 8450TIP3    H146765   2.650   4.730  12.346  0.6387  0.9430  1.4370
 8450TIP3    H246766   2.565   4.855  12.344 -0.3823  0.2738 -0.5872
 8451TIP3   OH246767   0.639   3.645   3.116  0.2556 -0.0550  0.1972
 8451TIP3    H146768   0.634   3.734   3.082 -0.8003 -0.1050  0.1999
 8451TIP3    H246769   0.550   3.611   3.109  0.5414 -0.9426  0.6616
 8452TIP3   OH246770   3.478   0.817   1.596  0.2857  0.0058 -0.0697
 8452TIP3    H146771   3.398   0.777   1.561 -0.6699  1.4483  0.3801
 8452TIP3    H246772   3.547   0.785   1.538 -0.1651 -3.3321  1.0375
 8453TIP3   OH246773   2.474   3.061   0.695  0.5479  0.0262 -0.5130
 8453TIP3    H146774   2.461   3.155   0.677 -1.1081 -0.3300 -1.4510
 8453TIP3    H246775   2.527   3.059   0.774 -0.0880  1.7678  0.0204
 8454TIP3   OH246776   3.930   5.259   0.369  0.6108  0.3552 -0.0946
 8454TIP3    H146777   3.959   5.264   0.460 -0.7417  0.6277  0.3418
 8454TIP3    H246778   3.840   5.290   0.370  0.5020  0.1800 -1.5044
 8455TIP3   OH246779   3.131   0.330  16.947 -0.3230  0.9536 -0.3720
 8455TIP3    H146780   3.133   0.352  17.040 -1.0052  1.0887 -0.3795
 8455TIP3    H246781   3.072   0.395  16.908 -0.7960  0.3229 -0.7306
 8456TIP3   OH246782   4.729   5.611   4.291 -0.2524 -0.5254  0.5363
 8456TIP3    H146783   4.706   5.640   4.379 -2.8187 -1.6174  0.3067
 8456TIP3    H246784   4.648   5.621   4.240  0.4071 -2.3756 -1.0074
 8457TIP3   OH246785   2.258   3.268   6.005 -0.0158  0.9368 -0.6390
 8457TIP3    H146786   2.236   3.220   5.926  0.0046  1.9801 -1.3070
 8457TIP3    H246787   2.190   3.245   6.068  0.5283 -0.6802 -0.6037
 8458TIP3   OH246788   6.095   4.670  17.303  0.4943 -0.1606 -0.3667
 8458TIP3    H146789   6.078   4.721  17.382  1.1671  2.2327 -1.6943
 8458TIP3    H246790   6.103   4.734  17.233 -1.8857 -2.2663 -2.8197
 8459TIP3   OH246791   0.879   3.249  10.994  0.3588  0.2260 -0.0587
 8459TIP3    H146792   0.929   3.171  11.016 -0.4198 -0.1588  0.3877
 8459TIP3    H246793   0.936   3.299  10.937  1.0505 -0.4451  0.0345
 8460TIP3   OH246794   2.423   5.921   1.234  0.2275  0.1841 -0.4773
 8460TIP3    H146795   2.445   5.832   1.259 -0.0226  0.0449 -0.7382
 8460TIP3    H246796   2.504   5.971   1.245 -0.1601  0.3928  1.7426
 8461TIP3   OH246797   0.985   2.152  13.573 -0.5860 -0.2471  0.3596
 8461TIP3    H146798   1.048   2.150  13.645 -1.2801 -1.9184  0.9771
 8461TIP3    H246799   0.900   2.140  13.615 -1.2892  1.3971 -0.5163
 8462TIP3   OH246800   4.250   2.716  12.396  0.5397 -0.0444  0.2247
 8462TIP3    H146801   4.206   2.642  12.437 -3.0946 -0.5216 -3.7579
 8462TIP3    H246802   4.179   2.772  12.365  3.0919  3.7943  0.6376
 8463TIP3   OH246803   2.330   3.270  16.716 -0.6516 -0.5095 -0.2102
 8463TIP3    H146804   2.402   3.236  16.769  1.2825 -0.5483 -2.7087
 8463TIP3    H246805   2.307   3.198  16.657 -1.7045  0.0396 -0.5006
 8464TIP3   OH246806   6.652   3.774   0.779  0.0991  0.2146 -0.0311
 8464TIP3    H146807   6.602   3.692   0.779  2.9786 -1.7133 -1.4492
 8464TIP3    H246808   6.674   3.788   0.871 -0.3402 -0.6508  0.2173
 8465TIP3   OH246809   2.800   3.249   5.668  0.8427  0.1287 -0.3946
 8465TIP3    H146810   2.876   3.279   5.718  0.9526  0.3667 -0.7016
 8465TIP3    H246811   2.725   3.265   5.726  0.8267  1.5654 -0.7779
 8466TIP3   OH246812   6.255   4.864   1.715 -0.6326  0.5200 -0.3030
 8466TIP3    H146813   6.169   4.879   1.675 -0.5682  0.8044 -0.3383
 8466TIP3    H246814   6.236   4.820   1.798 -0.8148  0.5953 -0.3045
 8467TIP3   OH246815   6.343   2.060  11.601  0.2425  0.4562  0.0253
 8467TIP3    H146816   6.362   2.077  11.508 -0.4793 -1.6914 -0.5670
 8467TIP3    H246817   6.371   2.140  11.646  2.5716  0.7584 -1.7809
 8468TIP3   OH246818   1.926   3.180  12.209 -0.8290 -1.0371  0.1876
 8468TIP3    H146819   1.921   3.257  12.152  1.1545 -0.9257  0.0950
 8468TIP3    H246820   2.019   3.173  12.233 -1.1794 -2.6188  1.2914
 8469TIP3   OH246821   4.562   3.575   3.222  0.1187 -0.2876  0.0601
 8469TIP3    H146822   4.631   3.522   3.182 -0.2149  0.2398 -1.2485
 8469TIP3    H246823   4.489   3.570   3.161  0.1753  1.9175 -0.2708
 8470TIP3   OH246824   6.643   1.496  12.918 -0.2433  0.7653 -0.8285
 8470TIP3    H146825   6.625   1.536  13.003  0.1117  2.7730 -1.6555
 8470TIP3    H246826   6.561   1.454  12.893  0.1196 -1.4034  1.2435
 8471TIP3   OH246827   5.771   3.690   2.420  0.1282 -0.6934  0.1942
 8471TIP3    H146828   5.707   3.619   2.407 -0.9844  0.3126  0.0018
 8471TIP3    H246829   5.854   3.652   2.392 -0.1660 -2.3933  1.4830
 8472TIP3   OH246830   2.672   3.014   4.889  0.0696 -0.2434  0.1286
 8472TIP3    H146831   2.648   3.073   4.960 -2.3612 -0.8014 -0.1220
 8472TIP3    H246832   2.734   2.953   4.927  2.1081  1.9622  0.5838
 8473TIP3   OH246833   5.369   5.845  14.619 -0.1488  0.9351  0.6140
 8473TIP3    H146834   5.308   5.914  14.593  0.0459  0.8695 -0.0485
 8473TIP3    H246835   5.369   5.846  14.714 -1.8635  0.3519  0.6448
 8474TIP3   OH246836   2.294   2.287  11.926 -0.1241  0.1508 -0.1836
 8474TIP3    H146837   2.326   2.210  11.880 -0.1136 -1.2056  1.9402
 8474TIP3    H246838   2.346   2.290  12.007  0.2294  2.7159 -0.4212
 8475TIP3   OH246839   1.810   5.427   1.995 -0.2804 -0.3494  0.0021
 8475TIP3    H146840   1.833   5.519   2.002  1.5795 -0.5781 -2.0066
 8475TIP3    H246841   1.826   5.392   2.082  1.2870  0.7868  0.2166
 8476TIP3   OH246842   3.521   5.523  15.448 -0.0341 -0.5601  0.0640
 8476TIP3    H146843   3.495   5.486  15.533  0.1347  0.3746  0.5327
 8476TIP3    H246844   3.602   5.477  15.426  0.0430 -0.6479  0.5202
 8477TIP3   OH246845   3.313   3.296  12.072  0.1184 -0.2104  0.3025
 8477TIP3    H146846   3.231   3.253  12.050  1.8908 -1.9624 -3.8848
 8477TIP3    H246847   3.370   3.225  12.102  0.6934  0.6931  1.4639
 8478TIP3   OH246848   5.891   1.533   4.746 -0.0884  0.1487 -0.2473
 8478TIP3    H146849   5.898   1.572   4.834  0.2614  1.3232 -0.7678
 8478TIP3    H246850   5.847   1.450   4.760 -1.7217  1.1358  0.8235
 8479TIP3   OH246851   2.875   0.727   3.055  0.5759 -0.5952  0.1758
 8479TIP3    H146852   2.863   0.713   2.961  0.2667 -0.7696  0.2414
 8479TIP3    H246853   2.831   0.810   3.072  0.0152 -0.9167  0.2976
 8480TIP3   OH246854   2.814   4.314   3.008 -0.8005  0.1740  0.0404
 8480TIP3    H146855   2.757   4.242   3.037  1.6405 -1.7297  0.4532
 8480TIP3    H246856   2.843   4.288   2.921  0.3808  0.4576  0.3318
 8481TIP3   OH246857   2.321   6.156  16.515  0.2350 -0.6394 -0.1406
 8481TIP3    H146858   2.300   6.190  16.428 -0.2931 -0.5597  0.0129
 8481TIP3    H246859   2.414   6.133  16.510 -0.0868 -1.8010 -1.0928
 8482TIP3   OH246860   0.885   3.006  17.181  0.5948  0.0046 -1.2345
 8482TIP3    H146861   0.907   3.064  17.254  3.8125 -0.1418 -1.9288
 8482TIP3    H246862   0.852   2.926  17.222  1.5423  0.2487  0.0571
 8483TIP3   OH246863   6.023   0.114  15.865  0.3113  0.6037  0.2336
 8483TIP3    H146864   6.117   0.125  15.849 -0.1527  1.1445 -2.5818
 8483TIP3    H246865   5.987   0.203  15.860 -0.6502  0.1691 -1.3358
 8484TIP3   OH246866   2.555   2.509  16.263 -0.3922 -0.3664 -0.1659
 8484TIP3    H146867   2.523   2.536  16.177 -0.6556  1.8696  0.5517
 8484TIP3    H246868   2.646   2.539  16.266 -0.5975  0.2156  0.5691
 8485TIP3   OH246869   5.261   0.379  12.240 -0.5551  0.1314 -0.4459
 8485TIP3    H146870   5.282   0.405  12.151 -1.9717  1.9212 -0.3044
 8485TIP3    H246871   5.216   0.294  12.230 -0.7287  0.3302 -1.4349
 8486TIP3   OH246872   3.919   3.475  14.469 -0.4764  0.1922 -0.2596
 8486TIP3    H146873   3.936   3.520  14.387 -3.3414  2.2233  0.1129
 8486TIP3    H246874   3.837   3.513  14.501 -0.4016 -1.7728  2.6740
 8487TIP3   OH246875   1.180   6.497   4.695  0.5722  0.3179  0.6875
 8487TIP3    H146876   1.208   6.575   4.743  1.7826 -0.1501  0.7709
 8487TIP3    H246877   1.121   6.530   4.627  1.3154  1.3470  0.5269
 8488TIP3   OH246878   1.348   3.958  15.602 -0.0616 -0.1135 -0.2496
 8488TIP3    H146879   1.257   3.982  15.620 -0.3325 -0.2339 -1.3799
 8488TIP3    H246880   1.347   3.863  15.594  0.1280 -0.1021 -0.4253
 8489TIP3   OH246881   4.095   6.206   4.537  0.3800 -0.3120  0.1296
 8489TIP3    H146882   4.010   6.247   4.549  0.5174  0.1646 -0.4721
 8489TIP3    H246883   4.153   6.278   4.511  1.8831  0.1426  4.1261
 8490TIP3   OH246884   1.555   1.574  11.401  0.3006  0.0988 -0.4218
 8490TIP3    H146885   1.534   1.645  11.462 -1.0922  0.9465 -1.8014
 8490TIP3    H246886   1.651   1.574  11.396  0.3657  1.1336  0.4665
 8491TIP3   OH246887   6.198   0.154  13.341 -0.2922 -0.3858  0.2830
 8491TIP3    H146888   6.253   0.083  13.308 -0.3133 -1.5389  2.5666
 8491TIP3    H246889   6.113   0.114  13.358 -1.0291  0.7488 -0.5452
 8492TIP3   OH246890   5.818   2.243  17.244 -0.6162  0.1440  0.1891
 8492TIP3    H146891   5.830   2.333  17.214  1.4851 -0.2212 -0.2334
 8492TIP3    H246892   5.848   2.244  17.335 -2.2381  0.2078  0.7451
 8493TIP3   OH246893   4.037   5.271  13.010 -0.1389  0.0636  0.2384
 8493TIP3    H146894   3.962   5.245  12.957 -2.0460  0.9039  2.3798
 8493TIP3    H246895   4.112   5.228  12.968 -1.6085  0.0549 -2.6145
 8494TIP3   OH246896   0.676   3.468  13.696 -0.2543 -0.1994  0.2898
 8494TIP3    H146897   0.748   3.473  13.632  0.5729  3.2741  1.2341
 8494TIP3    H246898   0.686   3.382  13.737  2.1824 -0.6195 -0.9572
 8495TIP3   OH246899   0.253   4.844  11.435  0.1556 -0.3080 -0.2858
 8495TIP3    H146900   0.296   4.778  11.380 -1.0657 -1.5402  0.1695
 8495TIP3    H246901   0.297   4.837  11.519  1.3649  0.8902 -0.7891
 8496TIP3   OH246902   3.018   3.227   3.658  0.7388 -0.1949 -0.0102
 8496TIP3    H146903   3.059   3.165   3.598  2.0736 -0.4021  1.0588
 8496TIP3    H246904   2.934   3.247   3.618  1.2933 -0.8381 -1.5967
 8497TIP3   OH246905   3.055   1.683   0.016 -0.5401 -0.1368 -0.1264
 8497TIP3    H146906   3.126   1.676  -0.048  0.0471 -0.3940  0.5412
 8497TIP3    H246907   2.979   1.711  -0.035  0.3621  1.5343 -0.6438
 8498TIP3   OH246908   3.808   2.237  17.240 -0.3772 -0.1046 -0.0016
 8498TIP3    H146909   3.769   2.241  17.152 -0.1006  0.3855 -0.1039
 8498TIP3    H246910   3.745   2.186  17.291  0.0421 -1.4591 -0.7839
 8499TIP3   OH246911   6.438   1.135   5.696  0.4105  0.0665  0.0569
 8499TIP3    H146912   6.377   1.099   5.761  0.0933 -0.1786 -0.3728
 8499TIP3    H246913   6.393   1.213   5.662  0.4845  0.0783 -0.0147
 8500TIP3   OH246914   0.027   2.289  15.956  0.3539 -0.0656 -0.2036
 8500TIP3    H146915   0.065   2.315  15.872 -1.5375 -0.6115 -1.2888
 8500TIP3    H246916   0.041   2.194  15.959 -0.0805 -0.1296 -0.1832
 8501TIP3   OH246917   4.212   2.467  12.555 -0.6814 -0.0543  0.0836
 8501TIP3    H146918   4.193   2.393  12.498  2.2290 -0.2943 -0.7658
 8501TIP3    H246919   4.283   2.435  12.611  0.5975  2.0198 -0.2559
 8502TIP3   OH246920   3.061   2.890  11.727  0.2285  0.0489  0.3380
 8502TIP3    H146921   3.061   2.965  11.786  0.5725  0.5439 -0.2725
 8502TIP3    H246922   3.004   2.825  11.769  0.6404  0.3032  1.3069
 8503TIP3   OH246923   2.589   2.906   2.719 -0.0262  0.7170 -0.4574
 8503TIP3    H146924   2.670   2.891   2.767  0.0878 -0.4159 -0.9744
 8503TIP3    H246925   2.617   2.936   2.632 -0.1542  0.4696 -0.5864
 8504TIP3   OH246926   6.003   5.449   0.364  0.0272 -0.4209  0.4562
 8504TIP3    H146927   6.072   5.516   0.362  0.8279 -1.1596  1.8581
 8504TIP3    H246928   5.926   5.494   0.398  0.4028 -0.0670  0.8457
 8505TIP3   OH246929   5.784   2.528   5.269 -0.5062 -0.1300  0.0313
 8505TIP3    H146930   5.754   2.596   5.207 -0.3861  0.1480  0.2740
 8505TIP3    H246931   5.862   2.491   5.227  1.2115  1.9251  1.2226
 8506TIP3   OH246932   5.345   4.269  16.793 -0.2007  0.5138 -0.2898
 8506TIP3    H146933   5.322   4.294  16.882 -1.1996  0.5807 -0.5524
 8506TIP3    H246934   5.265   4.232  16.756  0.3956 -0.2178 -0.9245
 8507TIP3   OH246935   3.378   1.591   0.149 -0.5848  0.7281  0.8010
 8507TIP3    H146936   3.473   1.602   0.149 -0.3205 -1.1684  0.1060
 8507TIP3    H246937   3.347   1.647   0.220  1.1806  0.4680  1.8246
 8508TIP3   OH246938   5.844   5.499  11.404  0.1072 -0.1296  0.6163
 8508TIP3    H146939   5.816   5.428  11.346  0.5869 -0.6116  0.9811
 8508TIP3    H246940   5.768   5.558  11.405 -0.5592 -0.9590  0.8451
 8509TIP3   OH246941   5.892   6.341   5.912  0.9817  0.5922 -0.4683
 8509TIP3    H146942   5.933   6.399   5.976  1.0008  0.6072 -0.4937
 8509TIP3    H246943   5.965   6.295   5.871  0.8781 -0.6275  0.6616
 8510TIP3   OH246944   6.192   2.221   0.644  0.3593 -0.2355  0.0828
 8510TIP3    H146945   6.282   2.222   0.677 -0.1995 -1.3861  1.8105
 8510TIP3    H246946   6.151   2.298   0.684  0.5416  0.2329 -0.6237
 8511TIP3   OH246947   0.550   4.595  17.411  0.2907  0.5791  0.0864
 8511TIP3    H146948   0.537   4.504  17.436  2.0061  0.0120 -0.9071
 8511TIP3    H246949   0.555   4.643  17.494  1.8736 -0.6299  0.7255
 8512TIP3   OH246950   1.464   4.020   5.844 -0.0796 -0.2004 -0.2820
 8512TIP3    H146951   1.543   4.013   5.790  1.8096  0.7965  2.1491
 8512TIP3    H246952   1.428   4.106   5.822 -0.0716 -0.3333 -0.8447
 8513TIP3   OH246953   4.779   4.042   3.050 -0.3722  0.1360 -0.0460
 8513TIP3    H146954   4.821   4.045   2.964 -0.7972 -2.0332 -0.3751
 8513TIP3    H246955   4.741   4.130   3.061 -2.3132 -0.1758 -3.1347
 8514TIP3   OH246956   3.262   6.355   5.243 -0.2759 -0.4816 -0.2756
 8514TIP3    H146957   3.343   6.321   5.281 -0.1987  0.4562  0.4066
 8514TIP3    H246958   3.248   6.300   5.165  1.3687 -0.2324 -0.7896
 8515TIP3   OH246959   1.340   3.223  14.397  0.1370  0.1218 -0.1729
 8515TIP3    H146960   1.397   3.228  14.474 -0.0169  2.2075 -0.1317
 8515TIP3    H246961   1.358   3.137  14.359  1.5797 -0.2003  1.1457
 8516TIP3   OH246962   0.140   0.843   1.526  0.5047 -0.2891 -0.3884
 8516TIP3    H146963   0.209   0.787   1.490  1.3491  1.4995 -1.6485
 8516TIP3    H246964   0.072   0.843   1.459 -0.6911 -1.8273  0.7350
 8517TIP3   OH246965   2.571   5.325  15.393  0.4533 -0.6073 -0.3214
 8517TIP3    H146966   2.541   5.415  15.384  0.2450 -0.8245 -2.5540
 8517TIP3    H246967   2.667   5.332  15.392  0.4542 -0.4396 -1.6867
 8518TIP3   OH246968   3.113   2.365   3.465  0.3066  0.3960 -0.1642
 8518TIP3    H146969   3.079   2.412   3.541 -0.2726  2.1615 -1.4700
 8518TIP3    H246970   3.169   2.297   3.503 -0.8510  0.4910  1.8638
 8519TIP3   OH246971   3.444   1.254  12.405 -0.6396 -0.2147 -0.4906
 8519TIP3    H146972   3.384   1.322  12.436  0.5768  0.0228  1.4909
 8519TIP3    H246973   3.469   1.284  12.317 -0.8000  1.4668 -0.0064
 8520TIP3   OH246974   3.555   5.691  11.937 -0.5176  0.0334 -0.5357
 8520TIP3    H146975   3.511   5.730  12.012  1.4188 -0.5498  0.9961
 8520TIP3    H246976   3.536   5.597  11.944  1.0438 -0.2518  0.2597
 8521TIP3   OH246977   3.301   4.066   1.641  0.5190 -0.0090 -0.4446
 8521TIP3    H146978   3.254   4.042   1.561  0.6573  0.6892 -0.7451
 8521TIP3    H246979   3.360   3.992   1.656  1.4513  0.4146 -1.7637
 8522TIP3   OH246980   4.263   0.223  14.148  0.2185  0.0922 -0.0683
 8522TIP3    H146981   4.200   0.167  14.194  0.2733  1.0360  1.1868
 8522TIP3    H246982   4.325   0.162  14.109 -0.5017 -0.7808  0.1207
 8523TIP3   OH246983   5.175   4.589  13.264  0.0235  0.0815 -0.4504
 8523TIP3    H146984   5.224   4.624  13.189 -0.8643 -0.6256 -1.3840
 8523TIP3    H246985   5.185   4.494  13.257 -0.1712  0.0041  0.2633
 8524TIP3   OH246986   1.644   3.318   5.820 -0.7489  0.2712  0.2171
 8524TIP3    H146987   1.594   3.241   5.846 -1.4130 -0.2033 -2.2959
 8524TIP3    H246988   1.582   3.391   5.830 -1.0425  0.0762 -0.1618
 8525TIP3   OH246989   0.878   5.867   1.785 -0.1034  0.3127 -0.6916
 8525TIP3    H146990   0.830   5.942   1.821  2.8409  1.7288  0.5674
 8525TIP3    H246991   0.945   5.907   1.729  2.2743 -1.2371  0.9098
 8526TIP3   OH246992   5.577   1.329  14.247  0.5385 -0.0352  0.0288
 8526TIP3    H146993   5.563   1.269  14.321  0.4775 -0.3060 -0.2008
 8526TIP3    H246994   5.672   1.337  14.241  0.5365  0.4529  0.5055
 8527TIP3   OH246995   3.805   3.471  15.494  1.1392 -0.2543  0.5913
 8527TIP3    H146996   3.858   3.504  15.567  1.9139 -0.7681  0.2685
 8527TIP3    H246997   3.849   3.503  15.416  0.6129 -0.1588  0.3335
 8528TIP3   OH246998   4.086   6.172  16.315  0.7754 -0.2082  0.3473
 8528TIP3    H146999   4.135   6.216  16.385 -1.2659  0.2196  1.5823
 8528TIP3    H247000   3.998   6.208  16.321  0.3203 -0.7953 -1.9360
 8529TIP3   OH247001   4.644   1.111   0.202  0.2261 -0.2584 -0.5970
 8529TIP3    H147002   4.655   1.017   0.215  1.1623  0.0556  1.1582
 8529TIP3    H247003   4.725   1.139   0.159  0.6922 -0.0058  0.4207
 8530TIP3   OH247004   1.708   0.741  12.491 -0.1365  0.2624  0.0799
 8530TIP3    H147005   1.726   0.828  12.527 -0.6571  0.3569  0.1152
 8530TIP3    H247006   1.795   0.702  12.477  0.0799  0.4522  0.8715
 8531TIP3   OH247007   3.905   3.150   1.146  0.0906 -0.5245  0.2424
 8531TIP3    H147008   3.884   3.057   1.148  0.3179 -0.5696  1.9773
 8531TIP3    H247009   3.999   3.153   1.160  0.0677 -0.0267  0.2970
 8532TIP3   OH247010   5.224   2.761  15.740  0.1257 -0.3616  0.2883
 8532TIP3    H147011   5.292   2.706  15.701  0.5682  0.0585  0.4708
 8532TIP3    H247012   5.270   2.817  15.802 -0.3285  0.1681  0.1600
 8533TIP3   OH247013   1.984   0.839  16.783  0.1969  0.1385  0.1695
 8533TIP3    H147014   1.918   0.771  16.790  1.7937 -1.6094 -0.8981
 8533TIP3    H247015   2.057   0.808  16.836  1.2330  0.6369 -0.9097
 8534TIP3   OH247016   5.523   3.629  13.623  0.3975  0.3203  0.8743
 8534TIP3    H147017   5.541   3.536  13.631 -1.3205 -0.0691  0.5790
 8534TIP3    H247018   5.523   3.646  13.529 -0.5061  0.3502  0.8763
 8535TIP3   OH247019   3.882   3.709  11.989  0.0234  0.3638  0.0283
 8535TIP3    H147020   3.789   3.697  11.967  0.1589 -0.6511 -0.0129
 8535TIP3    H247021   3.893   3.804  11.994 -0.5363  0.5953 -2.0499
 8536TIP3   OH247022   1.644   0.446  14.732 -0.3675  0.1624  0.1315
 8536TIP3    H147023   1.624   0.414  14.820  2.5453  1.9745  1.6013
 8536TIP3    H247024   1.733   0.414  14.714 -0.0741  1.6051 -1.2158
 8537TIP3   OH247025   6.336   0.672  12.861  0.4823 -0.1960  0.0807
 8537TIP3    H147026   6.385   0.686  12.780  1.4069 -0.7995  0.5179
 8537TIP3    H247027   6.343   0.756  12.908 -0.1547  0.1943 -0.4950
 8538TIP3   OH247028   2.371   1.483  16.775  0.2033 -0.0721 -0.6340
 8538TIP3    H147029   2.293   1.506  16.724 -0.5708 -2.3138 -0.5539
 8538TIP3    H247030   2.338   1.455  16.860  1.2828  0.8820  0.1353
 8539TIP3   OH247031   3.929   4.682   5.371 -0.1511  0.8589 -0.3688
 8539TIP3    H147032   3.890   4.720   5.293  0.0998  1.3025 -0.2768
 8539TIP3    H247033   4.023   4.683   5.355 -0.2055 -1.5321 -1.2116
 8540TIP3   OH247034   4.571   2.226  14.698 -0.0166 -0.3074 -0.0051
 8540TIP3    H147035   4.631   2.193  14.765  0.1611 -0.9293 -0.4524
 8540TIP3    H247036   4.555   2.150  14.642 -0.7885 -0.0041 -0.2112
 8541TIP3   OH247037   6.052   2.798  11.248 -0.1518  0.5691 -0.1990
 8541TIP3    H147038   5.988   2.749  11.300 -1.0065  1.2596 -0.5706
 8541TIP3    H247039   5.999   2.855  11.192  0.6994 -0.6641 -2.3651
 8542TIP3   OH247040   0.506   6.259   3.681  0.1197 -0.8977 -0.3380
 8542TIP3    H147041   0.501   6.352   3.657 -0.9086 -0.7611  0.3548
 8542TIP3    H247042   0.523   6.259   3.775  0.0196 -1.4222 -0.3173
 8543TIP3   OH247043   1.472   0.356  15.245 -0.0950  0.2035 -0.8089
 8543TIP3    H147044   1.514   0.428  15.291  0.9794 -0.4510 -0.7337
 8543TIP3    H247045   1.541   0.291  15.233 -0.4983  0.0945 -2.8234
 8544TIP3   OH247046   1.092   3.509  13.366  0.1943  0.4227  0.6278
 8544TIP3    H147047   1.094   3.418  13.394 -1.1735  0.4467  0.8653
 8544TIP3    H247048   1.160   3.515  13.299 -1.5946 -1.5130 -1.5120
 8545TIP3   OH247049   2.485   2.610   3.893 -0.7866  0.1640  0.3017
 8545TIP3    H147050   2.410   2.605   3.833 -0.3203  0.3726 -0.3147
 8545TIP3    H247051   2.474   2.694   3.937  0.0288  1.0566 -1.1033
 8546TIP3   OH247052   5.470   0.275  14.020 -0.1050 -0.2163  0.0958
 8546TIP3    H147053   5.563   0.299  14.019 -0.2716  0.4794  0.3990
 8546TIP3    H247054   5.424   0.356  13.996 -0.6777 -0.2936  0.8946
 8547TIP3   OH247055   6.339   5.822   3.984 -0.1569  0.6831  0.6470
 8547TIP3    H147056   6.300   5.895   4.032 -0.2847 -0.2421  2.0056
 8547TIP3    H247057   6.330   5.747   4.043 -0.7763 -0.6339 -1.0315
 8548TIP3   OH247058   5.828   1.609  13.286 -0.0196  0.5296  0.1119
 8548TIP3    H147059   5.746   1.575  13.321 -1.2965  1.8604 -1.4644
 8548TIP3    H247060   5.815   1.703  13.280  0.8540  0.5650 -2.0705
 8549TIP3   OH247061   6.670   6.516  17.307  0.4929 -0.5574 -0.3409
 8549TIP3    H147062   6.746   6.554  17.352  0.4713 -0.9354  0.0171
 8549TIP3    H247063   6.630   6.591  17.262 -0.2517  0.1101  1.3587
 8550TIP3   OH247064   6.536   5.471  16.488  0.3360  0.6684 -0.9244
 8550TIP3    H147065   6.547   5.376  16.487  0.4323  0.6796 -0.8506
 8550TIP3    H247066   6.489   5.491  16.406 -0.7155  0.4288 -0.4058
 8551TIP3   OH247067   3.946   4.663  13.553 -0.2218  0.0684 -0.3844
 8551TIP3    H147068   3.899   4.598  13.501  1.7570 -0.4044 -1.6573
 8551TIP3    H247069   3.970   4.732  13.491  0.0540  0.7186  0.4173
 8552TIP3   OH247070   5.729   4.207   5.725  0.2916  0.5397 -0.1308
 8552TIP3    H147071   5.744   4.114   5.708  1.2050  0.7925 -0.7955
 8552TIP3    H247072   5.678   4.209   5.806 -0.0679 -0.5485 -0.3148
 8553TIP3   OH247073   4.628   4.214   4.141 -0.0516 -0.3066  0.0240
 8553TIP3    H147074   4.601   4.288   4.086 -2.7309 -0.8667  0.4728
 8553TIP3    H247075   4.724   4.220   4.142 -0.0491  1.6274 -2.0279
 8554TIP3   OH247076   0.795   3.655  13.276 -0.0600  0.2480 -0.1130
 8554TIP3    H147077   0.809   3.577  13.222 -0.3326  0.0033  0.1712
 8554TIP3    H247078   0.863   3.651  13.343  1.7804  1.7376 -1.7361
 8555TIP3   OH247079   0.659   3.377  15.458 -0.2127 -0.0183  0.1048
 8555TIP3    H147080   0.603   3.330  15.520  0.1161  0.0545  0.4632
 8555TIP3    H247081   0.721   3.311  15.427 -0.0546  0.0659  0.2414
 8556TIP3   OH247082   2.451   0.246   3.501 -0.5928 -0.0125  0.0205
 8556TIP3    H147083   2.533   0.215   3.538  0.0200  0.9274 -0.4940
 8556TIP3    H247084   2.474   0.274   3.412 -1.9560 -1.9886 -1.0416
 8557TIP3   OH247085   0.379   1.471   2.882  0.3236 -0.4438 -0.2798
 8557TIP3    H147086   0.333   1.392   2.913 -1.0394 -0.1315 -1.3933
 8557TIP3    H247087   0.401   1.452   2.791 -0.2858  0.5553 -0.6499
 8558TIP3   OH247088   3.328   1.720  17.102  0.0821  0.8269 -0.3584
 8558TIP3    H147089   3.388   1.658  17.143  0.3143 -0.0499 -1.9802
 8558TIP3    H247090   3.241   1.686  17.123  0.1277  1.4643  1.0106
 8559TIP3   OH247091   0.446   0.875  12.712 -0.8835 -0.2304 -0.5334
 8559TIP3    H147092   0.409   0.793  12.746 -1.2685 -0.0859 -0.6007
 8559TIP3    H247093   0.379   0.941  12.731 -0.4654  0.1174 -0.2520
 8560TIP3   OH247094   4.806   3.754   4.150  0.0732  0.0981  0.2138
 8560TIP3    H147095   4.749   3.736   4.225 -0.6385 -0.0874 -0.3557
 8560TIP3    H247096   4.746   3.764   4.076  0.7612  0.2663 -0.3377
 8561TIP3   OH247097   1.975   4.625  16.426 -0.3038 -0.2791  0.0758
 8561TIP3    H147098   1.921   4.554  16.462 -0.5799  0.9013  2.1419
 8561TIP3    H247099   1.914   4.698  16.415  0.4982  0.5075  0.6996
 8562TIP3   OH247100   1.331   5.030   2.979 -0.0979 -0.3805  0.0894
 8562TIP3    H147101   1.328   5.055   3.071 -0.0028  0.2238 -0.0671
 8562TIP3    H247102   1.278   5.096   2.934  1.4793  0.5413 -0.5315
 8563TIP3   OH247103   2.164   2.323   1.180  0.8356 -0.3982  0.0747
 8563TIP3    H147104   2.223   2.256   1.214  1.0224 -1.0249 -1.4050
 8563TIP3    H247105   2.086   2.318   1.237  1.6092 -0.5419  1.1503
 8564TIP3   OH247106   6.258   6.004  11.764 -0.1439 -0.0797  0.1692
 8564TIP3    H147107   6.172   6.009  11.721  0.8588  1.0824 -1.8520
 8564TIP3    H247108   6.238   6.008  11.857 -2.2820  0.3467 -0.2456
 8565TIP3   OH247109   2.984   2.953   3.057  0.2891  0.6870  0.4769
 8565TIP3    H147110   3.049   2.908   3.003  0.6487 -0.5520  1.8670
 8565TIP3    H247111   2.900   2.912   3.033  0.4836 -0.0545  1.0181
 8566TIP3   OH247112   2.512   4.541  13.663 -0.1919  0.3484 -0.1773
 8566TIP3    H147113   2.420   4.550  13.687 -0.3214 -1.5180  0.2089
 8566TIP3    H247114   2.520   4.450  13.633  1.7444  0.1257  0.8587
 8567TIP3   OH247115   6.388   6.175  16.197 -0.1558  0.9543  0.2178
 8567TIP3    H147116   6.312   6.221  16.161  0.0390  0.6616 -0.5827
 8567TIP3    H247117   6.394   6.095  16.145  0.8432  1.0907  0.1186
 8568TIP3   OH247118   6.204   4.554   2.152  0.2678 -0.2216  0.0122
 8568TIP3    H147119   6.241   4.477   2.111  0.5521 -0.8851  1.4499
 8568TIP3    H247120   6.232   4.549   2.244 -1.5795  0.3872  0.6591
 8569TIP3   OH247121   5.961   0.314  14.945 -0.4933 -0.1189  0.9384
 8569TIP3    H147122   5.868   0.313  14.968 -0.9968 -0.5101 -0.9639
 8569TIP3    H247123   5.981   0.406  14.929 -0.5689 -0.0381  1.3144
 8570TIP3   OH247124   1.583   6.649   4.137 -0.0018  0.2440 -0.0063
 8570TIP3    H147125   1.676   6.660   4.157 -0.2326  0.4196  1.0645
 8570TIP3    H247126   1.557   6.734   4.101  0.0234  0.5706  0.7132
 8571TIP3   OH247127   4.971   2.976   5.009  0.5271  0.1486  0.0486
 8571TIP3    H147128   4.989   2.929   5.090 -0.0443  0.9912  0.6953
 8571TIP3    H247129   5.055   3.015   4.984  0.1871  2.1409  1.7631
 8572TIP3   OH247130   6.332   0.097   1.059  0.4848  0.5646 -0.4786
 8572TIP3    H147131   6.252   0.046   1.075  1.2936 -1.1826 -1.7101
 8572TIP3    H247132   6.378   0.097   1.143 -0.4740  1.0051  0.0585
 8573TIP3   OH247133   4.095   2.338   3.910  0.3233 -0.2650 -0.4169
 8573TIP3    H147134   4.084   2.388   3.991  4.3782  0.0291  0.1703
 8573TIP3    H247135   4.124   2.251   3.938 -0.7447 -1.0234 -1.5461
 8574TIP3   OH247136   0.997   1.677   5.560  0.1433 -0.3459 -0.1067
 8574TIP3    H147137   1.036   1.656   5.475 -0.3847 -2.2984  0.0897
 8574TIP3    H247138   1.071   1.692   5.618  0.5517 -1.1176 -0.4212
 8575TIP3   OH247139   5.244   5.833  15.234 -0.1064 -0.1525  0.3801
 8575TIP3    H147140   5.294   5.913  15.223 -1.1666  0.7346  1.6484
 8575TIP3    H247141   5.307   5.763  15.216  0.7817  0.9425 -0.9587
 8576TIP3   OH247142   4.906   6.509   5.794  0.1167  0.8049  0.2037
 8576TIP3    H147143   4.854   6.536   5.870  1.3585 -1.4925  2.0131
 8576TIP3    H247144   4.990   6.554   5.806  0.9173 -0.8657  1.2314
 8577TIP3   OH247145   5.011   2.311   4.963  0.4250 -0.4575 -0.4758
 8577TIP3    H147146   5.003   2.385   4.903  0.8670 -1.0829 -1.3249
 8577TIP3    H247147   5.095   2.271   4.941  0.0681 -1.3797 -0.2232
 8578TIP3   OH247148   4.778   1.164  12.979 -0.0530  0.1731  0.2417
 8578TIP3    H147149   4.737   1.170  13.065  0.3141 -0.7956  0.4975
 8578TIP3    H247150   4.772   1.071  12.956  0.5798  0.2842 -0.4097
 8579TIP3   OH247151   6.411   3.725   3.485 -0.5223 -0.5424  0.8147
 8579TIP3    H147152   6.460   3.761   3.560 -0.4605  0.3809  0.3476
 8579TIP3    H247153   6.364   3.650   3.521 -0.1625 -0.3619  1.6869
 8580TIP3   OH247154   5.316   6.354   0.392 -0.4948 -0.3610  0.4004
 8580TIP3    H147155   5.368   6.388   0.465 -0.4701 -0.3536  0.3794
 8580TIP3    H247156   5.381   6.332   0.325 -0.6358  2.0613 -0.6526
 8581TIP3   OH247157   3.522   5.304  13.983  0.1179 -0.5813  0.1169
 8581TIP3    H147158   3.525   5.389  14.026 -0.5022 -0.7871  0.5920
 8581TIP3    H247159   3.506   5.324  13.891  1.3410 -0.1400 -0.0145
 8582TIP3   OH247160   2.166   0.846   5.474  0.2471  0.0262 -0.0118
 8582TIP3    H147161   2.241   0.897   5.503 -0.3672  0.9381  0.0119
 8582TIP3    H247162   2.139   0.798   5.553  1.5241 -1.2575 -0.3223
 8583TIP3   OH247163   1.379   5.725   1.487  0.3964 -0.3708 -0.2799
 8583TIP3    H147164   1.404   5.673   1.411 -0.9568  0.9373 -1.7008
 8583TIP3    H247165   1.403   5.815   1.464  1.6700 -0.1519  1.6435
 8584TIP3   OH247166   1.871   2.735  13.003 -0.0750  0.4995  0.0349
 8584TIP3    H147167   1.919   2.698  12.929 -1.1146  0.5598 -0.6867
 8584TIP3    H247168   1.807   2.794  12.963 -0.3950  0.8298  1.0075
 8585TIP3   OH247169   5.336   5.634  16.695  0.5782  0.4259 -0.9973
 8585TIP3    H147170   5.308   5.569  16.759  1.7807  1.2246  0.4237
 8585TIP3    H247171   5.348   5.714  16.746 -2.4513  2.3045 -2.9361
 8586TIP3   OH247172   4.263   5.089   0.034  0.1771  0.3630 -0.3004
 8586TIP3    H147173   4.186   5.074   0.090  1.4076 -2.1851  0.9198
 8586TIP3    H247174   4.323   5.140   0.089  1.2475 -1.8488  0.7131
 8587TIP3   OH247175   0.511   1.569  14.414  0.1143  0.5642 -0.3435
 8587TIP3    H147176   0.585   1.616  14.377  1.2740 -0.7444  0.1990
 8587TIP3    H247177   0.532   1.560  14.507 -1.5457  1.6236  0.1749
 8588TIP3   OH247178   3.113   4.420   1.464 -0.1238  0.3818 -0.2072
 8588TIP3    H147179   3.098   4.515   1.460  0.5652  0.4701 -1.0736
 8588TIP3    H247180   3.079   4.394   1.549  0.7054  1.5951  0.5278
 8589TIP3   OH247181   3.601   4.450  14.355 -0.3624  0.0407 -0.2978
 8589TIP3    H147182   3.554   4.493  14.427 -1.8476 -0.5355 -0.8982
 8589TIP3    H247183   3.535   4.437  14.287  0.6589 -0.8703 -1.1515
 8590TIP3   OH247184   0.705   3.293  10.519  0.1757  0.0989  0.1156
 8590TIP3    H147185   0.664   3.256  10.441  1.0537 -1.2051  0.2230
 8590TIP3    H247186   0.639   3.351  10.556 -2.8459 -3.8704  1.7973
 8591TIP3   OH247187   5.231   5.278  16.275 -0.1904  0.5127 -0.1863
 8591TIP3    H147188   5.324   5.297  16.268 -0.3031  0.8077 -1.1221
 8591TIP3    H247189   5.205   5.315  16.359  0.0049  2.8873 -1.0738
 8592TIP3   OH247190   0.217   4.521   2.693  0.3598  0.0352  0.0798
 8592TIP3    H147191   0.262   4.577   2.630  0.6775  0.7209  0.9085
 8592TIP3    H247192   0.134   4.564   2.709  0.1156 -0.3413 -0.1526
 8593TIP3   OH247193   0.023   4.987   3.713  0.2441  0.2240 -0.3274
 8593TIP3    H147194  -0.049   5.040   3.747  0.3908 -0.2288  0.7240
 8593TIP3    H247195  -0.019   4.913   3.670  0.0749 -0.2517  0.6368
 8594TIP3   OH247196   0.043   5.650  16.482  0.0692 -0.4070 -0.0604
 8594TIP3    H147197   0.109   5.581  16.472  1.3475  0.1228  3.2778
 8594TIP3    H247198  -0.041   5.604  16.478  0.8299 -1.8871  0.2691
 8595TIP3   OH247199   5.203   1.080   5.517  0.2506  0.2951 -0.0961
 8595TIP3    H147200   5.195   1.175   5.524  0.2748  0.4883 -2.2301
 8595TIP3    H247201   5.278   1.066   5.459 -0.6269 -0.9873 -0.9649
 8596TIP3   OH247202   0.894   4.232  16.688  0.3243 -0.4744 -0.2078
 8596TIP3    H147203   0.863   4.285  16.762  0.5340 -1.4411  0.5974
 8596TIP3    H247204   0.930   4.154  16.729  1.7722 -0.3870 -1.2561
 8597TIP3   OH247205   5.639   4.903   3.847  0.3662 -0.0555  0.5106
 8597TIP3    H147206   5.652   4.909   3.941  0.6999 -0.1943  0.4742
 8597TIP3    H247207   5.726   4.916   3.809  0.2628 -0.1692  0.2282
 8598TIP3   OH247208   4.321   3.276  14.090 -0.1672 -0.5902 -0.0844
 8598TIP3    H147209   4.260   3.296  14.161  0.8658 -1.7367  1.1830
 8598TIP3    H247210   4.265   3.261  14.014 -1.2971  0.7137  0.4599
 8599TIP3   OH247211   2.412   0.269  12.591 -0.4374 -0.2304  0.3439
 8599TIP3    H147212   2.479   0.336  12.607  0.0468 -0.8936  1.1781
 8599TIP3    H247213   2.425   0.244  12.499  0.0619  0.0792  0.3249
 8600TIP3   OH247214   5.899   1.248   5.646 -0.5623  0.3072 -0.0316
 8600TIP3    H147215   5.871   1.322   5.700  0.2664  0.3269  0.3808
 8600TIP3    H247216   5.845   1.175   5.675 -0.4121  0.4170  0.5240
 8601TIP3   OH247217   2.636   4.320   1.082  0.0320 -0.6738  0.0312
 8601TIP3    H147218   2.558   4.270   1.104 -0.7773 -0.2085 -1.6353
 8601TIP3    H247219   2.685   4.264   1.022 -0.5049  0.1746 -1.2458
 8602TIP3   OH247220   0.755   5.276   3.140  0.3889 -0.5008  0.0709
 8602TIP3    H147221   0.792   5.206   3.087 -1.3900 -0.4731 -1.2798
 8602TIP3    H247222   0.745   5.237   3.227  2.1080 -0.9684  0.0861
 8603TIP3   OH247223   6.615   1.663  13.646 -0.3383 -0.5862 -0.1157
 8603TIP3    H147224   6.589   1.579  13.609 -1.2300 -0.8652  1.0807
 8603TIP3    H247225   6.696   1.686  13.600 -0.8617 -1.3854 -1.4772
 8604TIP3   OH247226   5.048   2.141  15.452  0.5205 -0.3354 -0.6178
 8604TIP3    H147227   5.009   2.199  15.518  0.0814 -0.6292 -0.6103
 8604TIP3    H247228   4.985   2.141  15.380 -0.2072 -1.8881 -0.0482
 8605TIP3   OH247229   4.199   3.162  15.317 -0.1577 -0.4476 -0.1963
 8605TIP3    H147230   4.293   3.172  15.334  0.0049 -1.9670 -0.0376
 8605TIP3    H247231   4.194   3.089  15.255 -1.2655 -0.7609  0.2454
 8606TIP3   OH247232   5.360   0.346   6.215 -0.0940  0.4027 -0.2417
 8606TIP3    H147233   5.323   0.333   6.302  3.8469 -1.9388  1.3326
 8606TIP3    H247234   5.409   0.428   6.221  1.3945 -0.4875  0.3341
 8607TIP3   OH247235   0.061   2.825   3.040 -0.1642 -0.8073  0.4709
 8607TIP3    H147236  -0.016   2.836   3.096 -0.9845  0.5104 -0.8154
 8607TIP3    H247237   0.132   2.869   3.088 -0.7959  0.1073  0.5966
 8608TIP3   OH247238   0.273   3.714  12.965  0.2507  0.6217 -0.2097
 8608TIP3    H147239   0.238   3.679  12.883  0.8572  1.0607 -0.6557
 8608TIP3    H247240   0.355   3.757  12.941  0.7757  0.1790  0.7310
 8609TIP3   OH247241   2.028   3.688  11.737  0.2855 -0.0989  0.2633
 8609TIP3    H147242   1.992   3.599  11.739 -1.7684  0.6808  2.2414
 8609TIP3    H247243   1.966   3.740  11.787  1.7769  2.3562 -0.2801
 8610TIP3   OH247244   4.283   0.280  12.164 -0.6484 -0.1344  0.3100
 8610TIP3    H147245   4.222   0.272  12.090 -0.5139 -1.4387  0.3244
 8610TIP3    H247246   4.287   0.193  12.202  4.7171 -1.5802 -2.5166
 8611TIP3   OH247247   4.039   2.988   5.363  0.7997 -0.2638 -0.3051
 8611TIP3    H147248   4.105   3.053   5.388 -0.6432  0.5838  1.5548
 8611TIP3    H247249   4.033   2.929   5.438  1.0719 -1.7478 -1.3971
 8612TIP3   OH247250   0.945   5.635   1.944  0.5556  0.3421  0.1221
 8612TIP3    H147251   1.036   5.608   1.934  0.4127  0.1615 -0.8118
 8612TIP3    H247252   0.948   5.731   1.940  0.8637  0.4205  1.6583
 8613TIP3   OH247253   1.936   4.752  12.442  0.0362  0.2254 -0.2943
 8613TIP3    H147254   1.848   4.764  12.478  0.3993  0.0488  0.6811
 8613TIP3    H247255   1.992   4.741  12.519  0.5314 -2.2602 -0.9318
 8614TIP3   OH247256   0.435   4.113  16.474  0.3805 -0.1385  0.0759
 8614TIP3    H147257   0.479   4.031  16.495 -0.0275 -0.8344 -1.5727
 8614TIP3    H247258   0.501   4.164  16.426 -0.6897 -1.4981 -3.0825
 8615TIP3   OH247259   0.878   0.513  15.967 -0.1192 -0.3403  0.2812
 8615TIP3    H147260   0.857   0.422  15.989  1.0052 -0.7539 -0.2613
 8615TIP3    H247261   0.793   0.557  15.960 -0.9746 -2.1391 -2.7661
 8616TIP3   OH247262   0.651   4.077  15.158 -0.0211 -0.8008 -0.1451
 8616TIP3    H147263   0.622   3.998  15.112 -0.9978 -0.2759 -0.4465
 8616TIP3    H247264   0.623   4.149  15.102 -1.5462 -0.1303  1.3928
 8617TIP3   OH247265   4.077   4.883  15.501  0.4512 -0.0361 -0.0377
 8617TIP3    H147266   4.018   4.907  15.429 -0.1065  1.1519  0.7772
 8617TIP3    H247267   4.151   4.943  15.493  0.9247 -0.6461 -0.2751
 8618TIP3   OH247268   3.457   5.771  15.704 -0.0711 -0.0854  0.8659
 8618TIP3    H147269   3.540   5.724  15.692  1.1065  2.0021  0.3178
 8618TIP3    H247270   3.458   5.839  15.637 -2.1262  0.1973  1.0439
 8619TIP3   OH247271   0.951   6.676  17.429 -0.5094 -0.1639  0.2055
 8619TIP3    H147272   1.042   6.676  17.458 -1.0463 -0.8150  2.0838
 8619TIP3    H247273   0.955   6.697  17.336  1.5245  0.1256  0.3089
 8620TIP3   OH247274   3.979   4.695   4.729 -0.1863  0.3897 -0.0042
 8620TIP3    H147275   3.954   4.686   4.637 -0.4832  0.3130  0.0826
 8620TIP3    H247276   3.996   4.605   4.758  1.1279  0.5170 -0.3149
 8621TIP3   OH247277   1.590   4.589  12.342  0.0573  0.3114 -0.0136
 8621TIP3    H147278   1.611   4.626  12.428 -0.4359  0.3652  0.0864
 8621TIP3    H247279   1.495   4.594  12.337  0.1011  0.5410 -0.6726
 8622TIP3   OH247280   1.059   1.379   4.140  0.0179  0.2371 -0.2671
 8622TIP3    H147281   1.123   1.449   4.133  0.0160  0.0966 -3.3835
 8622TIP3    H247282   1.082   1.332   4.220  2.2639  1.6380 -0.0095
 8623TIP3   OH247283   3.543   5.764  13.872 -0.1754 -0.2189 -0.3401
 8623TIP3    H147284   3.460   5.768  13.824  0.2222 -0.6904 -1.0715
 8623TIP3    H247285   3.589   5.844  13.848 -0.0210 -0.4050 -0.6679
 8624TIP3   OH247286   5.812   6.300  15.875 -0.2831 -0.1507 -0.6747
 8624TIP3    H147287   5.808   6.394  15.861 -0.2994  0.0219  0.3924
 8624TIP3    H247288   5.870   6.268  15.806  1.8507  0.9974  0.4759
 8625TIP3   OH247289   2.839   4.160   4.036 -0.1641  0.6018  0.2660
 8625TIP3    H147290   2.793   4.076   4.025  0.0840  0.5125 -0.0971
 8625TIP3    H247291   2.796   4.219   3.975 -0.0280  0.6145  0.1827
 8626TIP3   OH247292   1.825   6.054   3.022 -0.2680 -0.3816 -0.1092
 8626TIP3    H147293   1.730   6.053   3.032 -0.5814 -1.3154 -2.5830
 8626TIP3    H247294   1.846   6.145   3.002 -0.5324 -0.0627  0.9627
 8627TIP3   OH247295   5.632   5.025  16.458 -0.1817  0.5784  0.0623
 8627TIP3    H147296   5.588   4.955  16.506 -1.1253  0.5630 -0.7946
 8627TIP3    H247297   5.684   4.980  16.391 -0.0490  0.6649  0.1046
 8628TIP3   OH247298   5.431   3.946  15.257  0.4685 -0.2002 -0.2751
 8628TIP3    H147299   5.475   3.879  15.206  1.4067 -0.8991  1.3693
 8628TIP3    H247300   5.389   3.898  15.329 -0.6152  0.7621 -0.2243
 8629TIP3   OH247301   6.668   5.993  16.969 -0.4193 -0.0339  0.0600
 8629TIP3    H147302   6.700   6.080  16.946  0.6131 -0.7564 -1.4470
 8629TIP3    H247303   6.736   5.958  17.028  1.7479 -1.5232 -3.0485
 8630TIP3   OH247304   0.614   1.788   2.440  0.2317  0.1150 -0.8064
 8630TIP3    H147305   0.598   1.695   2.420 -1.0512  0.2282 -0.4271
 8630TIP3    H247306   0.671   1.787   2.517  1.2273 -0.3454 -1.5364
 8631TIP3   OH247307   1.275   5.650   5.578  0.3405 -0.1368 -0.7752
 8631TIP3    H147308   1.308   5.579   5.633  1.1851  0.1394 -0.9057
 8631TIP3    H247309   1.350   5.708   5.566  0.0752  0.0073 -1.9057
 8632TIP3   OH247310   1.540   6.725  13.251 -0.4052 -0.0626 -0.0563
 8632TIP3    H147311   1.594   6.651  13.279 -2.2084 -0.5377  2.5274
 8632TIP3    H247312   1.489   6.691  13.178  1.3050 -0.1792 -1.2704
 8633TIP3   OH247313   2.328   0.412   4.132  0.3140  0.3105 -0.0931
 8633TIP3    H147314   2.332   0.354   4.055  0.3949 -1.1465  0.9692
 8633TIP3    H247315   2.343   0.354   4.206 -0.3778  1.5881  1.0870
 8634TIP3   OH247316   3.741   6.450  10.985 -0.7212 -0.0220 -0.1198
 8634TIP3    H147317   3.651   6.442  11.018 -0.7599 -1.1474 -0.4825
 8634TIP3    H247318   3.784   6.370  11.011  0.1259  0.4112 -0.1573
 8635TIP3   OH247319   3.215   0.373  12.722  0.8252 -0.1652  0.6493
 8635TIP3    H147320   3.139   0.319  12.743  0.0784  0.7274  0.2931
 8635TIP3    H247321   3.240   0.345  12.634 -0.1583  0.7245  0.0728
 8636TIP3   OH247322   1.176   5.297  14.122 -0.1284  0.1926 -0.3473
 8636TIP3    H147323   1.191   5.212  14.081  0.7650 -0.9078  2.0177
 8636TIP3    H247324   1.264   5.335  14.129 -0.5155  1.3073 -1.3144
 8637TIP3   OH247325   0.232   5.482  14.239  0.4679  0.3252 -0.2178
 8637TIP3    H147326   0.272   5.396  14.246 -3.2427 -1.7196 -1.4987
 8637TIP3    H247327   0.195   5.485  14.151 -1.8063  2.0500  0.6804
 8638TIP3   OH247328   0.862   0.060   0.193 -0.1391  0.2144  0.1618
 8638TIP3    H147329   0.922   0.007   0.141 -0.1288 -1.1213  1.4584
 8638TIP3    H247330   0.918   0.127   0.233  0.7995 -1.6529  2.2064
 8639TIP3   OH247331   0.091   2.990   2.066  0.1725 -0.5088 -0.1301
 8639TIP3    H147332   0.146   3.010   2.142  0.5008  1.3812 -0.8126
 8639TIP3    H247333   0.086   2.894   2.065  0.1249 -0.5922  2.2667
 8640TIP3   OH247334   2.506   3.627   1.694  0.1819 -0.6953  0.0247
 8640TIP3    H147335   2.468   3.622   1.607 -0.3923  3.2581 -0.1254
 8640TIP3    H247336   2.592   3.668   1.681  0.4667 -0.8547  1.2291
 8641TIP3   OH247337   5.799   5.885  12.578  0.0858  0.4449  0.0587
 8641TIP3    H147338   5.715   5.843  12.598  0.6170 -0.0763  1.2686
 8641TIP3    H247339   5.827   5.844  12.496  0.4480 -1.3819  1.0631
 8642TIP3   OH247340   6.680   6.215  12.101 -0.0502 -0.2090  0.0767
 8642TIP3    H147341   6.617   6.153  12.064 -0.1059 -0.1584  0.0864
 8642TIP3    H247342   6.645   6.235  12.187  0.5899 -1.0688  0.5484
 8643TIP3   OH247343   4.631   4.913   2.092 -0.2316 -0.5247  0.1162
 8643TIP3    H147344   4.663   4.886   2.006  3.5015  0.1880  1.1003
 8643TIP3    H247345   4.620   4.831   2.140 -0.4870 -0.8160 -0.4257
 8644TIP3   OH247346   0.739   3.719  14.925  0.0916  0.1955  0.0318
 8644TIP3    H147347   0.783   3.634  14.927  0.3357  0.3298  1.0761
 8644TIP3    H247348   0.673   3.713  14.993 -0.9163  0.3271 -0.9064
 8645TIP3   OH247349   0.042   3.506   5.651  0.1658  0.0625 -0.8083
 8645TIP3    H147350   0.127   3.546   5.670  0.0383  0.5799 -1.3102
 8645TIP3    H247351   0.026   3.527   5.559 -1.6598  2.1495 -0.1050
 8646TIP3   OH247352   5.125   5.329   0.280  0.0831 -0.3970 -0.0366
 8646TIP3    H147353   5.110   5.385   0.356  0.3042 -0.1043 -0.2029
 8646TIP3    H247354   5.054   5.350   0.219  1.1947  1.1138 -0.8965
 8647TIP3   OH247355   6.347   3.931  16.154 -0.4524 -0.3114 -0.4174
 8647TIP3    H147356   6.257   3.948  16.182 -0.1183 -1.1679  1.2791
 8647TIP3    H247357   6.394   4.012  16.174 -0.8244  0.1427 -1.3201
 8648TIP3   OH247358   5.126   1.953   0.993 -0.0145 -0.3668 -0.3219
 8648TIP3    H147359   5.106   2.023   1.055  0.0691 -0.9109  0.3253
 8648TIP3    H247360   5.186   1.993   0.930  1.4915 -0.3474  1.0786
 8649TIP3   OH247361   6.049   2.267  15.678 -0.9214 -0.3804 -0.1928
 8649TIP3    H147362   6.132   2.315  15.676  0.8164 -3.1407  0.6635
 8649TIP3    H247363   6.031   2.244  15.587 -0.3150 -0.4789 -0.2860
 8650TIP3   OH247364   6.619   0.758  13.840 -0.0517  0.3709  0.0362
 8650TIP3    H147365   6.710   0.741  13.815  0.3147  2.2000  0.0348
 8650TIP3    H247366   6.601   0.845  13.806 -1.2103  0.7896  1.6568
 8651TIP3   OH247367   3.926   1.454  12.557  0.1225 -0.2953  0.4602
 8651TIP3    H147368   3.987   1.497  12.617 -0.9360  0.7713  0.7893
 8651TIP3    H247369   3.843   1.450  12.605 -0.9531  1.2466 -1.1738
 8652TIP3   OH247370   0.348   4.077   1.626  0.3660  0.4545 -0.2481
 8652TIP3    H147371   0.349   4.001   1.567  0.1994  0.3347 -0.0969
 8652TIP3    H247372   0.260   4.079   1.662  0.1170  1.2141 -0.8787
 8653TIP3   OH247373   4.104   1.226  17.086 -0.1211  0.1393 -0.3791
 8653TIP3    H147374   4.176   1.163  17.076  0.3474  0.6094  0.0113
 8653TIP3    H247375   4.051   1.189  17.156  0.0555  0.0845 -0.2723
 8654TIP3   OH247376   3.864   5.552   6.757 -0.3244 -0.1681  0.0427
 8654TIP3    H147377   3.899   5.486   6.697  1.4599 -1.5268  2.3786
 8654TIP3    H247378   3.917   5.630   6.740 -0.0963 -0.4184 -0.4196
 8655TIP3   OH247379   3.007   1.130   0.722  0.3249 -0.1950 -0.3584
 8655TIP3    H147380   3.101   1.115   0.709  0.0502 -1.9758 -0.6363
 8655TIP3    H247381   2.998   1.144   0.816  0.7958 -0.7986 -0.2133
 8656TIP3   OH247382   0.520   5.147   4.168 -0.2286 -0.1089  0.2083
 8656TIP3    H147383   0.512   5.074   4.231  0.4257 -0.1191  0.2824
 8656TIP3    H247384   0.586   5.204   4.206  0.4918 -0.3297 -0.6814
 8657TIP3   OH247385   0.742   5.205   0.355 -0.3405  0.0887  0.0972
 8657TIP3    H147386   0.816   5.214   0.296 -1.4772  0.3077 -1.3639
 8657TIP3    H247387   0.709   5.295   0.365 -0.8804 -0.1037  0.0848
 8658TIP3   OH247388   2.634   2.692  13.684  0.2138  0.3820 -0.0368
 8658TIP3    H147389   2.622   2.634  13.609 -0.2844  3.3966 -2.5160
 8658TIP3    H247390   2.552   2.686  13.733  0.0084 -0.6467 -0.4940
 8659TIP3   OH247391   4.247   6.281   5.299 -0.1542  0.1059  0.3487
 8659TIP3    H147392   4.185   6.300   5.229 -0.2943 -0.0822  0.4200
 8659TIP3    H247393   4.193   6.252   5.372  0.0719 -0.9056  0.1332
 8660TIP3   OH247394   4.398   3.348  15.525  0.1823 -0.4253 -0.0502
 8660TIP3    H147395   4.347   3.428  15.538 -1.4563 -1.2834 -0.8971
 8660TIP3    H247396   4.407   3.311  15.614  0.8714  0.6176  0.3301
 8661TIP3   OH247397   0.463   1.858   5.521  0.9480  0.1379  0.4327
 8661TIP3    H147398   0.497   1.938   5.562  0.5013  0.2928  0.5088
 8661TIP3    H247399   0.368   1.862   5.536  0.8166  0.0316 -0.3279
 8662TIP3   OH247400   6.466   6.720   1.261  0.1210  0.5355  0.0236
 8662TIP3    H147401   6.434   6.674   1.340 -0.6929  0.2950 -0.4332
 8662TIP3    H247402   6.497   6.650   1.204 -1.2972  0.4971 -0.7537
 8663TIP3   OH247403   2.356   2.753  11.593 -0.3080  0.0226 -0.1965
 8663TIP3    H147404   2.423   2.691  11.622 -1.2351 -0.6278  0.5948
 8663TIP3    H247405   2.298   2.764  11.668 -2.4146 -1.2254 -1.5488
 8664TIP3   OH247406   6.472   4.791  12.616 -0.3757  0.1819  0.1801
 8664TIP3    H147407   6.508   4.844  12.546  0.2926  0.9560  1.0822
 8664TIP3    H247408   6.464   4.704  12.579  0.7624  0.3898 -0.5938
 8665TIP3   OH247409   2.290   2.948   5.454  0.2975 -0.2916  0.0344
 8665TIP3    H147410   2.269   2.859   5.426 -0.8529  0.1796 -0.6764
 8665TIP3    H247411   2.385   2.953   5.448  0.4943 -1.8183  1.2024
 8666TIP3   OH247412   0.015   2.666   3.462 -0.0314 -0.0917  0.2295
 8666TIP3    H147413  -0.079   2.655   3.479 -0.3186  0.5030 -0.9211
 8666TIP3    H247414   0.038   2.592   3.406  0.5549 -1.0983  1.7062
 8667TIP3   OH247415   0.407   1.411  11.533 -0.0832  0.1795 -0.3803
 8667TIP3    H147416   0.386   1.470  11.606  2.1485 -1.0376  1.3510
 8667TIP3    H247417   0.475   1.456  11.485 -1.1210  0.7002 -1.4101
 8668TIP3   OH247418   4.641   4.689  11.364  0.0673 -0.0634 -0.1802
 8668TIP3    H147419   4.669   4.736  11.285  0.5701  0.0179  0.0403
 8668TIP3    H247420   4.560   4.645  11.338  0.8218 -0.9788 -1.0943
 8669TIP3   OH247421   0.569   2.602   6.081 -0.1587  0.1384  0.6373
 8669TIP3    H147422   0.523   2.636   6.005  0.5246  1.0338  0.6120
 8669TIP3    H247423   0.501   2.557   6.132 -0.6419 -0.3461 -0.4191
 8670TIP3   OH247424   5.987   0.074  13.065  0.2243  0.0268 -0.3576
 8670TIP3    H147425   5.977   0.165  13.093  1.5657 -0.5372  2.3035
 8670TIP3    H247426   6.080   0.056  13.075 -0.1677 -1.9133  0.2250
 8671TIP3   OH247427   4.047   0.958   5.419  0.2215 -0.2980 -0.7522
 8671TIP3    H147428   3.995   0.878   5.425 -1.8092  0.9371 -1.0259
 8671TIP3    H247429   4.065   0.982   5.510 -0.7076 -0.1277 -0.6053
 8672TIP3   OH247430   2.131   6.300   6.672 -0.2431 -0.2254  0.5534
 8672TIP3    H147431   2.119   6.394   6.664  1.3679  0.0165  0.7290
 8672TIP3    H247432   2.193   6.277   6.603 -0.3024 -1.0967  0.7704
 8673TIP3   OH247433   6.607   0.227   1.385 -0.2313  0.1117 -0.0118
 8673TIP3    H147434   6.606   0.147   1.331  0.4191 -0.3633  0.6635
 8673TIP3    H247435   6.654   0.291   1.332 -1.0163  0.1489 -0.6891
 8674TIP3   OH247436   5.434   3.673  11.553 -0.0889 -0.0195 -0.1614
 8674TIP3    H147437   5.412   3.626  11.473  1.0133  0.5089 -0.7999
 8674TIP3    H247438   5.395   3.760  11.542  0.6888  0.3029 -0.4788
 8675TIP3   OH247439   4.857   0.878  12.975 -0.1961 -0.0193 -0.4342
 8675TIP3    H147440   4.903   0.802  13.011  0.9197  1.0550  0.5126
 8675TIP3    H247441   4.788   0.841  12.920 -0.6282 -1.7332  1.1583
 8676TIP3   OH247442   0.311   4.762   2.932  0.3107 -0.2090 -0.1223
 8676TIP3    H147443   0.260   4.841   2.913 -0.6072 -0.5748  0.7446
 8676TIP3    H247444   0.380   4.762   2.866 -0.7010  0.3971 -1.2293
 8677TIP3   OH247445   0.121   1.119   1.557  0.4845  0.0916  0.1418
 8677TIP3    H147446   0.208   1.142   1.590  0.8090 -2.0735  0.9881
 8677TIP3    H247447   0.123   1.023   1.550 -1.2284  0.1276 -1.6256
 8678TIP3   OH247448   5.492   1.612  16.832 -0.4570  0.4494 -0.0967
 8678TIP3    H147449   5.566   1.570  16.876 -1.0535  0.5237  1.0119
 8678TIP3    H247450   5.532   1.673  16.770  0.4015 -0.1039 -0.1066
 8679TIP3   OH247451   4.331   1.765   0.247  0.6031  0.3361  0.2197
 8679TIP3    H147452   4.363   1.759   0.337  1.2540 -0.9231 -0.0651
 8679TIP3    H247453   4.361   1.684   0.206 -1.8317 -0.2917 -0.4669
 8680TIP3   OH247454   2.957   2.546  13.425 -0.4265 -0.5030  0.4173
 8680TIP3    H147455   2.895   2.473  13.412  0.1477 -0.6721 -1.7127
 8680TIP3    H247456   2.911   2.622  13.389 -0.1821 -0.2330  0.6786
 8681TIP3   OH247457   1.296   3.521   0.446  0.0521  0.1797  0.0248
 8681TIP3    H147458   1.319   3.455   0.380 -0.1331 -0.6548  0.7726
 8681TIP3    H247459   1.346   3.496   0.523 -0.3351  0.6869  0.4435
 8682TIP3   OH247460   2.721   4.715   2.292 -0.4742 -0.1439  0.0779
 8682TIP3    H147461   2.735   4.792   2.348  0.7742 -0.4472  0.1947
 8682TIP3    H247462   2.778   4.729   2.217 -1.4535 -0.1969 -0.7005
 8683TIP3   OH247463   6.006   5.496   0.949  0.3191  0.1856  0.1985
 8683TIP3    H147464   6.014   5.545   1.030  0.2394  0.1065  0.2556
 8683TIP3    H247465   6.034   5.407   0.972 -0.2066  0.0331  0.2753
 8684TIP3   OH247466   3.474   5.747  12.188 -0.0313  0.2465  0.0475
 8684TIP3    H147467   3.478   5.716  12.278 -1.5370  2.9920  1.1995
 8684TIP3    H247468   3.389   5.716  12.156  1.2529 -2.2533 -1.1424
 8685TIP3   OH247469   2.865   0.033  13.987  0.1417 -0.4455  0.7433
 8685TIP3    H147470   2.837   0.110  13.938 -1.0431 -0.8785  0.7190
 8685TIP3    H247471   2.952   0.056  14.020  0.5850  0.1857 -0.8086
 8686TIP3   OH247472   5.862   5.721   0.731 -0.3888 -0.0952 -0.1050
 8686TIP3    H147473   5.805   5.712   0.808 -0.4125 -0.4484 -0.1626
 8686TIP3    H247474   5.944   5.757   0.766 -0.1087 -1.0212  0.2169
 8687TIP3   OH247475   0.672   4.948  13.720  0.8594 -0.0850 -0.5897
 8687TIP3    H147476   0.653   4.896  13.798  0.8119 -0.3711 -0.7901
 8687TIP3    H247477   0.599   4.931  13.661  1.4624 -0.7809 -1.1556
 8688TIP3   OH247478   5.044   5.964   3.234 -0.4468 -0.2373  0.9326
 8688TIP3    H147479   5.016   5.912   3.310  2.2175 -1.1684  1.3599
 8688TIP3    H247480   5.027   6.054   3.260 -2.6448 -0.6846  1.2536
 8689TIP3   OH247481   0.602   1.072   4.679  0.4002  0.0937 -0.1814
 8689TIP3    H147482   0.625   1.111   4.595  1.5502 -0.6045 -0.2052
 8689TIP3    H247483   0.521   1.023   4.662 -0.1676  1.1206 -0.5249
 8690TIP3   OH247484   1.463   0.435  11.149  0.1988  0.0589 -0.1680
 8690TIP3    H147485   1.417   0.366  11.101  1.0489 -0.5368 -0.1334
 8690TIP3    H247486   1.541   0.454  11.098 -0.0024  0.9887 -0.1603
 8691TIP3   OH247487   3.912   6.196   4.145  0.2048 -0.1747  0.6458
 8691TIP3    H147488   3.951   6.281   4.166  2.0059 -0.1058 -2.3935
 8691TIP3    H247489   3.987   6.141   4.120 -1.2324 -1.5518 -0.8608
 8692TIP3   OH247490   3.884   2.409  13.819 -0.6474  0.2406 -0.0155
 8692TIP3    H147491   3.961   2.399  13.875 -0.9257 -1.2745  0.1562
 8692TIP3    H247492   3.822   2.460  13.871 -0.5277 -0.2979  0.6625
 8693TIP3   OH247493   2.387   6.215  14.448 -0.3094 -0.0685 -0.2174
 8693TIP3    H147494   2.462   6.274  14.454  0.1902 -0.6942 -0.2611
 8693TIP3    H247495   2.421   6.129  14.473 -0.5202 -0.7777 -2.1544
 8694TIP3   OH247496   3.688   5.818  14.734  0.5553 -0.0573 -0.3841
 8694TIP3    H147497   3.714   5.747  14.792  0.7278  0.1621 -0.1893
 8694TIP3    H247498   3.600   5.842  14.762  1.3344  1.3293  1.0742
 8695TIP3   OH247499   5.868   0.721   1.837 -0.5330 -0.1505 -0.2526
 8695TIP3    H147500   5.908   0.786   1.778  1.0239 -0.6916  0.1400
 8695TIP3    H247501   5.891   0.751   1.925 -0.2905 -0.9198 -0.0498
 8696TIP3   OH247502   6.186   0.822   5.264 -0.2102  0.0302  0.0629
 8696TIP3    H147503   6.167   0.916   5.264 -2.6839 -0.3614 -2.3605
 8696TIP3    H247504   6.262   0.812   5.206  1.1092  0.6033  1.6044
 8697TIP3   OH247505   1.612   1.531  14.636  0.1118 -0.2986 -0.3843
 8697TIP3    H147506   1.585   1.585  14.710 -0.3621 -0.8282 -0.1667
 8697TIP3    H247507   1.553   1.456  14.638  0.0699 -0.2968 -1.3272
 8698TIP3   OH247508   0.607   3.613  13.040 -0.3673  0.0442  0.1909
 8698TIP3    H147509   0.686   3.581  12.995 -0.1334  0.6319  0.1778
 8698TIP3    H247510   0.635   3.624  13.131 -0.5602 -0.1781  0.2763
 8699TIP3   OH247511   5.935   2.583   4.616 -0.3149 -0.1458  0.1075
 8699TIP3    H147512   5.979   2.575   4.532 -1.2437 -0.7182 -0.3405
 8699TIP3    H247513   5.952   2.673   4.645  1.1546 -0.3656 -0.0322
 8700TIP3   OH247514   0.159   1.114  12.454 -0.1998 -0.3094  0.3938
 8700TIP3    H147515   0.203   1.122  12.369 -0.2274  0.0001  0.4080
 8700TIP3    H247516   0.222   1.149  12.517 -0.4030 -0.0164  0.4345
 8701TIP3   OH247517   1.742   4.567  14.531 -0.2422 -0.2024 -0.1268
 8701TIP3    H147518   1.691   4.500  14.577  0.2593  0.7499  1.9740
 8701TIP3    H247519   1.832   4.552  14.559 -0.1015  1.2361  0.2943
 8702TIP3   OH247520   4.747   4.594  16.401 -0.1071 -0.1775 -0.4482
 8702TIP3    H147521   4.695   4.625  16.475 -0.9757 -2.1374 -0.1797
 8702TIP3    H247522   4.708   4.636  16.324 -1.4078 -0.7725 -0.1336
 8703TIP3   OH247523   4.848   5.181   4.171 -0.2945  0.1379  0.0878
 8703TIP3    H147524   4.940   5.156   4.169  0.1637  1.6513 -1.7258
 8703TIP3    H247525   4.813   5.151   4.087 -1.0524  0.8492  0.1315
 8704TIP3   OH247526   0.026   3.603   0.560  0.5346 -0.4327 -0.2293
 8704TIP3    H147527   0.078   3.534   0.600 -0.1972 -1.4587 -0.9846
 8704TIP3    H247528  -0.006   3.654   0.634  0.6968 -1.1862  0.3822
 8705TIP3   OH247529   0.892   3.195   1.159 -0.7232  0.5383  0.4414
 8705TIP3    H147530   0.956   3.137   1.200 -2.7989 -1.1390  1.5298
 8705TIP3    H247531   0.924   3.205   1.069  0.6968 -0.7966  0.7460
 8706TIP3   OH247532   1.725   3.170  14.001 -0.0057  0.0022  0.2030
 8706TIP3    H147533   1.817   3.185  13.979 -0.2078 -0.0329 -0.7008
 8706TIP3    H247534   1.696   3.103  13.939 -0.3411 -0.8245  1.2272
 8707TIP3   OH247535   5.052   3.005   6.284 -0.4219 -0.1331 -0.3839
 8707TIP3    H147536   5.053   3.079   6.222  0.4325  0.5338  0.3816
 8707TIP3    H247537   5.129   2.953   6.260 -0.6009 -0.3675 -0.4503
 8708TIP3   OH247538   1.573   3.085  15.874  0.1886 -0.0308 -0.1361
 8708TIP3    H147539   1.506   3.151  15.889  0.1002 -0.6717  3.0014
 8708TIP3    H247540   1.527   3.001  15.883  1.1160 -0.4685  0.8707
 8709TIP3   OH247541   5.050   6.325   5.405  0.3762  0.0150 -0.0274
 8709TIP3    H147542   5.026   6.308   5.496  1.5416  0.2296  0.3217
 8709TIP3    H247543   5.011   6.410   5.385 -0.6718 -0.4458 -0.0348
 8710TIP3   OH247544   3.000   4.133  11.624 -0.2712 -0.1815 -0.4184
 8710TIP3    H147545   3.024   4.141  11.716 -1.1060 -2.4588  0.0737
 8710TIP3    H247546   3.021   4.218  11.585  0.3339  0.7382  1.8071
 8711TIP3   OH247547   2.698   3.784  12.369  0.1046 -0.3013  0.0231
 8711TIP3    H147548   2.716   3.877  12.363  0.1545 -0.3516 -0.8285
 8711TIP3    H247549   2.769   3.748  12.421  0.1540  0.1149  0.2426
 8712TIP3   OH247550   0.107   6.451   6.317  0.1603  0.0954 -0.7006
 8712TIP3    H147551   0.012   6.444   6.310  0.1294 -0.7412  0.2807
 8712TIP3    H247552   0.121   6.504   6.395  0.4485 -3.1262  1.6533
 8713TIP3   OH247553   0.022   5.388   5.888 -0.4362 -0.4429  0.9443
 8713TIP3    H147554  -0.070   5.381   5.864  0.4565 -0.7625 -3.1926
 8713TIP3    H247555   0.047   5.299   5.914 -0.8661 -0.8302  0.0631
 8714TIP3   OH247556   5.243   2.040   5.792  0.2668 -0.5020 -0.1493
 8714TIP3    H147557   5.150   2.020   5.781  0.2455 -0.1689 -0.6141
 8714TIP3    H247558   5.288   1.963   5.759  0.1553 -0.5556 -0.1768
 8715TIP3   OH247559   1.731   2.166  12.908  0.3109 -0.0523 -0.8980
 8715TIP3    H147560   1.739   2.229  12.836 -0.3323 -0.7347 -1.5955
 8715TIP3    H247561   1.760   2.213  12.985 -3.1437  2.2135 -0.7731
 8716TIP3   OH247562   2.598   5.109  14.334 -1.1646  0.3716  0.3774
 8716TIP3    H147563   2.625   5.081  14.247 -2.3995  1.0198 -0.2563
 8716TIP3    H247564   2.647   5.054  14.394  0.9911  1.0386 -0.6666
 8717TIP3   OH247565   2.085   3.100  16.947  0.1083 -0.5705 -0.3989
 8717TIP3    H147566   2.142   3.110  16.871  1.7742  1.0560  0.9732
 8717TIP3    H247567   2.140   3.126  17.021 -1.9395 -0.5698  1.1867
 8718TIP3   OH247568   4.924   2.238   4.494  0.3576 -0.0800 -0.2886
 8718TIP3    H147569   5.013   2.230   4.529 -0.3406  0.5717  1.7760
 8718TIP3    H247570   4.883   2.305   4.549 -1.5100 -0.5834 -1.0114
 8719TIP3   OH247571   2.962   3.564  15.116  0.1965  0.3184 -0.1606
 8719TIP3    H147572   2.943   3.545  15.208 -0.8571  1.0037 -0.2224
 8719TIP3    H247573   2.886   3.533  15.068  0.6222  0.2087 -0.7819
 8720TIP3   OH247574   4.537   0.929  13.424  0.0602 -0.3813 -0.2413
 8720TIP3    H147575   4.608   0.892  13.476 -1.3597 -0.0833  2.0348
 8720TIP3    H247576   4.469   0.863  13.425 -0.8747  0.5659  0.2454
 8721TIP3   OH247577   0.547   1.315  16.230 -0.0025 -0.8198 -0.1595
 8721TIP3    H147578   0.542   1.404  16.264  1.0722 -0.8524  0.1293
 8721TIP3    H247579   0.465   1.302  16.184 -0.9904 -0.3377  1.3993
 8722TIP3   OH247580   2.030   4.510  14.439  0.2598 -0.2960 -0.2709
 8722TIP3    H147581   2.071   4.486  14.522 -0.1611  0.8578  0.2888
 8722TIP3    H247582   2.100   4.551  14.388  0.6920 -1.6194 -0.7797
 8723TIP3   OH247583   3.251   6.289   2.858  0.3038  1.0365 -0.4442
 8723TIP3    H147584   3.302   6.234   2.918 -1.9479 -1.6661 -0.8582
 8723TIP3    H247585   3.232   6.368   2.909  3.5776  1.5933  0.1842
 8724TIP3   OH247586   6.321   4.119   0.831 -0.9585  0.1531  0.1432
 8724TIP3    H147587   6.339   4.028   0.855  1.0375 -0.3863 -2.8214
 8724TIP3    H247588   6.371   4.171   0.893  0.6931 -0.9734 -0.1739
 8725TIP3   OH247589   1.514   3.907  12.899 -0.1938  0.3269 -0.8644
 8725TIP3    H147590   1.522   3.820  12.859  2.0709  0.0488  0.0578
 8725TIP3    H247591   1.456   3.955  12.839 -1.3442 -1.7141 -1.5050
 8726TIP3   OH247592   2.100   1.477  15.838  1.1616  0.7162 -0.0214
 8726TIP3    H147593   2.179   1.422  15.831  0.2246 -0.6448 -0.2786
 8726TIP3    H247594   2.030   1.422  15.803 -0.0234  1.6591  0.8231
 8727TIP3   OH247595   4.423   0.225   5.316 -0.4650  0.2941 -0.7317
 8727TIP3    H147596   4.403   0.313   5.284 -0.0378  0.6244 -0.1257
 8727TIP3    H247597   4.509   0.234   5.359 -1.0739 -0.0647  0.6296
 8728TIP3   OH247598   5.014   0.479  15.545 -0.2123 -0.3228 -0.8064
 8728TIP3    H147599   5.032   0.553  15.487  1.5591 -0.0168  0.0645
 8728TIP3    H247600   5.062   0.406  15.505  0.1707 -0.3550 -0.3016
 8729TIP3   OH247601   1.734   6.407   4.330 -0.3323 -0.1343  0.2502
 8729TIP3    H147602   1.767   6.372   4.248  0.7472  1.5632 -0.0823
 8729TIP3    H247603   1.753   6.339   4.395  1.0970 -0.4653 -0.4731
 8730TIP3   OH247604   2.595   4.141  16.362 -0.6442 -0.5113 -0.1808
 8730TIP3    H147605   2.537   4.169  16.433 -1.4250 -0.4859 -0.8263
 8730TIP3    H247606   2.669   4.101  16.407  0.6918  2.7599  0.8222
 8731TIP3   OH247607   3.098   5.057  13.871 -0.6429 -0.1226  0.0646
 8731TIP3    H147608   3.004   5.062  13.858 -0.7470 -0.3974  0.7239
 8731TIP3    H247609   3.124   4.973  13.833 -0.2559  1.0679 -2.5238
 8732TIP3   OH247610   5.597   4.889   3.109  0.0954 -0.1143  0.0231
 8732TIP3    H147611   5.502   4.901   3.107 -0.2643 -2.5292 -2.1437
 8732TIP3    H247612   5.631   4.952   3.046 -0.1248  0.2833  0.2978
 8733TIP3   OH247613   3.597   3.288   5.621 -0.1884 -0.3754  0.4177
 8733TIP3    H147614   3.529   3.298   5.555  0.2685  0.5379  0.0746
 8733TIP3    H247615   3.622   3.378   5.645  0.8754 -0.6881  0.5565
 8734TIP3   OH247616   5.387   4.261  13.864 -0.0067  0.5784 -0.2960
 8734TIP3    H147617   5.431   4.177  13.847  2.3229  1.5176  0.5788
 8734TIP3    H247618   5.417   4.318  13.793 -1.2947  0.7846 -0.6874
 8735TIP3   OH247619   3.522   2.200   4.163  0.4334  0.2541 -0.1196
 8735TIP3    H147620   3.542   2.277   4.216  3.1606 -0.9364  0.7716
 8735TIP3    H247621   3.566   2.128   4.208 -2.6765 -2.0681 -0.4368
 8736TIP3   OH247622   6.339   2.779  12.842  0.3981 -0.5733 -0.0727
 8736TIP3    H147623   6.315   2.871  12.834  0.5570 -0.6760 -3.0421
 8736TIP3    H247624   6.257   2.734  12.862  0.3751  0.1923  1.7032
 8737TIP3   OH247625   1.197   5.182   0.830  0.2922 -1.0290 -0.4361
 8737TIP3    H147626   1.263   5.135   0.779  0.8114 -0.6294 -0.1432
 8737TIP3    H247627   1.113   5.149   0.796  0.6326 -1.4253 -0.9215
 8738TIP3   OH247628   5.342   3.028  12.165  0.8707 -0.2671 -0.2950
 8738TIP3    H147629   5.341   3.007  12.072  0.9421 -0.7105 -0.1999
 8738TIP3    H247630   5.435   3.024  12.190  1.0449  1.4841 -0.5543
 8739TIP3   OH247631   1.249   6.580   3.181 -0.8340 -0.6480  0.2624
 8739TIP3    H147632   1.341   6.577   3.208 -0.4314  0.1134 -0.9624
 8739TIP3    H247633   1.236   6.500   3.130 -0.4173 -0.0100 -0.8616
 8740TIP3   OH247634   0.848   5.207   5.164 -0.6464  0.7566  0.2609
 8740TIP3    H147635   0.934   5.243   5.184 -0.3684  1.1469 -1.4209
 8740TIP3    H247636   0.809   5.272   5.104  0.4776 -2.2122 -4.2052
 8741TIP3   OH247637   5.576   0.232  17.390  0.1448 -0.0648 -0.0428
 8741TIP3    H147638   5.529   0.149  17.398  1.0287 -0.6025 -0.2825
 8741TIP3    H247639   5.606   0.234  17.299 -1.1682  1.2423 -0.4699
 8742TIP3   OH247640   6.492   1.030   0.213  0.8899 -0.3371  0.0857
 8742TIP3    H147641   6.516   1.104   0.269  2.0628 -0.2131 -0.5497
 8742TIP3    H247642   6.533   1.049   0.129  0.8021 -1.4791 -0.2368
 8743TIP3   OH247643   4.554   1.891   4.054  0.5134 -0.1415 -0.3248
 8743TIP3    H147644   4.584   1.963   4.000  1.4713 -0.5111 -0.2991
 8743TIP3    H247645   4.479   1.926   4.102  0.9306  0.8113 -0.3611
 8744TIP3   OH247646   5.445   0.876  10.888  0.0703 -0.1148 -0.0719
 8744TIP3    H147647   5.518   0.937  10.876 -0.0833  0.0794 -0.0234
 8744TIP3    H247648   5.376   0.929  10.930  1.1272 -1.0827  3.1956
 8745TIP3   OH247649   0.619   1.998   6.371  0.5214 -0.0891 -0.4942
 8745TIP3    H147650   0.578   2.078   6.404 -0.4033 -0.1963 -1.3362
 8745TIP3    H247651   0.713   2.013   6.381  0.3239  0.5242  0.6444
 8746TIP3   OH247652   4.070   5.457   0.886 -0.0053  0.2226 -0.3598
 8746TIP3    H147653   4.032   5.467   0.973  0.5648 -1.6677  0.1489
 8746TIP3    H247654   4.140   5.522   0.882  0.4779 -0.2077  0.9056
 8747TIP3   OH247655   4.645   0.562   3.615 -0.0161 -0.5079 -0.4028
 8747TIP3    H147656   4.583   0.498   3.581 -0.1955  0.0123 -1.0858
 8747TIP3    H247657   4.696   0.514   3.680 -1.7490 -0.7143  0.8850
 8748TIP3   OH247658   5.070   1.459   0.542 -0.4898  0.1259 -0.4155
 8748TIP3    H147659   5.065   1.383   0.601 -2.3477  0.6270  0.1336
 8748TIP3    H247660   5.091   1.421   0.457  0.8806 -0.7441  0.2632
 8749TIP3   OH247661   6.506   1.117   5.368 -0.5711 -0.1294 -0.0818
 8749TIP3    H147662   6.429   1.129   5.424 -0.1311  2.0118  0.1479
 8749TIP3    H247663   6.483   1.162   5.287  1.3082  2.9305  0.8984
 8750TIP3   OH247664   2.129   5.668  14.427  0.0542 -0.0830  0.3357
 8750TIP3    H147665   2.148   5.680  14.334  1.9946 -1.4450  0.4781
 8750TIP3    H247666   2.139   5.755  14.465  0.7762  0.2310 -0.5242
 8751TIP3   OH247667   1.068   2.515  11.381 -0.7716  0.1513 -0.4361
 8751TIP3    H147668   0.988   2.544  11.338 -0.5405 -0.0858 -1.0349
 8751TIP3    H247669   1.072   2.421  11.363  0.0193  0.2908 -1.0397
 8752TIP3   OH247670   0.650   2.453  14.714  0.3995  0.0619 -1.2251
 8752TIP3    H147671   0.664   2.396  14.790 -1.7867  0.9491 -0.0734
 8752TIP3    H247672   0.603   2.399  14.651  1.4223 -0.4093 -1.6024
 8753TIP3   OH247673   6.284   3.263  13.032 -0.5132 -0.5007 -0.6365
 8753TIP3    H147674   6.221   3.316  13.082  0.6436  0.1658  0.1664
 8753TIP3    H247675   6.307   3.318  12.957  2.5201  1.3462  1.4290
 8754TIP3   OH247676   1.324   1.919  13.638  0.5949 -0.1138 -0.9437
 8754TIP3    H147677   1.282   1.851  13.692  1.0342 -2.1490 -3.0022
 8754TIP3    H247678   1.418   1.899  13.646  0.9410  1.6938  0.1528
 8755TIP3   OH247679   5.384   0.266   5.947  0.8031  0.1404 -0.3360
 8755TIP3    H147680   5.470   0.227   5.927  0.4853 -1.3260  0.9790
 8755TIP3    H247681   5.390   0.291   6.039 -0.4151 -0.6920 -0.0121
 8756TIP3   OH247682   3.527   1.068  14.902  0.7234  0.1176 -0.4189
 8756TIP3    H147683   3.448   1.119  14.884 -0.2900 -1.4881 -0.7646
 8756TIP3    H247684   3.502   0.978  14.881  2.1164 -0.6808  1.1346
 8757TIP3   OH247685   4.006   0.717  16.886 -0.4876 -0.3190 -0.0443
 8757TIP3    H147686   4.030   0.720  16.793 -1.9109  0.3058 -0.4314
 8757TIP3    H247687   3.974   0.806  16.904 -1.4300 -0.7966  0.6894
 8758TIP3   OH247688   2.058   1.125  10.863 -0.0777 -0.3677  0.4357
 8758TIP3    H147689   2.036   1.034  10.843 -1.6099  0.3187 -1.2642
 8758TIP3    H247690   2.130   1.146  10.804 -0.9339  0.0318 -0.4902
 8759TIP3   OH247691   4.450   0.144   1.918  0.6142 -0.5668 -0.3140
 8759TIP3    H147692   4.382   0.134   1.984  1.1894 -1.0364  0.2179
 8759TIP3    H247693   4.473   0.236   1.920  0.4388 -0.5282 -0.0444
 8760TIP3   OH247694   1.015   5.377   0.637 -0.1618  0.0074  0.2492
 8760TIP3    H147695   1.074   5.359   0.564  0.9055 -1.5459  1.4241
 8760TIP3    H247696   0.997   5.291   0.675 -0.8815  0.7505  1.6517
 8761TIP3   OH247697   4.210   6.153  15.324 -0.4017  0.1215  0.0396
 8761TIP3    H147698   4.156   6.231  15.313 -0.0451  0.2741 -0.7408
 8761TIP3    H247699   4.190   6.099  15.248 -1.3115 -0.9742  1.0266
 8762TIP3   OH247700   4.221   6.708  15.136 -0.0474 -0.3687 -1.2073
 8762TIP3    H147701   4.255   6.619  15.123 -0.5984 -0.8980  0.5947
 8762TIP3    H247702   4.165   6.700  15.213  1.6792  1.9808  0.4466
 8763TIP3   OH247703   1.729   6.391  12.504 -0.6527 -0.4028 -0.1816
 8763TIP3    H147704   1.775   6.398  12.421 -1.0928  1.4158 -0.3098
 8763TIP3    H247705   1.796   6.410  12.570 -0.3046 -1.8413 -0.0808
 8764TIP3   OH247706   5.220   6.258  13.130  0.3092 -0.3563 -0.3246
 8764TIP3    H147707   5.145   6.312  13.152  0.8375 -0.2267  1.2498
 8764TIP3    H247708   5.292   6.320  13.119  0.1385 -0.4281 -2.3287
 8765TIP3   OH247709   2.542   0.230  17.386  0.0563 -0.0267  0.6417
 8765TIP3    H147710   2.470   0.212  17.326  0.1188  1.6635 -0.0007
 8765TIP3    H247711   2.500   0.244  17.471 -0.1909 -0.7109  0.6407
 8766TIP3   OH247712   3.589   4.117  12.489 -0.2878 -0.0790  0.1633
 8766TIP3    H147713   3.554   4.033  12.519  0.2389 -0.0485  0.8990
 8766TIP3    H247714   3.531   4.182  12.527 -1.7013 -0.1348 -1.7755
 8767TIP3   OH247715   2.172   4.803  15.718  0.2779  0.1018  0.3619
 8767TIP3    H147716   2.209   4.814  15.806  1.0101  0.4235  0.0199
 8767TIP3    H247717   2.204   4.879  15.669 -0.3773  0.0898 -0.1061
 8768TIP3   OH247718   4.820   3.538   2.835  0.5128  0.0687  0.0176
 8768TIP3    H147719   4.879   3.609   2.808  1.1021 -0.1357  0.7222
 8768TIP3    H247720   4.851   3.461   2.787  0.9730 -0.0898  0.5623
 8769TIP3   OH247721   3.165   4.221   1.007  0.0370  0.3045  0.1032
 8769TIP3    H147722   3.195   4.262   1.089 -1.3241  0.0880  0.7459
 8769TIP3    H247723   3.186   4.128   1.017 -1.0610  0.1003  0.6885
 8770TIP3   OH247724   4.610   5.953   1.886  0.5704  0.1008  0.1766
 8770TIP3    H147725   4.639   6.032   1.839  1.1032 -0.2263 -0.0515
 8770TIP3    H247726   4.561   5.987   1.961 -2.5562  0.6687 -1.9074
 8771TIP3   OH247727   2.227   2.829   1.892 -0.3074  0.3180 -0.2228
 8771TIP3    H147728   2.145   2.797   1.855  0.3900 -0.1856 -1.4034
 8771TIP3    H247729   2.213   2.830   1.987 -1.1424 -1.2989 -0.2999
 8772TIP3   OH247730   3.802   1.931  13.721  0.1509  0.5174  0.1681
 8772TIP3    H147731   3.719   1.916  13.677  1.7788 -1.5054 -2.5906
 8772TIP3    H247732   3.824   2.022  13.701  0.2707  0.0067 -2.4453
 8773TIP3   OH247733   3.461   5.502   0.236 -0.2233 -0.1885 -0.0711
 8773TIP3    H147734   3.383   5.448   0.223  1.2961 -2.6247  0.3811
 8773TIP3    H247735   3.509   5.495   0.153 -0.0760  0.6327 -0.0664
 8774TIP3   OH247736   6.367   0.509   3.464 -0.2258 -0.2594  0.0561
 8774TIP3    H147737   6.384   0.553   3.380 -3.3901 -1.3901 -1.3565
 8774TIP3    H247738   6.382   0.417   3.445  0.2113 -0.4113  1.1214
 8775TIP3   OH247739   2.462   6.425   3.740 -0.0047  0.2100 -0.9572
 8775TIP3    H147740   2.402   6.353   3.721  1.3962 -0.9695 -1.0902
 8775TIP3    H247741   2.549   6.385   3.736  0.8265  1.9859 -1.2887
 8776TIP3   OH247742   4.111   5.058  17.110 -0.3773  0.4151 -0.0361
 8776TIP3    H147743   4.077   5.115  17.179 -1.4608  1.3314 -1.2735
 8776TIP3    H247744   4.156   4.988  17.157 -1.5786  0.6884  1.6175
 8777TIP3   OH247745   0.976   0.994  13.515  0.0151 -0.2547  0.2434
 8777TIP3    H147746   1.055   1.036  13.550 -1.5951  0.7252  3.0982
 8777TIP3    H247747   0.954   1.044  13.437  2.3361 -0.7782 -0.8394
 8778TIP3   OH247748   1.403   5.025  11.753  0.0526  0.4863 -0.3296
 8778TIP3    H147749   1.467   5.020  11.824  0.1016  1.2650 -0.3119
 8778TIP3    H247750   1.328   5.070  11.792 -0.0150  0.7002 -0.7061
 8779TIP3   OH247751   1.257   3.220   0.541  0.2974 -0.1617  0.8576
 8779TIP3    H147752   1.223   3.248   0.626  0.6596 -0.4408  1.0998
 8779TIP3    H247753   1.182   3.225   0.482  0.2682  0.9596  0.9726
 8780TIP3   OH247754   6.455   3.689  16.029 -0.1479  0.2080  0.8681
 8780TIP3    H147755   6.411   3.766  16.065 -1.4278 -0.5747  1.0772
 8780TIP3    H247756   6.494   3.647  16.106  0.3031  0.4998  0.7969
 8781TIP3   OH247757   5.772   1.890   3.684 -0.1756  0.5880  0.5064
 8781TIP3    H147758   5.724   1.810   3.664  0.5449 -0.1326  1.5363
 8781TIP3    H247759   5.707   1.960   3.676 -1.1267 -0.2384  0.8066
 8782TIP3   OH247760   5.006   6.272   5.690 -0.0150  0.5919  0.3693
 8782TIP3    H147761   4.958   6.336   5.742 -1.1380  1.7316 -1.9349
 8782TIP3    H247762   5.036   6.207   5.754 -0.9366  2.0989  2.4583
 8783TIP3   OH247763   4.820   3.981  15.112 -0.5298 -0.1884 -0.2030
 8783TIP3    H147764   4.805   3.888  15.131 -2.0954 -0.0861 -0.8120
 8783TIP3    H247765   4.899   4.003  15.161 -0.7266 -1.5830  0.7965
 8784TIP3   OH247766   2.973   0.136  11.565 -0.5885  0.4931 -0.1881
 8784TIP3    H147767   2.953   0.066  11.504  0.0912  0.1294  0.0012
 8784TIP3    H247768   3.069   0.143  11.564 -0.6816  2.0479 -0.9151
 8785TIP3   OH247769   4.666   0.439   5.382  0.8132  0.1400 -0.2446
 8785TIP3    H147770   4.713   0.471   5.305  1.0159 -0.4051 -0.3529
 8785TIP3    H247771   4.710   0.357   5.405 -0.1927 -0.4849 -0.4717
 8786TIP3   OH247772   5.134   3.524   4.404 -0.4719 -0.4313  0.4134
 8786TIP3    H147773   5.047   3.503   4.369 -0.9073  1.9951 -0.0943
 8786TIP3    H247774   5.122   3.527   4.498 -0.7499 -0.8611  0.3939
 8787TIP3   OH247775   6.739   0.194   4.139 -0.1520 -0.0732  0.5923
 8787TIP3    H147776   6.663   0.244   4.170 -0.4393 -0.5806  0.7193
 8787TIP3    H247777   6.701   0.121   4.090  0.2954  0.6828 -0.9329
 8788TIP3   OH247778   2.079   1.336   2.246 -0.0260  0.5874 -0.7761
 8788TIP3    H147779   2.132   1.410   2.215 -0.6649  1.5309  0.2977
 8788TIP3    H247780   2.003   1.377   2.287 -0.3268 -0.6799 -0.0264
 8789TIP3   OH247781   3.820   0.709  13.025 -0.3381 -0.0482  0.0775
 8789TIP3    H147782   3.783   0.797  13.023  1.9745  1.0789  1.8773
 8789TIP3    H247783   3.761   0.659  13.081 -0.6487  0.8999  0.6180
 8790TIP3   OH247784   5.183   2.563  14.686 -0.3879 -0.3715 -0.0464
 8790TIP3    H147785   5.234   2.638  14.717  1.2084 -1.1898 -0.5836
 8790TIP3    H247786   5.137   2.597  14.609 -1.3131  0.5929  0.8928
 8791TIP3   OH247787   3.515   0.085  16.202  0.0581 -0.1696  0.0212
 8791TIP3    H147788   3.585   0.113  16.261 -0.3796 -0.6524  0.7776
 8791TIP3    H247789   3.506   0.158  16.140  1.5838 -0.3149 -0.4205
 8792TIP3   OH247790   3.298   0.836  15.394  0.0948  0.5569 -0.1704
 8792TIP3    H147791   3.368   0.855  15.331  0.6721 -1.0334 -0.0383
 8792TIP3    H247792   3.219   0.829  15.340  0.1379  1.5948 -0.4049
 8793TIP3   OH247793   3.494   6.225   2.302  0.0435  0.5146  0.1243
 8793TIP3    H147794   3.485   6.155   2.237 -0.9240 -0.2155  1.0083
 8793TIP3    H247795   3.571   6.201   2.353 -0.9172 -0.5253  1.1247
 8794TIP3   OH247796   2.321   0.598   3.928 -0.2555  0.3557  0.4148
 8794TIP3    H147797   2.403   0.591   3.880 -0.7516 -0.9449 -0.3097
 8794TIP3    H247798   2.324   0.528   3.993 -0.6101  0.5720  0.6703
 8795TIP3   OH247799   4.703   3.176   3.619  0.5961  0.0079 -0.0900
 8795TIP3    H147800   4.640   3.206   3.553 -0.4864 -0.2280  0.8071
 8795TIP3    H247801   4.778   3.234   3.608  0.1728  0.3906 -1.0939
 8796TIP3   OH247802   5.282   1.669   3.169  0.2305  0.0045 -0.6666
 8796TIP3    H147803   5.283   1.583   3.127  0.0528  0.7381 -2.2451
 8796TIP3    H247804   5.242   1.727   3.103  1.0551  1.4410  0.0574
 8797TIP3   OH247805   2.563   2.736  14.547  0.0350  0.2035  0.0823
 8797TIP3    H147806   2.510   2.815  14.556 -1.0764 -0.3345 -1.3369
 8797TIP3    H247807   2.529   2.676  14.614 -0.0975  0.4242  0.2107
 8798TIP3   OH247808   3.160   5.976  16.042 -0.2451 -0.7612  0.1239
 8798TIP3    H147809   3.161   5.890  16.085 -0.0201 -1.1018 -0.5439
 8798TIP3    H247810   3.179   6.038  16.112  0.3944 -1.3307  0.4679
 8799TIP3   OH247811   3.943   6.561  15.993  0.1449 -0.1095 -0.7368
 8799TIP3    H147812   4.038   6.573  15.997  0.0636  0.3898 -0.1130
 8799TIP3    H247813   3.925   6.488  16.052  0.1324 -0.1276 -0.7636
 8800TIP3   OH247814   6.370   1.545  15.012  0.5854 -0.2680 -0.5756
 8800TIP3    H147815   6.457   1.516  15.039  0.7135  0.0589 -0.6344
 8800TIP3    H247816   6.387   1.622  14.957  0.3383 -0.9628 -1.6418
 8801TIP3   OH247817   5.476   6.430  13.117 -0.2682 -0.6310 -0.1627
 8801TIP3    H147818   5.511   6.505  13.166 -0.9334 -0.6620  0.3823
 8801TIP3    H247819   5.543   6.362  13.125 -0.0664 -0.4008  0.1320
 8802TIP3   OH247820   1.528   0.680   0.598  0.0312 -0.0576 -0.6318
 8802TIP3    H147821   1.448   0.724   0.626  2.5047  2.4177  3.6178
 8802TIP3    H247822   1.532   0.601   0.651  0.5172 -0.0939 -0.7212
 8803TIP3   OH247823   4.786   0.201   2.731  0.2615 -0.2001 -0.3049
 8803TIP3    H147824   4.838   0.165   2.659  3.0366 -0.2936  1.5638
 8803TIP3    H247825   4.827   0.286   2.750  0.7932 -0.9294  2.2209
 8804TIP3   OH247826   5.427   3.965   3.575  0.0155 -0.1831 -0.4986
 8804TIP3    H147827   5.483   4.028   3.529  0.5149 -0.4708 -0.2949
 8804TIP3    H247828   5.462   3.964   3.664 -0.2953 -0.3920 -0.3803
 8805TIP3   OH247829   5.150   6.639   5.740  0.6765 -0.0368  0.4349
 8805TIP3    H147830   5.210   6.599   5.676 -1.3552 -0.5209 -1.2710
 8805TIP3    H247831   5.154   6.732   5.723  0.3477 -0.1423 -0.2340
 8806TIP3   OH247832   4.422   6.635  10.967 -0.1699  0.3641 -0.2234
 8806TIP3    H147833   4.502   6.688  10.970 -0.0680  0.2635 -0.9805
 8806TIP3    H247834   4.352   6.697  10.989  0.0714  0.5480  0.0303
 8807TIP3   OH247835   1.249   2.637  14.266  0.0817 -0.2070  1.0597
 8807TIP3    H147836   1.255   2.732  14.258 -0.0856 -0.0774  2.3209
 8807TIP3    H247837   1.332   2.605  14.230 -0.1441  0.3556 -0.0239
 8808TIP3   OH247838   1.051   1.497  13.435 -0.1054  0.3713 -0.2733
 8808TIP3    H147839   1.112   1.563  13.468  1.3219 -1.4097  0.8864
 8808TIP3    H247840   1.107   1.423  13.412 -1.8107 -1.5242  1.2958
 8809TIP3   OH247841   1.679   0.726   4.948  0.1103 -0.0708  0.1570
 8809TIP3    H147842   1.662   0.812   4.987  2.1006  0.2096  0.5138
 8809TIP3    H247843   1.721   0.677   5.019 -1.0199 -1.3614 -0.0428
 8810TIP3   OH247844   3.221   3.826   2.458 -0.6148  0.3067 -0.8028
 8810TIP3    H147845   3.246   3.873   2.538 -0.7522 -2.0917  0.7476
 8810TIP3    H247846   3.125   3.828   2.457 -0.6231 -0.0183 -0.6829
 8811TIP3   OH247847   6.463   3.357  11.441 -0.1979 -0.4298 -0.4805
 8811TIP3    H147848   6.394   3.398  11.389 -1.7616 -1.9481  0.3026
 8811TIP3    H247849   6.540   3.413  11.428 -1.6641  1.5517 -1.0658
 8812TIP3   OH247850   4.227   3.653   5.809  0.1575  0.3039 -0.1589
 8812TIP3    H147851   4.277   3.589   5.859  0.7296  0.0687 -1.0175
 8812TIP3    H247852   4.158   3.682   5.869 -0.7328 -1.8459 -0.0686
 8813TIP3   OH247853   0.869   6.509  10.846 -0.0002  0.3682  0.2541
 8813TIP3    H147854   0.789   6.459  10.861 -1.0095  1.4682 -1.1934
 8813TIP3    H247855   0.856   6.590  10.896 -0.2483  0.9769 -0.7829
 8814TIP3   OH247856   0.301   0.575  11.640 -0.0936  0.1821  0.5037
 8814TIP3    H147857   0.252   0.493  11.642 -0.4405  0.3894  2.1658
 8814TIP3    H247858   0.385   0.552  11.601 -0.7930 -0.5857 -0.6159
 8815TIP3   OH247859   0.699   5.762   2.660  0.4801  0.6797 -0.0238
 8815TIP3    H147860   0.636   5.821   2.700 -0.5354 -0.4672  0.1201
 8815TIP3    H247861   0.687   5.776   2.566  0.4583  0.9085  0.0107
 8816TIP3   OH247862   4.834   1.852  14.838 -0.0044 -0.9801  1.0244
 8816TIP3    H147863   4.827   1.762  14.869 -0.5997 -0.3348  2.9269
 8816TIP3    H247864   4.903   1.891  14.892  0.3969 -0.3369  0.0812
 8817TIP3   OH247865   4.733   3.187  15.266  0.2121  0.3056 -0.4093
 8817TIP3    H147866   4.827   3.180  15.284  0.1977 -0.8760 -0.7556
 8817TIP3    H247867   4.727   3.196  15.171 -0.0007  1.1914 -0.3245
 8818TIP3   OH247868   6.510   4.109  17.211 -0.5057 -0.3781 -0.4877
 8818TIP3    H147869   6.422   4.072  17.204 -0.3031 -0.8788 -0.3894
 8818TIP3    H247870   6.568   4.039  17.181 -0.0046 -0.6945  1.1526
 8819TIP3   OH247871   0.582   1.767  15.592  0.4716  0.5114  0.0052
 8819TIP3    H147872   0.500   1.814  15.608  0.3681 -0.3207  2.4239
 8819TIP3    H247873   0.633   1.781  15.672  2.0160 -0.3324 -0.7969
 8820TIP3   OH247874   2.097   3.626  12.052 -0.3725  0.3837  0.8268
 8820TIP3    H147875   2.093   3.639  12.146 -0.3628 -0.9453  1.0329
 8820TIP3    H247876   2.188   3.602  12.035 -0.5651 -0.2115  0.6098
 8821TIP3   OH247877   6.077   3.197   0.428  0.2043  0.2523  0.2283
 8821TIP3    H147878   6.147   3.144   0.390 -1.9807 -1.2051 -2.0877
 8821TIP3    H247879   6.044   3.143   0.500  2.4561  1.7163  2.4923
 8822TIP3   OH247880   3.491   6.442  11.077  0.2131 -0.5994 -0.2632
 8822TIP3    H147881   3.512   6.468  11.167 -1.3640 -2.5518  0.7518
 8822TIP3    H247882   3.478   6.348  11.081 -1.3715 -0.5568 -2.2184
 8823TIP3   OH247883   5.268   4.947   3.335 -0.8070 -0.3443  0.3780
 8823TIP3    H147884   5.284   4.872   3.392 -2.4680 -1.0814 -0.0821
 8823TIP3    H247885   5.306   4.922   3.251  0.2239  0.0899  0.6981
 8824TIP3   OH247886   4.499   0.341   2.223  0.3303 -0.3634 -0.3016
 8824TIP3    H147887   4.422   0.395   2.208 -0.0763 -0.7877  0.2408
 8824TIP3    H247888   4.568   0.383   2.170  0.1344  0.9376  0.4258
 8825TIP3   OH247889   0.713   1.276   5.292  0.3369  0.5461 -0.0549
 8825TIP3    H147890   0.696   1.230   5.375 -2.2266 -1.8484 -1.7246
 8825TIP3    H247891   0.786   1.227   5.252 -0.5375 -0.3755 -0.5745
 8826TIP3   OH247892   0.214   6.383   4.018  0.4030  0.1463 -0.1380
 8826TIP3    H147893   0.231   6.306   3.963 -1.7357 -0.1713 -0.4311
 8826TIP3    H247894   0.234   6.354   4.107  0.6729 -0.4014 -0.3732
 8827TIP3   OH247895   0.897   3.786   1.830 -0.2541  0.3839 -0.3386
 8827TIP3    H147896   0.892   3.818   1.740 -1.5449 -0.7921 -0.7230
 8827TIP3    H247897   0.991   3.786   1.851 -0.0399  1.9685 -1.1749
 8828TIP3   OH247898   6.349   3.914   2.203  0.2832 -0.2009  0.7967
 8828TIP3    H147899   6.384   3.974   2.137 -0.1599 -0.9172 -0.1094
 8828TIP3    H247900   6.362   3.960   2.286  2.0629  0.1721  0.3648
 8829TIP3   OH247901   4.515   0.873   2.790 -0.0440 -0.2464  0.2112
 8829TIP3    H147902   4.601   0.878   2.831 -1.3879 -1.0591  3.4246
 8829TIP3    H247903   4.478   0.790   2.822 -2.5127  0.6750 -0.0299
 8830TIP3   OH247904   1.604   6.173  17.377 -0.2799 -0.1845  0.6963
 8830TIP3    H147905   1.562   6.087  17.375 -0.8750  0.0940  1.0040
 8830TIP3    H247906   1.617   6.196  17.285  2.5701 -1.8813  0.5430
 8831TIP3   OH247907   0.514   2.591  16.752  0.5511  0.5480  0.0325
 8831TIP3    H147908   0.469   2.519  16.798  0.5374 -0.2696 -1.2120
 8831TIP3    H247909   0.585   2.616  16.811  0.8256 -0.7924  0.3255
 8832TIP3   OH247910   1.139   1.170   4.859  0.2587 -0.0099  0.6271
 8832TIP3    H147911   1.057   1.128   4.887  1.0873 -1.3205  1.2246
 8832TIP3    H247912   1.113   1.229   4.789 -1.0238 -1.4952 -0.2321
 8833TIP3   OH247913   4.265   3.575   3.666  0.4986 -0.1568 -0.0172
 8833TIP3    H147914   4.255   3.501   3.726  0.1665  1.2947  1.7903
 8833TIP3    H247915   4.179   3.618   3.667  1.3758  1.6760  0.9626
 8834TIP3   OH247916   1.298   1.603  13.293 -1.1726  0.1486  0.9781
 8834TIP3    H147917   1.239   1.530  13.275 -2.0788  1.1438 -0.2341
 8834TIP3    H247918   1.385   1.563  13.300 -1.3097 -0.8294 -1.8892
 8835TIP3   OH247919   4.310   5.173   1.895 -0.0323  1.1595 -0.2868
 8835TIP3    H147920   4.272   5.257   1.921 -0.2124  1.5053 -1.6153
 8835TIP3    H247921   4.397   5.173   1.937  0.4559  2.5502 -1.2299
 8836TIP3   OH247922   0.804   3.361   1.962  0.5150 -0.0977 -0.1110
 8836TIP3    H147923   0.721   3.342   1.918  0.4460  0.8908 -0.4395
 8836TIP3    H247924   0.866   3.379   1.891  0.3300  1.8019  0.1373
 8837TIP3   OH247925   3.398   2.242  16.323  0.3448 -0.7564 -0.2126
 8837TIP3    H147926   3.382   2.153  16.292  0.2407 -0.5773 -0.6881
 8837TIP3    H247927   3.414   2.293  16.243 -3.7676  0.5474 -0.4676
 8838TIP3   OH247928   5.133   5.397  16.513 -0.1552  0.6574  0.1738
 8838TIP3    H147929   5.071   5.461  16.546 -5.1218 -3.4159  0.0294
 8838TIP3    H247930   5.142   5.333  16.584  1.2314 -0.5862 -1.0405
 8839TIP3   OH247931   4.251   1.494  12.691  0.4309  0.2258 -0.0293
 8839TIP3    H147932   4.277   1.457  12.607  1.9190  1.9850 -0.4054
 8839TIP3    H247933   4.332   1.530  12.728 -0.6508  1.8623  0.9015
 8840TIP3   OH247934   3.223   1.738   1.422  0.3558 -0.3024 -0.2799
 8840TIP3    H147935   3.143   1.771   1.461 -0.5734  0.2208 -2.4630
 8840TIP3    H247936   3.288   1.806   1.440 -0.2005  0.2116 -0.1804
 8841TIP3   OH247937   1.762   3.631  17.317 -0.0933  0.1187  0.2478
 8841TIP3    H147938   1.772   3.722  17.288  3.1433 -0.0032  0.5473
 8841TIP3    H247939   1.748   3.638  17.411  1.9593  0.3632  0.5850
 8842TIP3   OH247940   3.025   1.796   3.612 -0.3161  0.2924  0.9005
 8842TIP3    H147941   3.090   1.788   3.542 -1.4103 -1.9513  0.0353
 8842TIP3    H247942   3.075   1.825   3.688  2.0618 -2.6029  0.6439
 8843TIP3   OH247943   2.006   1.897  11.008 -0.2356 -0.2832  0.1672
 8843TIP3    H147944   2.096   1.885  10.978 -0.5422 -0.7671 -0.5816
 8843TIP3    H247945   1.965   1.812  10.996 -0.4428 -0.4297  1.7640
 8844TIP3   OH247946   4.080   3.231  12.806 -0.0624  0.1875 -0.0327
 8844TIP3    H147947   4.060   3.144  12.841  0.3432  0.4267  0.8242
 8844TIP3    H247948   4.176   3.236  12.807 -0.0896  0.7236  0.1310
 8845TIP3   OH247949   3.504   6.011  15.567  0.0581  0.0554 -0.0465
 8845TIP3    H147950   3.449   6.056  15.503 -0.5322  0.2335  0.5744
 8845TIP3    H247951   3.512   6.073  15.639  0.1374 -0.4099  0.3472
 8846TIP3   OH247952   6.539   3.606  16.288  0.2715 -0.7282  0.7680
 8846TIP3    H147953   6.519   3.525  16.333  1.4479  0.1701  3.0605
 8846TIP3    H247954   6.631   3.623  16.308  0.8548 -0.1909 -1.9511
 8847TIP3   OH247955   2.689   5.719  16.414  0.3034  0.0669 -0.1952
 8847TIP3    H147956   2.612   5.738  16.468  0.0161  1.8369 -1.1470
 8847TIP3    H247957   2.717   5.804  16.381  2.7445 -0.5159  0.1642
 8848TIP3   OH247958   3.583   1.204   5.017 -0.0500 -0.3215  0.1099
 8848TIP3    H147959   3.616   1.115   5.029  0.1969 -0.3036 -0.4129
 8848TIP3    H247960   3.626   1.235   4.938  0.7175  0.6702  0.8906
 8849TIP3   OH247961   3.865   2.723  16.731  0.0007  0.0221 -0.0073
 8849TIP3    H147962   3.794   2.665  16.704  0.5161 -0.7712  0.3253
 8849TIP3    H247963   3.916   2.737  16.651  1.5551 -2.3699  0.4619
 8850TIP3   OH247964   2.028   2.990  13.588 -0.6477  0.9108 -0.1503
 8850TIP3    H147965   2.031   2.954  13.499 -3.5055 -1.6990  0.6485
 8850TIP3    H247966   1.966   2.934  13.635 -0.8983  3.4793  2.9405
 8851TIP3   OH247967   2.409   1.897   1.187 -0.2969 -0.2078 -0.1852
 8851TIP3    H147968   2.437   1.873   1.098 -2.3463 -0.7859 -0.7319
 8851TIP3    H247969   2.473   1.962   1.215  0.2949  0.1578 -2.1710
 8852TIP3   OH247970   5.908   6.745  15.374 -0.1888 -0.4706 -0.0817
 8852TIP3    H147971   5.838   6.735  15.309  0.1483 -0.5240 -0.4420
 8852TIP3    H247972   5.946   6.658  15.381  0.3829 -0.2571 -0.5073
 8853TIP3   OH247973   4.506   3.823  17.308  0.0971 -0.6020  0.4306
 8853TIP3    H147974   4.570   3.886  17.274 -0.1271  0.1672  1.3846
 8853TIP3    H247975   4.450   3.803  17.233  1.0760 -0.8206 -0.2667
 8854TIP3   OH247976   6.379   2.305   4.855  0.7280  0.4780  0.0437
 8854TIP3    H147977   6.443   2.281   4.922 -1.8967 -1.1689  2.1330
 8854TIP3    H247978   6.334   2.223   4.834 -2.4125  1.9318  0.5957
 8855TIP3   OH247979   0.973   4.362   3.326  0.1183 -0.2748  0.0072
 8855TIP3    H147980   0.879   4.348   3.312 -0.1652  0.5299  0.9989
 8855TIP3    H247981   1.013   4.338   3.242 -0.6859 -3.1542  0.3170
 8856TIP3   OH247982   6.023   0.134   1.379 -0.2028 -0.2374 -0.7065
 8856TIP3    H147983   6.036   0.141   1.474  0.0901 -1.5352 -0.6387
 8856TIP3    H247984   6.100   0.176   1.341  0.7547 -1.6145 -0.3438
 8857TIP3   OH247985   0.927   6.546   0.278  0.0786 -0.0630 -0.6002
 8857TIP3    H147986   0.831   6.546   0.277 -0.0088 -2.2711  1.1397
 8857TIP3    H247987   0.952   6.461   0.243  1.3646 -0.0606  0.2599
 8858TIP3   OH247988   5.924   0.378   3.620  0.5705 -0.6895 -0.5371
 8858TIP3    H147989   5.985   0.441   3.584 -1.6986  1.0213 -1.5898
 8858TIP3    H247990   5.904   0.411   3.707  0.2213 -0.5761 -0.6606
 8859TIP3   OH247991   5.294   2.781  12.817 -0.0595  0.4220  0.0304
 8859TIP3    H147992   5.352   2.847  12.778 -0.9355  0.2697 -1.6390
 8859TIP3    H247993   5.329   2.698  12.785  0.1195  0.1732  0.8632
 8860TIP3   OH247994   3.387   4.737  17.055  0.5856 -0.4682  0.2043
 8860TIP3    H147995   3.325   4.703  16.991  0.5499  0.0286 -0.0264
 8860TIP3    H247996   3.462   4.679  17.049  0.2725 -0.8883  0.2634
 8861TIP3   OH247997   3.213   4.878   0.335 -0.1235  0.2803  0.2641
 8861TIP3    H147998   3.128   4.882   0.290 -0.3690  0.6557  0.7546
 8861TIP3    H247999   3.272   4.927   0.279 -0.1262 -0.3294 -0.2919
 8862TIP3   OH248000   2.713   3.983  16.596 -0.1439  0.3511 -0.0408
 8862TIP3    H148001   2.700   3.988  16.691  1.8242 -0.3813  0.3041
 8862TIP3    H248002   2.756   3.899  16.582 -1.3848 -0.0669 -1.7446
 8863TIP3   OH248003   0.187   3.294   6.034  0.0568  0.1712 -0.5136
 8863TIP3    H148004   0.208   3.340   6.115  0.6366  0.2065 -0.6863
 8863TIP3    H248005   0.153   3.209   6.063  1.5378 -0.3557 -0.2574
 8864TIP3   OH248006   4.933   2.515  13.297  0.0278  0.3390 -0.2875
 8864TIP3    H148007   4.961   2.450  13.233 -0.9779  0.6550 -1.0813
 8864TIP3    H248008   4.945   2.599  13.252 -0.1672  0.6004  0.1418
 8865TIP3   OH248009   0.873   3.171   3.662 -0.4768  0.0396 -0.1198
 8865TIP3    H148010   0.797   3.228   3.670 -0.7622 -0.5532  2.4114
 8865TIP3    H248011   0.903   3.158   3.752  2.7720  0.4017 -1.0050
 8866TIP3   OH248012   4.872   4.619   5.240 -0.4600 -0.0617 -0.3649
 8866TIP3    H148013   4.870   4.546   5.179 -2.6870 -0.5391  0.1863
 8866TIP3    H248014   4.801   4.601   5.302  1.7067  0.3500  2.4577
 8867TIP3   OH248015   0.274   2.691   5.471 -0.2278  0.3736 -0.6338
 8867TIP3    H148016   0.359   2.712   5.434 -0.1248 -0.0314 -0.6295
 8867TIP3    H248017   0.224   2.772   5.464  0.2787  0.7213 -0.2987
 8868TIP3   OH248018   5.137   3.506  13.918 -0.0031 -0.0010 -0.0471
 8868TIP3    H148019   5.116   3.473  13.831 -0.1722  1.3379 -0.5370
 8868TIP3    H248020   5.054   3.505  13.966  0.0022 -0.3185 -0.0474
 8869TIP3   OH248021   3.574   0.827  16.730  0.4176 -0.5800  0.7501
 8869TIP3    H148022   3.589   0.846  16.823 -0.1231  0.8499  0.5732
 8869TIP3    H248023   3.550   0.735  16.728 -0.0184 -0.5267  2.1021
 8870TIP3   OH248024   5.530   6.255  16.867  0.3729 -0.1930  0.3352
 8870TIP3    H148025   5.505   6.331  16.919 -0.7739 -1.3721  1.5770
 8870TIP3    H248026   5.589   6.205  16.923  0.2674 -0.7577 -0.0482
 8871TIP3   OH248027   2.130   5.354   3.082 -0.0934 -0.1428  0.1204
 8871TIP3    H148028   2.104   5.280   3.136  3.3116 -1.1628  0.5820
 8871TIP3    H248029   2.087   5.338   2.998  0.5348 -2.7129  0.2035
 8872TIP3   OH248030   2.543   1.107   0.078 -0.5605  0.1101  0.2326
 8872TIP3    H148031   2.496   1.030   0.046  1.6625 -1.4878  0.5766
 8872TIP3    H248032   2.626   1.073   0.110  0.4927  2.6697  0.4714
 8873TIP3   OH248033   0.468   4.846   3.906  0.2049 -0.1451  0.1483
 8873TIP3    H148034   0.473   4.783   3.978  3.4076 -0.0672  0.1476
 8873TIP3    H248035   0.559   4.854   3.874 -0.7847  1.1413 -2.7626
 8874TIP3   OH248036   5.648   1.383   0.246  0.2515 -0.0077 -0.0718
 8874TIP3    H148037   5.705   1.373   0.322  0.4576  0.7546 -0.1144
 8874TIP3    H248038   5.674   1.313   0.187  0.0759 -0.6189  0.5664
 8875TIP3   OH248039   0.883   3.878  14.093 -0.1007 -0.5738  0.3160
 8875TIP3    H148040   0.869   3.840  14.180 -0.4756 -0.0200  0.4972
 8875TIP3    H248041   0.795   3.893  14.059  0.0310  0.5859  0.4459
 8876TIP3   OH248042   6.320   1.391  15.779 -0.1290  0.7025 -0.0964
 8876TIP3    H148043   6.353   1.313  15.735  1.0695  1.1398 -0.0112
 8876TIP3    H248044   6.227   1.374  15.792  0.3178 -1.2205  0.9981
 8877TIP3   OH248045   4.296   4.593   5.576 -0.0100  0.2034  0.2547
 8877TIP3    H148046   4.230   4.646   5.531  0.6932 -0.4047 -1.6158
 8877TIP3    H248047   4.271   4.502   5.555 -0.0717 -0.1463  1.7480
 8878TIP3   OH248048   1.393   4.382  15.593 -0.5516 -0.3272 -0.0492
 8878TIP3    H148049   1.410   4.332  15.513  1.6506  1.9235 -1.1428
 8878TIP3    H248050   1.420   4.324  15.664 -2.2079 -2.2475 -0.8874
 8879TIP3   OH248051   0.369   6.701   0.685  0.1650 -0.2549 -0.4263
 8879TIP3    H148052   0.381   6.638   0.756  0.5566 -0.4964 -0.7068
 8879TIP3    H248053   0.420   6.778   0.712  0.9279 -0.6289 -0.7999
 8880TIP3   OH248054   1.305   5.685  11.017  0.3401 -0.4561 -0.3172
 8880TIP3    H148055   1.394   5.715  11.036  0.0386  0.2438 -0.0020
 8880TIP3    H248056   1.256   5.764  10.998 -0.0285 -0.9125 -1.3116
 8881TIP3   OH248057   1.693   3.451  12.202 -0.3127  0.2890 -0.0848
 8881TIP3    H148058   1.730   3.388  12.141  1.8349 -0.3808  1.7694
 8881TIP3    H248059   1.748   3.529  12.192  0.0938  0.1564  0.9775
 8882TIP3   OH248060   5.132   1.970   4.066  0.2489  0.0488 -0.1262
 8882TIP3    H148061   5.108   1.880   4.044 -2.2447  0.8185 -0.9148
 8882TIP3    H248062   5.118   1.976   4.160  3.1673 -1.0663  0.4906
 8883TIP3   OH248063   2.461   0.155   0.986  0.3434  0.1406  0.0566
 8883TIP3    H148064   2.552   0.184   0.984  0.1547  0.8198  0.9161
 8883TIP3    H248065   2.436   0.149   0.894  0.8780  1.1739 -0.1722
 8884TIP3   OH248066   1.583   1.744   3.142 -0.0090  0.1054  0.0116
 8884TIP3    H148067   1.586   1.718   3.050 -2.1655 -0.8163  0.1269
 8884TIP3    H248068   1.636   1.824   3.147 -0.2779  0.4682 -2.1212
 8885TIP3   OH248069   6.185   2.595  15.400  0.3681 -0.4549  0.2754
 8885TIP3    H148070   6.250   2.665  15.408 -1.9123  1.6548  1.6382
 8885TIP3    H248071   6.163   2.593  15.306  0.7584  0.3613  0.1642
 8886TIP3   OH248072   5.412   1.443  13.663  0.2505  0.3617  0.2180
 8886TIP3    H148073   5.366   1.484  13.736 -0.5921 -0.4886  0.1820
 8886TIP3    H248074   5.461   1.371  13.703  0.5673  0.4986  0.0799
 8887TIP3   OH248075   5.918   5.197  16.572 -0.2989  0.0696  0.2056
 8887TIP3    H148076   5.942   5.164  16.659  1.9858 -1.3058 -0.8505
 8887TIP3    H248077   5.894   5.118  16.522 -0.3242  0.6801 -0.7692
 8888TIP3   OH248078   5.599   4.575   4.077 -0.1950  0.1327  0.0002
 8888TIP3    H148079   5.593   4.496   4.131 -0.5631 -0.3880 -0.7890
 8888TIP3    H248080   5.509   4.599   4.057 -0.0902  0.7723  0.2449
 8889TIP3   OH248081   6.010   4.226  13.996  0.2065  0.4855  0.1824
 8889TIP3    H148082   6.086   4.194  13.948  0.4902 -0.0268  0.9593
 8889TIP3    H248083   5.955   4.149  14.009  0.5035  0.4531  1.3417
 8890TIP3   OH248084   0.595   1.934  11.936  0.3246 -0.3579 -0.5729
 8890TIP3    H148085   0.674   1.973  11.898 -0.3346 -1.3420 -3.1488
 8890TIP3    H248086   0.525   1.959  11.877 -1.4243  0.6190  1.7488
 8891TIP3   OH248087   5.794   5.206   3.177 -0.3320  0.6566 -0.2480
 8891TIP3    H148088   5.797   5.297   3.206  2.6683  0.0549  1.7393
 8891TIP3    H248089   5.742   5.161   3.244  0.1570  0.5203  0.0392
 8892TIP3   OH248090   4.755   5.936  12.727 -0.4195 -0.0398  0.4143
 8892TIP3    H148091   4.772   5.914  12.635  1.9399  0.7339  0.5859
 8892TIP3    H248092   4.667   5.903  12.744 -1.0594  0.0970 -2.2124
 8893TIP3   OH248093   0.720   6.726  14.033  0.2822  0.3356  0.3611
 8893TIP3    H148094   0.658   6.717  14.104  1.6489 -1.8618  1.4013
 8893TIP3    H248095   0.800   6.761  14.074  0.2039  1.8624 -0.6936
 8894TIP3   OH248096   1.052   4.889  13.910  0.2826  0.1040  0.3711
 8894TIP3    H148097   0.990   4.915  13.978  0.4902  0.5468  0.3935
 8894TIP3    H248098   1.051   4.794  13.911 -0.0836  0.1111  0.6586
 8895TIP3   OH248099   4.478   5.555   2.066 -0.8065 -0.4279 -0.0671
 8895TIP3    H148100   4.449   5.639   2.102  0.1904  0.0049 -0.2366
 8895TIP3    H248101   4.571   5.568   2.048 -1.0285 -0.9571 -1.8146
 8896TIP3   OH248102   5.691   5.431  12.333  0.3296 -0.2747 -0.3446
 8896TIP3    H148103   5.776   5.389  12.329  0.3448 -0.1301 -2.0908
 8896TIP3    H248104   5.679   5.472  12.247 -1.6498 -0.6011 -0.2836
 8897TIP3   OH248105   0.531   5.430  14.427 -0.0260 -0.1250 -0.0513
 8897TIP3    H148106   0.613   5.410  14.473  0.6049  3.1061  0.4615
 8897TIP3    H248107   0.469   5.453  14.496 -0.1131  1.3645 -0.5937
 8898TIP3   OH248108   6.225   6.710   1.883 -0.2100 -0.1615 -0.0596
 8898TIP3    H148109   6.202   6.691   1.974 -2.1735  0.5680 -0.3615
 8898TIP3    H248110   6.248   6.803   1.883  1.5953 -0.5782 -0.0094
 8899TIP3   OH248111   2.824   5.483   3.161 -0.3553  0.4048  0.0436
 8899TIP3    H148112   2.770   5.552   3.123  0.2462  0.6691 -0.3498
 8899TIP3    H248113   2.910   5.494   3.120  1.3260  2.6555  3.6657
 8900TIP3   OH248114   0.395   6.252   5.947 -0.2215  0.1693  0.1172
 8900TIP3    H148115   0.356   6.320   6.003  0.0528 -0.6630  1.3684
 8900TIP3    H248116   0.423   6.184   6.009  0.8689 -0.4050 -0.9781
 8901TIP3   OH248117   1.309   2.577  11.587 -0.0370  0.5454  0.2451
 8901TIP3    H148118   1.266   2.630  11.653 -2.1407  0.2823 -0.8185
 8901TIP3    H248119   1.249   2.578  11.512  0.8238 -1.5824 -0.5761
 8902TIP3   OH248120   2.266   5.569   5.490 -0.2038 -0.3425 -0.1304
 8902TIP3    H148121   2.264   5.474   5.479 -0.8678 -0.3140 -0.2518
 8902TIP3    H248122   2.351   5.585   5.532 -0.0601 -0.9793 -0.1537
 8903TIP3   OH248123   1.510   0.312  13.116  0.4451  0.1351  0.2837
 8903TIP3    H148124   1.570   0.266  13.057  0.6404  0.8809 -0.1104
 8903TIP3    H248125   1.424   0.297  13.078  0.4338 -0.4588  0.5307
 8904TIP3   OH248126   4.024   3.962   2.054 -0.1720 -0.5103  0.4466
 8904TIP3    H148127   4.073   3.951   2.136  0.2293  0.1440  0.3033
 8904TIP3    H248128   4.081   4.017   2.000 -0.5782 -0.6726 -0.1508
 8905TIP3   OH248129   2.550   3.442   2.016 -0.1536 -0.1910  0.1625
 8905TIP3    H148130   2.623   3.479   1.966  1.3388 -1.1195  1.5654
 8905TIP3    H248131   2.473   3.459   1.961  1.2588 -0.4219 -2.0515
 8906TIP3   OH248132   1.626   3.375  15.399  0.1496  0.6191 -0.2009
 8906TIP3    H148133   1.557   3.435  15.429  0.8604  0.4260  1.9853
 8906TIP3    H248134   1.683   3.364  15.476  2.2673  0.2678 -1.7405
 8907TIP3   OH248135   0.201   4.460   3.742  0.0386  0.7807 -0.4729
 8907TIP3    H148136   0.107   4.471   3.727  0.0350 -0.3849 -1.4599
 8907TIP3    H248137   0.214   4.365   3.747  1.1600  0.9248 -0.3046
 8908TIP3   OH248138   4.693   2.122  14.927  0.0347  0.0082  0.0329
 8908TIP3    H148139   4.684   2.103  15.020 -0.1277  2.6910  0.6514
 8908TIP3    H248140   4.736   2.045  14.890  0.9931 -0.7230  2.5089
 8909TIP3   OH248141   0.465   1.219  12.421  0.4771 -0.1045  0.7108
 8909TIP3    H148142   0.558   1.239  12.409  0.0692  1.0832 -0.6499
 8909TIP3    H248143   0.441   1.266  12.501  0.8992  0.0813  0.7324
 8910TIP3   OH248144   2.159   6.560   3.561  0.1777 -0.1779 -0.0839
 8910TIP3    H148145   2.176   6.652   3.541 -0.0309 -0.3120 -0.9085
 8910TIP3    H248146   2.236   6.514   3.527  0.7065 -0.2276  1.1338
 8911TIP3   OH248147   2.327   0.321  15.832 -0.4964  0.3507  0.5029
 8911TIP3    H148148   2.352   0.311  15.924  1.8138 -1.6630 -0.2136
 8911TIP3    H248149   2.375   0.399  15.802  0.5494 -0.2699  0.5106
 8912TIP3   OH248150   0.025   2.336   4.770 -0.2366  0.1331  0.3341
 8912TIP3    H148151  -0.030   2.393   4.824  0.5506  1.0238  0.1988
 8912TIP3    H248152   0.110   2.334   4.814  0.0482 -0.1243 -0.2145
 8913TIP3   OH248153   0.376   5.052   3.261 -0.4109  0.2001  0.1359
 8913TIP3    H148154   0.291   5.010   3.252 -0.8791  0.6934  1.9426
 8913TIP3    H248155   0.365   5.114   3.333  0.9024  1.7746 -0.9434
 8914TIP3   OH248156   3.081   4.045  12.228  0.0536  0.1987  0.2582
 8914TIP3    H148157   3.076   4.126  12.280  4.8778  0.3193  0.9378
 8914TIP3    H248158   3.090   4.075  12.138 -2.6967  0.1335 -0.1243
 8915TIP3   OH248159   1.343   5.371  16.084  0.2013  0.1177  0.0628
 8915TIP3    H148160   1.373   5.457  16.114  2.6952 -0.0898 -1.5452
 8915TIP3    H248161   1.259   5.358  16.128  0.5983  2.5787  1.7335
 8916TIP3   OH248162   4.670   0.765   4.184 -0.2346 -0.1351 -0.2003
 8916TIP3    H148163   4.686   0.800   4.272 -0.4161  0.0021 -0.2204
 8916TIP3    H248164   4.711   0.678   4.185 -1.6896 -0.8527  0.5817
 8917TIP3   OH248165   1.568   2.579  12.237  0.2142 -0.5848  0.2246
 8917TIP3    H148166   1.615   2.522  12.297 -1.0524 -0.1511  1.6943
 8917TIP3    H248167   1.476   2.571  12.263 -0.2464  0.3876 -1.0102
 8918TIP3   OH248168   0.925   1.737   1.004  0.3608  0.1312 -0.2146
 8918TIP3    H148169   0.988   1.748   0.933  0.4064  1.5581  0.0208
 8918TIP3    H248170   0.978   1.741   1.084  0.1668 -0.3428 -0.0572
 8919TIP3   OH248171   6.130   2.385   2.036 -0.2284 -0.1057 -0.5036
 8919TIP3    H148172   6.197   2.340   1.985  1.0436 -1.5357  2.1918
 8919TIP3    H248173   6.162   2.474   2.045  0.2179 -0.2086 -1.0405
 8920TIP3   OH248174   3.271   2.094   5.545 -0.1592  0.4020 -0.0085
 8920TIP3    H148175   3.332   2.153   5.501 -0.5643  0.9341  0.1266
 8920TIP3    H248176   3.192   2.097   5.491 -0.2034  0.0284  0.0321
 8921TIP3   OH248177   0.736   4.979  11.715  0.1395 -0.8984  0.7538
 8921TIP3    H148178   0.791   5.040  11.665  0.1224 -0.5921  1.1044
 8921TIP3    H248179   0.732   4.900  11.661  0.3679 -0.6777  0.4114
 8922TIP3   OH248180   1.378   2.657  13.162 -0.6949  0.8303 -0.2400
 8922TIP3    H148181   1.450   2.688  13.217  0.6189  0.6953 -1.7886
 8922TIP3    H248182   1.401   2.566  13.142 -1.7698  0.5037 -0.0448
 8923TIP3   OH248183   4.257   0.065  14.624 -0.0528  0.1072 -0.2002
 8923TIP3    H148184   4.192   0.031  14.687 -0.7909 -0.4889 -1.2525
 8923TIP3    H248185   4.241   0.160  14.623  0.9580  0.3386  1.5814
 8924TIP3   OH248186   5.608   5.039   1.545  0.1325 -0.0404  0.0852
 8924TIP3    H148187   5.701   5.020   1.561 -0.4338 -2.1220  1.1758
 8924TIP3    H248188   5.601   5.134   1.555  1.8806 -0.0061  1.4800
 8925TIP3   OH248189   5.664   1.978  14.832  0.4095 -0.2494  0.3699
 8925TIP3    H148190   5.605   1.905  14.810  0.4447 -0.1873  0.0628
 8925TIP3    H248191   5.630   2.013  14.914 -0.8814  0.7403 -0.5553
 8926TIP3   OH248192   3.436   5.418  13.731 -0.0667  0.1502  0.4899
 8926TIP3    H148193   3.417   5.404  13.638 -1.4489 -1.1065  0.9073
 8926TIP3    H248194   3.349   5.424  13.772  0.4973 -0.7170  1.8779
 8927TIP3   OH248195   0.677   5.637   0.135  0.4449  0.6700  0.2131
 8927TIP3    H148196   0.613   5.695   0.094  1.0331  0.4294 -1.1057
 8927TIP3    H248197   0.655   5.639   0.228 -0.4939  1.8055 -0.0042
 8928TIP3   OH248198   4.521   6.433  14.024  0.3773  0.1914  0.2275
 8928TIP3    H148199   4.559   6.489  14.091  1.0088 -0.1917  0.2032
 8928TIP3    H248200   4.466   6.371  14.072  1.5497 -0.6772  0.5178
 8929TIP3   OH248201   6.493   5.262   2.645 -0.0467  0.1784  0.9489
 8929TIP3    H148202   6.536   5.347   2.654 -0.6839  0.6312 -0.0789
 8929TIP3    H248203   6.429   5.259   2.717 -0.3529  0.7841  0.7093
 8930TIP3   OH248204   4.523   2.434   3.283  0.1314  0.0423 -0.3508
 8930TIP3    H148205   4.447   2.423   3.340  2.3695 -0.2934  2.8701
 8930TIP3    H248206   4.531   2.529   3.271 -0.8048  0.0737 -0.8279
 8931TIP3   OH248207   4.062   3.384  12.357 -0.6837  0.0623 -0.8012
 8931TIP3    H148208   4.077   3.452  12.423 -2.2440 -0.1286 -0.1938
 8931TIP3    H248209   4.029   3.432  12.281  0.0558  0.1715 -1.0562
 8932TIP3   OH248210   2.374   6.414  12.340  0.1256  0.4933  0.2780
 8932TIP3    H148211   2.442   6.393  12.404 -1.3284 -3.2002  0.8967
 8932TIP3    H248212   2.395   6.360  12.264 -1.2559  0.4628 -0.1152
 8933TIP3   OH248213   3.627   2.445   3.047 -0.0674  0.6969  0.0904
 8933TIP3    H148214   3.662   2.357   3.038  0.9836  1.1544 -0.5073
 8933TIP3    H248215   3.665   2.494   2.973 -0.8581  1.5766  0.2392
 8934TIP3   OH248216   4.943   3.806  12.621  0.7038 -0.6464  0.2372
 8934TIP3    H148217   4.958   3.827  12.528 -1.8817 -0.4018 -0.1912
 8934TIP3    H248218   5.028   3.776  12.652  1.4700 -1.5915 -2.4405
 8935TIP3   OH248219   0.794   5.065   1.488 -0.3145  0.0063  0.1195
 8935TIP3    H148220   0.761   5.147   1.526  0.0934  0.9449 -1.4483
 8935TIP3    H248221   0.888   5.081   1.476 -0.0241 -1.1210  0.8201
 8936TIP3   OH248222   4.818   0.433   0.535  0.1748  0.4794 -0.1795
 8936TIP3    H148223   4.872   0.367   0.492 -0.6798 -1.3008  1.3516
 8936TIP3    H248224   4.869   0.459   0.612 -0.6487 -0.4663  0.7192
 8937TIP3   OH248225   3.627   3.606   4.237 -0.5854 -0.2775 -0.3482
 8937TIP3    H148226   3.711   3.581   4.275 -0.2271 -0.1470 -1.0503
 8937TIP3    H248227   3.563   3.549   4.280 -0.2594  0.2178  0.8347
 8938TIP3   OH248228   1.464   5.506   2.498 -0.0103  0.1758  0.9420
 8938TIP3    H148229   1.417   5.423   2.494  0.9560 -0.3735  0.3979
 8938TIP3    H248230   1.396   5.572   2.509 -0.6854 -0.8009  3.2464
 8939TIP3   OH248231   2.524   3.534  11.196 -0.3514  0.0989  0.4256
 8939TIP3    H148232   2.495   3.577  11.115 -1.2732 -1.6342 -0.2211
 8939TIP3    H248233   2.451   3.546  11.257 -0.5904 -0.4742  0.2594
 8940TIP3   OH248234   0.835   0.979  17.194  0.5011 -0.6065  0.2843
 8940TIP3    H148235   0.798   1.005  17.110  0.8757 -2.3623 -0.4817
 8940TIP3    H248236   0.769   0.922  17.233 -0.4546  1.5615  2.0748
 8941TIP3   OH248237   0.348   5.285  15.673  0.0058 -0.1051  0.1135
 8941TIP3    H148238   0.279   5.273  15.738 -2.3037 -1.8727 -2.4179
 8941TIP3    H248239   0.313   5.351  15.613  0.7523 -0.5936 -0.8915
 8942TIP3   OH248240   2.649   4.250   0.674 -0.1182 -0.5819 -0.0286
 8942TIP3    H148241   2.640   4.313   0.602 -0.4059 -0.4222  0.1477
 8942TIP3    H248242   2.723   4.283   0.725  0.1786 -0.7729 -0.3266
 8943TIP3   OH248243   0.646   2.440  11.953 -0.0843 -0.5805  0.1316
 8943TIP3    H148244   0.620   2.530  11.937 -2.2652 -1.2244 -0.3781
 8943TIP3    H248245   0.677   2.408  11.868  0.8863 -0.2705  0.3611
 8944TIP3   OH248246   2.562   4.494   0.070 -0.5340 -0.0282 -0.3065
 8944TIP3    H148247   2.636   4.551   0.050 -0.1033  0.4490  2.2965
 8944TIP3    H248248   2.581   4.413   0.022 -0.2496  1.3398 -2.6184
 8945TIP3   OH248249   3.708   3.960   2.071 -0.4128  0.2838 -0.6370
 8945TIP3    H148250   3.701   3.937   2.164  1.2649  1.9529 -0.0319
 8945TIP3    H248251   3.799   3.942   2.049 -0.4115  1.3076 -1.5302
 8946TIP3   OH248252   2.010   5.666  14.894  0.0048 -0.1907 -0.4023
 8946TIP3    H148253   2.008   5.762  14.890 -0.7943 -0.2001 -0.3967
 8946TIP3    H248254   2.023   5.646  14.986  1.0666 -0.0933 -0.5112
 8947TIP3   OH248255   3.488   2.379   1.721  0.4342  0.1308  0.1812
 8947TIP3    H148256   3.488   2.322   1.798  1.4578  1.3346  1.1229
 8947TIP3    H248257   3.555   2.342   1.663  1.8372  0.9080  1.2440
 8948TIP3   OH248258   3.020   6.392   1.666  0.2863  0.5351  0.2189
 8948TIP3    H148259   3.024   6.341   1.747  0.7674  0.5828  0.2274
 8948TIP3    H248260   3.044   6.329   1.597  1.3146  0.8509  0.2776
 8949TIP3   OH248261   1.658   2.499  17.383  0.3203  0.5646 -0.6599
 8949TIP3    H148262   1.641   2.559  17.311  1.2143  1.5533 -0.0785
 8949TIP3    H248263   1.748   2.470  17.369  0.6262  1.0507  0.2576
 8950TIP3   OH248264   3.305   6.505   5.567 -0.4688  0.6213  0.0408
 8950TIP3    H148265   3.332   6.573   5.629 -1.9789 -0.6093  2.1891
 8950TIP3    H248266   3.270   6.435   5.622 -0.6878 -1.1267 -2.1793
 8951TIP3   OH248267   3.801   5.973   4.299  0.1337 -0.7826  0.1264
 8951TIP3    H148268   3.835   6.053   4.260  0.4246 -0.0471  1.7992
 8951TIP3    H248269   3.720   5.999   4.343 -0.7326 -1.7897 -0.8232
 8952TIP3   OH248270   2.688   5.004  14.080 -0.0949  0.1565  0.4103
 8952TIP3    H148271   2.747   4.941  14.039 -0.4022  1.0448 -1.5082
 8952TIP3    H248272   2.736   5.087  14.077 -0.7259  0.5345  0.4517
 8953TIP3   OH248273   3.565   5.146   0.313  0.1098  0.0174  0.2965
 8953TIP3    H148274   3.621   5.119   0.385 -0.8502  0.4342  1.2332
 8953TIP3    H248275   3.578   5.240   0.305 -2.2198  0.5946  2.1860
 8954TIP3   OH248276   3.215   5.586   4.457 -0.1178  0.3162  0.5119
 8954TIP3    H148277   3.206   5.518   4.524 -1.1450  0.7432  0.8334
 8954TIP3    H248278   3.298   5.629   4.478  0.5034 -0.7591  0.3612
 8955TIP3   OH248279   5.921   0.157  14.698 -0.1353  0.2196  0.3874
 8955TIP3    H148280   5.919   0.232  14.638 -0.5060 -0.1537 -0.0750
 8955TIP3    H248281   5.929   0.196  14.785  1.8898  0.7308  0.0233
 8956TIP3   OH248282   0.334   3.683   0.261  0.4912  0.1841  0.4783
 8956TIP3    H148283   0.360   3.657   0.172  1.6923  1.4869  0.3990
 8956TIP3    H248284   0.402   3.744   0.288 -1.7110  2.6198  0.9118
 8957TIP3   OH248285   5.742   5.977  13.121 -0.2851 -0.1728 -0.5516
 8957TIP3    H148286   5.705   5.947  13.038 -2.3419  0.0542  0.2376
 8957TIP3    H248287   5.698   5.924  13.187  1.9062 -0.9146  0.3907
 8958TIP3   OH248288   4.218   2.102  16.618 -0.2690  0.1159  0.6507
 8958TIP3    H148289   4.203   2.155  16.539 -1.3732 -0.9886  0.0724
 8958TIP3    H248290   4.176   2.018  16.598  0.6359 -0.6628  1.8897
 8959TIP3   OH248291   4.452   5.299   5.731  0.0845 -0.5329  0.4230
 8959TIP3    H148292   4.497   5.383   5.731  0.1976 -0.5943 -0.0118
 8959TIP3    H248293   4.438   5.280   5.824  0.4941 -0.2691  0.5412
 8960TIP3   OH248294   0.737   1.154  13.456  0.3694 -0.1440  0.1200
 8960TIP3    H148295   0.747   1.081  13.517  0.6501  0.7821  1.2054
 8960TIP3    H248296   0.723   1.112  13.371  2.4448 -1.4798  0.3685
 8961TIP3   OH248297   0.703   4.055   5.166 -0.3447  0.3853  0.0564
 8961TIP3    H148298   0.772   3.997   5.134 -0.6206 -0.2587  0.6046
 8961TIP3    H248299   0.624   4.001   5.167 -0.6740  0.8603  0.2736
 8962TIP3   OH248300   1.000   1.744  14.509 -0.4905 -0.0626 -0.3311
 8962TIP3    H148301   1.081   1.695  14.495  0.4999  1.6159 -0.7583
 8962TIP3    H248302   1.000   1.765  14.603 -1.3519 -1.5209  0.0412
 8963TIP3   OH248303   3.790   5.220  14.024 -0.5349  0.2207  0.0600
 8963TIP3    H148304   3.787   5.133  13.985 -1.5913  0.3767 -0.2509
 8963TIP3    H248305   3.703   5.256  14.007 -0.4218  0.9710  1.0184
 8964TIP3   OH248306   3.430   0.550  16.381  0.4260 -0.4907 -0.1995
 8964TIP3    H148307   3.432   0.485  16.452 -0.7463  0.8969  1.1786
 8964TIP3    H248308   3.520   0.582  16.375 -0.0112  2.0805  3.4107
 8965TIP3   OH248309   0.756   2.180  16.155 -0.4326 -0.5663 -0.7106
 8965TIP3    H148310   0.830   2.151  16.102 -1.3728 -1.0381 -1.7949
 8965TIP3    H248311   0.796   2.216  16.234  1.0985  1.5464 -2.3260
 8966TIP3   OH248312   4.448   4.897  11.670 -0.4681 -0.6303  0.0486
 8966TIP3    H148313   4.386   4.840  11.715  0.7716 -3.2315 -1.3137
 8966TIP3    H248314   4.428   4.886  11.577  0.7132  0.0710 -0.3088
 8967TIP3   OH248315   2.084   1.236  12.117 -0.5018 -0.7435 -0.4350
 8967TIP3    H148316   2.124   1.271  12.197  1.5843 -0.1063 -1.6992
 8967TIP3    H248317   2.049   1.151  12.144  2.1012 -1.5582  0.7271
 8968TIP3   OH248318   2.122   1.716  16.912  0.5059  0.1834 -0.0449
 8968TIP3    H148319   2.082   1.698  16.998  0.2456 -2.2532 -0.6075
 8968TIP3    H248320   2.216   1.711  16.928  0.4498 -1.8246 -0.1491
 8969TIP3   OH248321   0.308   2.327   0.356  0.2945  0.0801 -0.5246
 8969TIP3    H148322   0.282   2.285   0.274  0.0867 -0.5981 -0.1125
 8969TIP3    H248323   0.291   2.262   0.424 -0.5956  1.0216  0.1963
 8970TIP3   OH248324   4.616   2.939  12.098 -0.8051  0.4485  0.1410
 8970TIP3    H148325   4.549   2.876  12.074 -0.7423 -0.1007  1.3404
 8970TIP3    H248326   4.579   3.024  12.074 -1.7258  0.1135  0.3213
 8971TIP3   OH248327   5.016   3.619   6.403 -0.0882  0.5084  0.1591
 8971TIP3    H148328   5.066   3.699   6.385 -0.6389  0.8609  0.1770
 8971TIP3    H248329   4.925   3.648   6.405 -0.3656 -0.2511 -0.6384
 8972TIP3   OH248330   2.074   1.829  12.331 -0.2965 -0.5699  0.1045
 8972TIP3    H148331   2.016   1.875  12.270  0.2699  0.2380  0.1672
 8972TIP3    H248332   2.035   1.742  12.340 -1.3710 -0.1167 -0.0371
 8973TIP3   OH248333   2.884   3.612   5.239  0.6995  0.1246  0.2288
 8973TIP3    H148334   2.877   3.586   5.331 -1.6132  1.2102  0.4105
 8973TIP3    H248335   2.863   3.532   5.190 -0.6332  0.1716  0.6939
 8974TIP3   OH248336   0.807   0.969   1.217 -0.2670 -0.5381  0.2524
 8974TIP3    H148337   0.820   0.877   1.240 -0.4658  0.2436  4.0791
 8974TIP3    H248338   0.721   0.991   1.253 -0.4537  1.0559 -1.0522
 8975TIP3   OH248339   2.017   4.394   0.639  0.1138  0.3884 -0.2787
 8975TIP3    H148340   2.074   4.369   0.712  0.5802  1.2970 -0.3104
 8975TIP3    H248341   1.930   4.402   0.677  0.1720 -0.1007 -0.0330
 8976TIP3   OH248342   6.467   2.085   1.187 -0.0180  0.9100  0.0005
 8976TIP3    H148343   6.497   2.028   1.117  0.0401 -1.7052  2.0208
 8976TIP3    H248344   6.374   2.098   1.170 -0.3307 -0.8995  0.1462
 8977TIP3   OH248345   2.629   1.724  14.121  1.1120  1.3669 -0.9064
 8977TIP3    H148346   2.590   1.640  14.145 -0.5367  2.6970  1.4565
 8977TIP3    H248347   2.659   1.711  14.031 -2.3370 -0.6724 -1.9520
 8978TIP3   OH248348   6.695   4.783  14.348  0.0514  0.7958  0.0241
 8978TIP3    H148349   6.724   4.727  14.276 -3.7458  0.4873 -1.5192
 8978TIP3    H248350   6.706   4.872  14.316 -0.5523  0.6887 -0.4988
 8979TIP3   OH248351   1.018   1.645  16.343 -0.3900 -0.2555  0.2314
 8979TIP3    H148352   0.961   1.722  16.342 -1.6020 -1.1038  1.2633
 8979TIP3    H248353   1.103   1.679  16.314 -0.8963  1.4564  0.5957
 8980TIP3   OH248354   1.427   2.962   3.875 -0.5557 -0.1144  0.5594
 8980TIP3    H148355   1.363   2.914   3.823 -1.9348 -0.3642  2.4083
 8980TIP3    H248356   1.426   3.050   3.838 -0.7648 -0.5152 -0.4482
 8981TIP3   OH248357   5.694   0.096   3.846  0.3402  0.3943 -0.1694
 8981TIP3    H148358   5.718   0.069   3.757 -1.4617  0.2196 -0.6404
 8981TIP3    H248359   5.705   0.017   3.899 -0.4595 -0.0326 -0.6302
 8982TIP3   OH248360   3.099   4.915   6.031 -0.1178 -0.6897 -0.3760
 8982TIP3    H148361   3.091   4.838   5.976  2.1754 -2.5158  1.6147
 8982TIP3    H248362   3.031   4.904   6.097 -1.6944  0.5819 -1.7070
 8983TIP3   OH248363   0.204   3.492   1.132 -0.3933 -0.0535 -0.6630
 8983TIP3    H148364   0.149   3.469   1.207 -0.9582 -0.2233 -1.1245
 8983TIP3    H248365   0.248   3.410   1.109  1.7211  0.5062  1.0153
 8984TIP3   OH248366   2.358   0.068   5.203 -0.0810 -0.3842  0.2695
 8984TIP3    H148367   2.392  -0.020   5.215  0.9331 -0.2543 -1.4120
 8984TIP3    H248368   2.310   0.065   5.121  1.0565  0.9225 -0.4821
 8985TIP3   OH248369   2.055   1.293   4.196 -0.9360 -0.2423 -0.4825
 8985TIP3    H148370   2.048   1.385   4.220 -1.1526 -0.2583 -0.4878
 8985TIP3    H248371   2.148   1.282   4.174  0.2018 -1.0187  3.6739
 8986TIP3   OH248372   2.893   5.456  15.675 -0.2564 -0.2664  0.1349
 8986TIP3    H148373   2.947   5.488  15.747 -1.5322  2.1755  0.1045
 8986TIP3    H248374   2.925   5.368  15.659  2.5674  0.4391  1.2369
 8987TIP3   OH248375   4.927   6.357  16.504  0.3983  0.1455  0.5173
 8987TIP3    H148376   4.959   6.409  16.430  0.6365  0.5587  0.9090
 8987TIP3    H248377   4.832   6.352  16.490  0.5129 -0.3428 -0.1760
 8988TIP3   OH248378   1.926   2.440  16.447  0.5376  0.4504  0.1381
 8988TIP3    H148379   1.843   2.472  16.482  0.5762  0.1757  0.4751
 8988TIP3    H248380   1.989   2.508  16.470  0.6890 -0.0373  1.1723
 8989TIP3   OH248381   6.405   4.506   0.592  0.2923  0.8339  0.4832
 8989TIP3    H148382   6.364   4.590   0.613  0.3630  1.2302 -0.8689
 8989TIP3    H248383   6.443   4.519   0.505  1.6606 -0.1173  0.9137
 8990TIP3   OH248384   1.478   6.102   3.679 -0.3462 -0.0274 -0.1216
 8990TIP3    H148385   1.452   6.169   3.742  0.1155  0.5008 -0.4874
 8990TIP3    H248386   1.438   6.129   3.596  0.0866 -0.0440 -0.3377
 8991TIP3   OH248387   3.231   6.395   0.466  0.3571  0.2689 -0.0187
 8991TIP3    H148388   3.322   6.386   0.437  0.3994  0.5950  0.0038
 8991TIP3    H248389   3.230   6.476   0.518  0.1013  0.1447  0.1721
 8992TIP3   OH248390   5.920   5.097  16.833 -0.3789 -0.3079  0.0126
 8992TIP3    H148391   5.942   5.063  16.920  0.3628 -3.3455 -1.2541
 8992TIP3    H248392   5.831   5.132  16.844  0.3692  1.0722  2.3681
 8993TIP3   OH248393   2.096   1.919   3.150 -0.0278  0.4230  0.3489
 8993TIP3    H148394   2.067   1.972   3.224  0.0200  1.4429 -0.3488
 8993TIP3    H248395   2.117   1.834   3.189  1.0254  1.2380  1.6992
 8994TIP3   OH248396   5.261   2.302  15.686  0.2798  0.3027 -0.5540
 8994TIP3    H148397   5.262   2.248  15.766  1.3978 -0.5108 -1.0867
 8994TIP3    H248398   5.171   2.296  15.655 -0.0754  0.3038  0.4341
 8995TIP3   OH248399   4.272   1.610  15.024  0.3734 -0.3865  0.3022
 8995TIP3    H148400   4.286   1.518  15.001  0.9785 -0.3311  0.4314
 8995TIP3    H248401   4.302   1.658  14.947 -0.9686 -0.3204 -0.2202
 8996TIP3   OH248402   4.256   1.472   5.025 -0.2734  0.1022  0.2982
 8996TIP3    H148403   4.299   1.391   4.997  0.3035  1.1306 -2.0750
 8996TIP3    H248404   4.181   1.481   4.966 -0.9156  0.7909  1.1961
 8997TIP3   OH248405   4.048   0.973   6.260 -0.2016  0.0317 -0.2529
 8997TIP3    H148406   4.019   0.979   6.351 -0.6507 -2.3217 -0.1665
 8997TIP3    H248407   4.142   0.986   6.263 -0.3711  1.1633  0.3743
 8998TIP3   OH248408   3.825   0.458   2.334 -0.8190  0.5747 -0.6900
 8998TIP3    H148409   3.784   0.544   2.340 -1.9100  0.0140  0.2590
 8998TIP3    H248410   3.755   0.396   2.357  0.0844 -0.5291 -0.8218
 8999TIP3   OH248411   1.759   3.355   2.240  0.4285 -0.3677 -0.2898
 8999TIP3    H148412   1.733   3.336   2.330  1.1119  0.2792  0.0657
 8999TIP3    H248413   1.708   3.295   2.186 -0.9283  0.1000  0.4339
 9000TIP3   OH248414   2.980   5.025   3.964  0.0459  0.0001 -0.6928
 9000TIP3    H148415   3.020   5.107   3.935 -0.4772  0.9537  1.1014
 9000TIP3    H248416   3.053   4.964   3.972  0.8110  0.9773  0.1148
 9001TIP3   OH248417   2.635   4.901   4.102  0.4975 -0.1898  0.2499
 9001TIP3    H148418   2.669   4.813   4.084 -1.2878 -0.6126 -1.4045
 9001TIP3    H248419   2.599   4.930   4.018 -1.4460  0.9803  1.4214
 9002TIP3   OH248420   1.140   0.652   3.698  0.2024  0.0030 -0.1570
 9002TIP3    H148421   1.208   0.626   3.760 -0.2827 -1.2239 -0.1199
 9002TIP3    H248422   1.077   0.580   3.699 -2.0787  1.8605  1.1953
 9003TIP3   OH248423   3.597   2.548  13.060  0.2264  0.3257  0.0602
 9003TIP3    H148424   3.552   2.566  13.143  1.2020 -1.2033  0.9680
 9003TIP3    H248425   3.603   2.453  13.057  2.2463  0.4407 -0.6554
 9004TIP3   OH248426   6.370   6.229  12.153  0.2228 -0.2438  0.6939
 9004TIP3    H148427   6.280   6.220  12.185 -0.3902  1.5837 -0.4080
 9004TIP3    H248428   6.415   6.279  12.220 -0.4645  1.6105 -0.1715
 9005TIP3   OH248429   4.765   6.052   5.332 -0.7802  0.3780  0.8280
 9005TIP3    H148430   4.678   6.017   5.314 -1.4076  1.1433  2.1605
 9005TIP3    H248431   4.807   5.985   5.385 -0.4838 -0.0645  0.0453
 9006TIP3   OH248432   6.607   3.529   0.277 -0.4933  0.3486 -0.3474
 9006TIP3    H148433   6.642   3.493   0.195  0.8209  0.4132  0.1596
 9006TIP3    H248434   6.587   3.452   0.330  2.0586  0.2517  0.6289
 9007TIP3   OH248435   0.721   4.574   3.669  0.1749  0.2087 -0.2290
 9007TIP3    H148436   0.639   4.524   3.670  0.8926 -1.0042  0.0965
 9007TIP3    H248437   0.709   4.638   3.599 -1.4129  0.6902  0.4353
 9008TIP3   OH248438   4.391   1.872   4.901 -0.1763  0.2430  0.4279
 9008TIP3    H148439   4.333   1.871   4.977 -0.4107 -0.3289  0.2448
 9008TIP3    H248440   4.459   1.935   4.924 -0.5829  0.5325  0.8573
 9009TIP3   OH248441   4.230   4.287  16.477 -0.1043 -0.1719  0.2356
 9009TIP3    H148442   4.188   4.246  16.402 -0.3899 -0.7979  0.7307
 9009TIP3    H248443   4.254   4.375  16.446 -0.9819 -0.1175 -0.3252
 9010TIP3   OH248444   3.030   5.595  16.296  0.0108 -0.0112  0.0685
 9010TIP3    H148445   2.973   5.576  16.371  0.4940  0.9747  0.7143
 9010TIP3    H248446   3.013   5.524  16.234 -1.2082 -0.2573  0.6458
 9011TIP3   OH248447   5.920   3.658   6.307  0.5981  0.3109  0.0236
 9011TIP3    H148448   5.957   3.740   6.274 -1.0175  1.8971  1.8430
 9011TIP3    H248449   5.854   3.634   6.242  1.4645  0.1233 -0.8045
 9012TIP3   OH248450   1.699   3.391  13.646 -0.3951 -0.1488 -0.0261
 9012TIP3    H148451   1.761   3.319  13.631  0.6315  1.0682 -1.9435
 9012TIP3    H248452   1.684   3.429  13.559 -0.5558  2.2241  0.9584
 9013TIP3   OH248453   1.266   4.369  16.632 -0.2494 -0.2401  0.3208
 9013TIP3    H148454   1.265   4.274  16.624  1.5155 -0.1558 -2.9337
 9013TIP3    H248455   1.196   4.399  16.573  1.0324  0.4188 -0.9523
 9014TIP3   OH248456   0.999   3.650  14.298  0.1756 -0.4635  0.2140
 9014TIP3    H148457   1.073   3.693  14.255  0.3598 -0.8136  0.1746
 9014TIP3    H248458   0.925   3.709  14.283  0.1429 -0.7700 -0.9491
 9015TIP3   OH248459   6.408   6.746  13.304  0.3132  0.3781  0.5434
 9015TIP3    H148460   6.462   6.793  13.368 -1.0073  2.2427  0.3696
 9015TIP3    H248461   6.393   6.660  13.343  1.5051  0.6305  1.6161
 9016TIP3   OH248462   4.701   4.240  15.113  0.0624  0.3224 -0.5453
 9016TIP3    H148463   4.611   4.212  15.126 -0.2601  1.6866  0.2740
 9016TIP3    H248464   4.754   4.165  15.142 -0.7874 -0.4533 -0.9618
 9017TIP3   OH248465   2.915   4.294   4.801 -0.6141 -0.5951  0.1541
 9017TIP3    H148466   2.962   4.213   4.781  0.7495  0.4392 -1.0870
 9017TIP3    H248467   2.983   4.361   4.807 -1.7155  0.5052  0.9943
 9018TIP3   OH248468   5.506   4.434  14.101 -0.0671  0.1386  0.0109
 9018TIP3    H148469   5.454   4.453  14.023  0.4341  2.4008  0.1671
 9018TIP3    H248470   5.581   4.385  14.068 -1.0426 -1.0646 -0.5344
 9019TIP3   OH248471   3.790   2.750  13.010 -0.0027  0.1856  0.6197
 9019TIP3    H148472   3.751   2.666  13.034 -0.1018 -0.3392 -1.1994
 9019TIP3    H248473   3.746   2.814  13.065 -1.5745 -0.7031  0.4412
 9020TIP3   OH248474   6.677   5.644  13.580 -0.2389 -0.4364 -0.0488
 9020TIP3    H148475   6.656   5.556  13.612  1.5319 -0.4311  1.2825
 9020TIP3    H248476   6.735   5.630  13.506 -1.0342 -0.3836 -0.6958
 9021TIP3   OH248477   2.598   1.770  10.893  0.6782  0.0188  0.1359
 9021TIP3    H148478   2.648   1.688  10.899  0.7839  0.0218 -0.6383
 9021TIP3    H248479   2.507   1.742  10.889  0.7231 -0.0735 -0.2962
 9022TIP3   OH248480   1.093   1.394   3.004  0.0484  0.2374 -0.1831
 9022TIP3    H148481   1.102   1.489   3.001  2.3370  0.2325  2.4573
 9022TIP3    H248482   1.018   1.379   3.061 -0.2613  0.4308 -0.5316
 9023TIP3   OH248483   3.426   3.723  13.595  0.0048  0.1217 -0.5927
 9023TIP3    H148484   3.417   3.656  13.664  0.8470 -0.1767 -0.7663
 9023TIP3    H248485   3.520   3.728  13.578 -0.1538  0.5550 -1.3763
 9024TIP3   OH248486   3.522   2.797  13.495 -0.7113 -0.3369  0.0009
 9024TIP3    H148487   3.446   2.809  13.438 -1.0133 -1.4150  0.1674
 9024TIP3    H248488   3.493   2.831  13.580 -0.2204  1.3862 -0.4653
 9025TIP3   OH248489   1.812   3.329  16.539  0.2423  0.2953  0.2269
 9025TIP3    H148490   1.889   3.285  16.576  0.2620 -0.3159 -0.5244
 9025TIP3    H248491   1.741   3.305  16.599  0.2336 -0.8631 -0.2126
 9026TIP3   OH248492   4.835   3.748  12.991 -0.2063  0.7201  0.2112
 9026TIP3    H148493   4.796   3.758  13.078  1.4328 -0.8082  1.1764
 9026TIP3    H248494   4.903   3.815  12.988  1.7214 -1.0704  1.3500
 9027TIP3   OH248495   2.204   5.212  15.285 -0.1192  0.4290 -1.2744
 9027TIP3    H148496   2.174   5.158  15.212 -0.4802 -0.1770 -0.6838
 9027TIP3    H248497   2.259   5.154  15.337 -0.0906  0.7787 -0.9122
 9028TIP3   OH248498   0.133   2.148   1.993  0.2618 -0.1578  0.0618
 9028TIP3    H148499   0.101   2.135   1.903  0.7850 -0.5859 -0.0660
 9028TIP3    H248500   0.053   2.156   2.045 -0.0503  1.0274 -0.5682
 9029TIP3   OH248501   4.501   5.124   5.523  0.1059 -0.5047  0.2286
 9029TIP3    H148502   4.483   5.181   5.597 -1.9475  1.7234 -1.8246
 9029TIP3    H248503   4.417   5.115   5.478  1.7170  0.5321 -3.3195
 9030TIP3   OH248504   5.944   3.496  12.950  0.4188  0.5396 -0.0262
 9030TIP3    H148505   5.885   3.421  12.937  2.8229 -1.9419  2.1225
 9030TIP3    H248506   5.944   3.541  12.866  0.1760 -2.9477 -2.0810
 9031TIP3   OH248507   4.273   3.164  16.863 -0.0276  0.0427  0.2543
 9031TIP3    H148508   4.348   3.107  16.876  0.1609  0.2542  0.0934
 9031TIP3    H248509   4.198   3.104  16.857 -0.0407 -0.1100  1.6373
 9032TIP3   OH248510   6.353   5.576   3.799  0.2565 -0.5280  0.1253
 9032TIP3    H148511   6.257   5.573   3.804  0.3427 -1.1142  2.3244
 9032TIP3    H248512   6.377   5.651   3.853  1.1032 -2.0448  1.9892
 9033TIP3   OH248513   4.559   1.103  16.534 -0.2919 -0.5017 -0.2979
 9033TIP3    H148514   4.624   1.034  16.547 -0.0871 -0.3040 -0.2583
 9033TIP3    H248515   4.596   1.179  16.580 -2.1258 -1.2754  2.7120
 9034TIP3   OH248516   4.948   4.405   2.769 -0.7924 -0.2585 -0.0991
 9034TIP3    H148517   4.853   4.403   2.779 -0.8383 -0.7627 -0.6068
 9034TIP3    H248518   4.964   4.375   2.680 -0.1785  0.2427 -0.1683
 9035TIP3   OH248519   2.890   2.744  16.012  0.2950 -0.2896 -0.6594
 9035TIP3    H148520   2.964   2.748  15.951  0.6946 -0.0467 -0.1652
 9035TIP3    H248521   2.848   2.830  16.005  1.6984  0.5878  1.0697
 9036TIP3   OH248522   0.216   1.149   0.790  0.9919 -0.1393  0.1172
 9036TIP3    H148523   0.293   1.092   0.796  1.6003  0.5523 -0.9585
 9036TIP3    H248524   0.242   1.219   0.731 -0.0960  0.7194  0.6265
 9037TIP3   OH248525   3.875   4.097   5.615  0.3887 -0.5280 -0.2226
 9037TIP3    H148526   3.825   4.084   5.695 -0.2038  0.2342 -0.4603
 9037TIP3    H248527   3.825   4.163   5.565  2.4260  1.5306  0.2672
 9038TIP3   OH248528   0.003   0.068  11.512  0.7572 -0.0957  0.2351
 9038TIP3    H148529  -0.079   0.049  11.468  0.4754  2.2952 -0.4208
 9038TIP3    H248530  -0.014   0.049  11.604  0.1922 -1.6405 -0.1561
 9039TIP3   OH248531   2.196   4.775  16.491 -0.2703  0.2208  0.1475
 9039TIP3    H148532   2.161   4.691  16.462 -0.6899 -0.1657  1.6783
 9039TIP3    H248533   2.121   4.834  16.490 -0.0351  0.5209 -0.6520
 9040TIP3   OH248534   5.141   4.421  14.296 -0.6916 -0.2118  0.0452
 9040TIP3    H148535   5.055   4.440  14.332 -1.3296  0.4382 -1.7182
 9040TIP3    H248536   5.165   4.501  14.249  1.2405 -0.0910  1.1319
 9041TIP3   OH248537   4.549   5.579   5.742  0.0805  0.5772 -0.1694
 9041TIP3    H148538   4.564   5.673   5.741 -2.8137  1.1651  0.3556
 9041TIP3    H248539   4.498   5.563   5.821 -0.2020 -1.2909 -0.6583
 9042TIP3   OH248540   5.220   1.248  15.272 -0.6191 -0.2211  0.0859
 9042TIP3    H148541   5.228   1.172  15.330 -0.5712 -0.7578 -0.6082
 9042TIP3    H248542   5.274   1.315  15.313 -2.5501  0.2538  2.0009
 9043TIP3   OH248543   2.513   5.516   1.865 -0.1643  0.2402 -0.8062
 9043TIP3    H148544   2.497   5.602   1.904 -0.1039 -0.6262  1.3100
 9043TIP3    H248545   2.447   5.508   1.796  0.8343  2.5740 -2.1384
 9044TIP3   OH248546   0.313   5.048  15.984  0.0082 -0.2310 -0.1749
 9044TIP3    H148547   0.268   5.111  15.929 -1.2981 -0.5396  0.5034
 9044TIP3    H248548   0.250   5.028  16.054  2.1600  1.4286  2.4520
 9045TIP3   OH248549   6.728   1.942   0.470 -0.1849  0.4282  0.1388
 9045TIP3    H148550   6.772   1.987   0.398 -2.1167  2.0418 -0.1286
 9045TIP3    H248551   6.659   1.891   0.427 -1.6187  1.7274  0.7893
 9046TIP3   OH248552   0.779   3.120  13.465  0.1097 -0.0468  0.3592
 9046TIP3    H148553   0.729   3.108  13.546 -2.0974 -0.2708 -0.9418
 9046TIP3    H248554   0.747   3.203  13.429  1.0960  0.0833 -0.2538
 9047TIP3   OH248555   1.794   6.343  13.611 -0.2739 -0.0182  0.2021
 9047TIP3    H148556   1.784   6.351  13.516 -0.6759  0.4690  0.2796
 9047TIP3    H248557   1.789   6.249  13.628  2.4984 -0.4015 -0.5451
 9048TIP3   OH248558   4.203   4.778  11.750 -0.1379  0.4659 -0.0564
 9048TIP3    H148559   4.167   4.750  11.666  0.1623  0.4084 -0.1660
 9048TIP3    H248560   4.128   4.817  11.796 -0.3688  0.2284 -0.2293
 9049TIP3   OH248561   2.067   5.137  15.787  0.0636  0.2826  0.3548
 9049TIP3    H148562   2.027   5.087  15.858 -0.4357  1.2403  0.7659
 9049TIP3    H248563   2.143   5.180  15.827 -1.0027  1.9314  0.6989
 9050TIP3   OH248564   5.431   5.645   5.978  0.2273 -0.6412 -0.6729
 9050TIP3    H148565   5.469   5.576   6.032  1.6223  1.0841  0.7004
 9050TIP3    H248566   5.502   5.673   5.920  0.2827  0.8187  0.0523
 9051TIP3   OH248567   3.889   0.264   6.114  0.3674  0.2377  0.1133
 9051TIP3    H148568   3.884   0.336   6.177 -0.5590  0.0414  0.2753
 9051TIP3    H248569   3.833   0.292   6.041  0.0083 -0.3171  0.1758
 9052TIP3   OH248570   2.183   1.250  13.194  0.8692  0.2998  0.8860
 9052TIP3    H148571   2.267   1.210  13.171  1.0227  0.9471  0.2699
 9052TIP3    H248572   2.207   1.330  13.240  0.6256  1.1305 -0.3869
 9053TIP3   OH248573   3.937   6.440   3.087  0.2935 -0.2755 -0.0155
 9053TIP3    H148574   3.996   6.474   3.020  1.1474 -1.9817 -0.1556
 9053TIP3    H248575   3.862   6.404   3.038  0.8771 -1.4434 -0.0747
 9054TIP3   OH248576   5.223   0.043   3.176 -0.1962 -0.2980  0.4945
 9054TIP3    H148577   5.248   0.010   3.262  3.2626 -1.5888 -0.8302
 9054TIP3    H248578   5.176  -0.029   3.135 -0.3822 -0.2931  0.6965
 9055TIP3   OH248579   1.040   3.553   1.229  0.2902 -0.6530 -0.4400
 9055TIP3    H148580   1.134   3.557   1.212  0.3042  0.3872 -0.1417
 9055TIP3    H248581   1.023   3.626   1.288 -0.5751 -1.3138  0.1508
 9056TIP3   OH248582   6.622   0.943  14.512 -0.2108  0.1095 -0.2170
 9056TIP3    H148583   6.666   0.915  14.432  0.9107 -0.1300  0.4744
 9056TIP3    H248584   6.594   0.861  14.554  1.4826  0.0673  0.9051
 9057TIP3   OH248585   0.979   6.590   5.892 -0.1206  0.0491  0.1773
 9057TIP3    H148586   0.966   6.547   5.976 -1.7113  0.0239 -0.0522
 9057TIP3    H248587   0.903   6.648   5.882  0.7569  1.1148 -0.6050
 9058TIP3   OH248588   6.417   5.919   0.165 -0.5288 -0.0891 -0.0042
 9058TIP3    H148589   6.499   5.908   0.117 -1.4728 -0.8192 -1.5466
 9058TIP3    H248590   6.420   5.853   0.234 -0.5902 -1.3866 -1.2011
 9059TIP3   OH248591   1.072   5.717   1.254  0.0936 -0.3622  0.1428
 9059TIP3    H148592   1.105   5.723   1.164 -0.1141 -0.2360  0.0758
 9059TIP3    H248593   1.089   5.626   1.279 -0.5258 -0.6072 -0.2899
 9060TIP3   OH248594   4.516   6.346   0.670 -0.2446 -0.3158 -0.3125
 9060TIP3    H148595   4.442   6.301   0.712 -0.3615 -2.5956 -2.7119
 9060TIP3    H248596   4.590   6.330   0.728 -0.7134 -1.9550 -0.1316
 9061TIP3   OH248597   5.623   5.466  12.020 -0.0333  0.2337 -0.1523
 9061TIP3    H148598   5.629   5.472  11.925  0.2656 -0.2635 -0.1677
 9061TIP3    H248599   5.587   5.551  12.047 -0.1884  0.3504 -0.7099
 9062TIP3   OH248600   1.317   0.088  12.853  0.2041  0.8537  0.3926
 9062TIP3    H148601   1.387   0.050  12.907  0.9670  0.2674 -0.9659
 9062TIP3    H248602   1.363   0.128  12.779 -0.7073  2.9478  0.8747
 9063TIP3   OH248603   2.377   6.583  15.693 -0.2883 -0.3027  0.0151
 9063TIP3    H148604   2.322   6.536  15.754 -0.4274  0.1230  0.2250
 9063TIP3    H248605   2.406   6.660  15.742  0.0468 -0.2434 -0.2730
 9064TIP3   OH248606   4.389   4.223  11.805  0.1428 -0.3305  0.2163
 9064TIP3    H148607   4.378   4.134  11.839  0.3559  0.1057  1.4940
 9064TIP3    H248608   4.404   4.211  11.711  2.1808 -1.7779  0.6526
 9065TIP3   OH248609   0.367   1.273   6.141 -0.4179  0.9891  0.4046
 9065TIP3    H148610   0.440   1.322   6.103  1.5564 -1.2573  1.0683
 9065TIP3    H248611   0.402   1.237   6.223 -2.0746 -0.5875  0.4888
 9066TIP3   OH248612   2.124   3.582  13.643 -0.1398  0.8491 -0.2947
 9066TIP3    H148613   2.218   3.571  13.636 -0.0258  1.2383  0.5049
 9066TIP3    H248614   2.102   3.648  13.577 -0.3017 -1.2561 -2.5278
 9067TIP3   OH248615   3.851   6.242   3.256  0.3519  0.3455 -0.4543
 9067TIP3    H148616   3.879   6.298   3.183 -0.1584  0.6919 -0.3856
 9067TIP3    H248617   3.756   6.252   3.259  0.3661  0.2901  0.2281
 9068TIP3   OH248618   2.512   3.971   6.131  0.0357  0.5536  0.8415
 9068TIP3    H148619   2.473   3.884   6.123 -0.8133  0.8844  1.2574
 9068TIP3    H248620   2.585   3.960   6.191  0.9504 -0.1864 -0.3769
 9069TIP3   OH248621   2.666   6.061  11.776  0.4166  0.6224  0.0322
 9069TIP3    H148622   2.638   6.117  11.703 -0.1364 -0.1473 -0.3569
 9069TIP3    H248623   2.589   6.053  11.831  0.7727  1.0164  0.6018
 9070TIP3   OH248624   2.612   0.657  15.984  0.4365 -0.0783 -0.1913
 9070TIP3    H148625   2.667   0.616  16.051  0.3776  1.2633  0.7208
 9070TIP3    H248626   2.614   0.750  16.005  0.1767  0.3539 -1.9078
 9071TIP3   OH248627   3.267   3.318  13.186  0.4039  0.3308 -0.4710
 9071TIP3    H148628   3.269   3.233  13.230 -0.2572  0.1911 -0.7010
 9071TIP3    H248629   3.264   3.381  13.258 -1.8829  0.0677 -0.2859
 9072TIP3   OH248630   3.812   2.560  16.989 -0.4585  0.0050 -0.3333
 9072TIP3    H148631   3.734   2.612  16.966  0.0285  0.2522 -1.5280
 9072TIP3    H248632   3.877   2.585  16.923  0.4721 -0.5708  0.3511
 9073TIP3   OH248633   5.271   6.416  12.004 -0.4945 -0.2727  0.0907
 9073TIP3    H148634   5.351   6.432  11.956 -0.6256 -2.4277 -0.9928
 9073TIP3    H248635   5.201   6.443  11.945 -0.6027 -0.8419 -0.0500
 9074TIP3   OH248636   3.292   4.749  13.469  0.4379  0.1929  0.6136
 9074TIP3    H148637   3.379   4.782  13.488  0.7912 -0.2050 -0.2547
 9074TIP3    H248638   3.272   4.782  13.381 -0.0131 -0.2646  0.5379
 9075TIP3   OH248639   4.440   1.246  15.963 -0.3481 -0.5877  0.3064
 9075TIP3    H148640   4.419   1.154  15.944  0.7467 -0.4265 -1.9248
 9075TIP3    H248641   4.534   1.245  15.982 -0.4183  0.0207  0.6828
 9076TIP3   OH248642   3.120   3.216   3.066 -0.2995 -0.3837  0.0682
 9076TIP3    H148643   3.198   3.173   3.100  0.6370  0.5540 -0.8337
 9076TIP3    H248644   3.047   3.172   3.111  0.6941 -1.6984  0.4585
 9077TIP3   OH248645   1.536   5.213  14.092  0.3650 -0.3385 -0.6530
 9077TIP3    H148646   1.580   5.297  14.078  0.8329 -0.4178  0.2627
 9077TIP3    H248647   1.575   5.154  14.028  2.1139 -0.5819  0.5663
 9078TIP3   OH248648   1.531   1.987   2.425 -0.4281 -0.4064  0.4884
 9078TIP3    H148649   1.591   2.033   2.366 -0.1300  0.4010  1.3948
 9078TIP3    H248650   1.586   1.924   2.471 -0.8992 -1.9672 -0.9981
 9079TIP3   OH248651   6.526   5.845   3.775  0.2525  0.3132  0.1778
 9079TIP3    H148652   6.529   5.814   3.865  2.1185  2.3182  0.8872
 9079TIP3    H248653   6.450   5.902   3.772  0.6313  0.8559  0.7200
 9080TIP3   OH248654   0.420   0.228   5.182  0.5466 -0.3068 -0.0364
 9080TIP3    H148655   0.447   0.144   5.218  2.0788 -0.3742 -1.2092
 9080TIP3    H248656   0.486   0.290   5.214 -0.4141  0.4231  0.6031
 9081TIP3   OH248657   5.955   4.553  14.806  0.2635 -0.2114 -0.2434
 9081TIP3    H148658   6.003   4.471  14.817  0.8476  0.0168 -1.0113
 9081TIP3    H248659   6.008   4.605  14.745 -0.8837  0.0981 -1.0269
 9082TIP3   OH248660   1.919   3.581  15.196  0.6696  0.5468 -0.2487
 9082TIP3    H148661   1.953   3.493  15.210  2.5729  1.0775 -1.0830
 9082TIP3    H248662   1.945   3.602  15.106 -1.9287  1.0588 -0.9531
 9083TIP3   OH248663   3.319   1.713   6.004 -0.3797  0.4174  0.5959
 9083TIP3    H148664   3.287   1.747   6.087 -0.0224  0.4943  0.7006
 9083TIP3    H248665   3.243   1.668   5.966 -0.5782  0.4932  0.9012
 9084TIP3   OH248666   4.811   2.720  14.758  0.1235  0.0525  0.4342
 9084TIP3    H148667   4.862   2.689  14.684 -0.5256 -0.8984  0.3658
 9084TIP3    H248668   4.822   2.652  14.825 -0.8902 -0.0916  0.4803
 9085TIP3   OH248669   0.129   5.249  15.826  0.0379 -0.2449 -0.0516
 9085TIP3    H148670   0.087   5.184  15.770 -2.3141 -0.8497  2.1921
 9085TIP3    H248671   0.069   5.324  15.824 -0.3876 -0.4798  1.9783
 9086TIP3   OH248672   4.351   4.594  14.662  0.2626 -0.1650 -0.4493
 9086TIP3    H148673   4.441   4.578  14.689  0.3275  0.2017 -0.4480
 9086TIP3    H248674   4.350   4.685  14.633 -0.0147 -0.2868 -0.8348
 9087TIP3   OH248675   3.388   2.877   2.818 -0.6932  0.2628 -0.1114
 9087TIP3    H148676   3.390   2.972   2.826 -1.1025  0.2851 -0.2416
 9087TIP3    H248677   3.431   2.845   2.898  0.6759  0.5714 -0.6895
 9088TIP3   OH248678   1.954   2.784  16.285  0.0252  0.0187 -0.5685
 9088TIP3    H148679   2.024   2.738  16.332  0.6112 -1.3819 -2.7009
 9088TIP3    H248680   1.878   2.725  16.292 -0.0186  0.0276 -0.9695
 9089TIP3   OH248681   0.439   4.347   1.566 -1.0446  0.2115  0.2458
 9089TIP3    H148682   0.397   4.261   1.575  1.1225 -0.8486  0.9854
 9089TIP3    H248683   0.500   4.351   1.640 -0.0118  1.7469 -0.6546
 9090TIP3   OH248684   1.826   0.977  17.313 -0.2767 -0.0885 -0.4253
 9090TIP3    H148685   1.794   0.921  17.242 -0.4512  0.0478 -0.4531
 9090TIP3    H248686   1.917   0.947  17.327 -0.8732 -1.5147  0.6940
 9091TIP3   OH248687   5.262   4.281   0.220 -0.5710 -0.3342 -0.2064
 9091TIP3    H148688   5.197   4.309   0.284 -0.3701  3.7882 -1.4940
 9091TIP3    H248689   5.339   4.258   0.271 -0.7848  1.7409  1.1548
 9092TIP3   OH248690   2.355   6.177   3.661 -0.0282 -0.3767 -0.4497
 9092TIP3    H148691   2.314   6.165   3.576  0.4343  0.4368 -0.7996
 9092TIP3    H248692   2.373   6.088   3.692 -0.8867 -0.7021 -0.8480
 9093TIP3   OH248693   6.562   2.804  12.663  0.1502 -0.2653 -0.1159
 9093TIP3    H148694   6.469   2.796  12.639  0.2503  2.5194 -1.9552
 9093TIP3    H248695   6.561   2.820  12.757 -1.2448 -0.5067 -0.0710
 9094TIP3   OH248696   6.012   0.768   2.069 -0.1506 -0.6783  0.2895
 9094TIP3    H148697   6.082   0.702   2.069  0.9813  0.3878  2.6450
 9094TIP3    H248698   6.027   0.818   2.149 -1.7215  1.6576 -0.7735
 9095TIP3   OH248699   1.513   6.691  12.961  0.2710  0.1752  0.4582
 9095TIP3    H148700   1.483   6.627  12.897  0.8321  0.2864  0.0756
 9095TIP3    H248701   1.593   6.653  12.997  0.0996  0.2342  0.9044
 9096TIP3   OH248702   2.516   1.004   2.356  0.0162  0.2483 -0.1317
 9096TIP3    H148703   2.457   0.952   2.300  0.6769 -0.0077 -0.6130
 9096TIP3    H248704   2.601   0.959   2.349  0.4065  0.9298  0.0923
 9097TIP3   OH248705   6.389   4.722  16.433 -0.0951  0.1418 -0.4328
 9097TIP3    H148706   6.454   4.762  16.374 -0.8643  2.5413  0.2292
 9097TIP3    H248707   6.432   4.719  16.518  0.1235 -0.9522 -0.5704
 9098TIP3   OH248708   1.254   2.522  17.422 -0.0866  0.2021 -0.1793
 9098TIP3    H148709   1.298   2.533  17.338 -0.5782  2.1862 -0.2106
 9098TIP3    H248710   1.202   2.442  17.411 -0.5119  0.6754 -1.9366
 9099TIP3   OH248711   2.500   1.691  13.678  0.1116 -0.1774 -0.5099
 9099TIP3    H148712   2.566   1.756  13.702 -0.3537  0.1853 -0.1771
 9099TIP3    H248713   2.419   1.741  13.671 -0.3129 -0.7649  0.0549
 9100TIP3   OH248714   1.245   4.626  12.838  0.3294 -0.0927 -0.0548
 9100TIP3    H148715   1.254   4.549  12.894  0.3492  0.3423  0.5649
 9100TIP3    H248716   1.316   4.684  12.867 -0.8446  0.9541  0.8351
 9101TIP3   OH248717   5.198   4.974  13.278 -0.5782 -0.3965 -0.0874
 9101TIP3    H148718   5.272   4.913  13.283 -1.3449 -1.2604  1.8547
 9101TIP3    H248719   5.202   5.010  13.189  1.3447 -1.4403 -0.4784
 9102TIP3   OH248720   2.100   1.087   3.470  0.7357  0.5073 -0.3421
 9102TIP3    H148721   2.129   1.038   3.547  1.6935 -1.1478 -1.6830
 9102TIP3    H248722   2.012   1.117   3.493 -0.0947 -2.1934  0.4707
 9103TIP3   OH248723   5.335   6.486  16.397 -0.2116  0.1111  0.0674
 9103TIP3    H148724   5.251   6.531  16.388 -0.2704  0.2558  1.2302
 9103TIP3    H248725   5.345   6.471  16.491 -0.4319 -2.7630 -0.2587
 9104TIP3   OH248726   0.499   4.612   2.237 -0.2780  0.0418 -0.2810
 9104TIP3    H148727   0.435   4.670   2.279  0.6054  1.8267 -1.2995
 9104TIP3    H248728   0.551   4.669   2.182  1.2411 -1.6068 -0.6542
 9105TIP3   OH248729   0.352   2.196  14.755  0.1194  0.0261  1.4842
 9105TIP3    H148730   0.330   2.278  14.800  0.0975  0.8450  0.0554
 9105TIP3    H248731   0.271   2.145  14.757 -0.0816  0.3499  1.7591
 9106TIP3   OH248732   5.834   1.485   5.842  0.0723  0.5014 -0.5156
 9106TIP3    H148733   5.842   1.425   5.916 -1.2978  0.8220 -0.0873
 9106TIP3    H248734   5.765   1.546   5.868  1.0103  1.9002 -1.1941
 9107TIP3   OH248735   4.270   3.433  11.991  0.6039 -0.4196  0.0968
 9107TIP3    H148736   4.321   3.514  11.989 -2.6571  2.0310  2.8969
 9107TIP3    H248737   4.229   3.428  11.905 -0.6088  2.1311  0.4274
 9108TIP3   OH248738   3.775   1.516   5.202  0.2512 -0.0001  0.2621
 9108TIP3    H148739   3.805   1.607   5.202  1.8140 -0.4606 -1.0758
 9108TIP3    H248740   3.680   1.522   5.202  0.2983  1.6941 -1.7982
 9109TIP3   OH248741   0.182   1.686  12.938  0.3469 -0.3396 -0.0476
 9109TIP3    H148742   0.249   1.668  13.005 -0.6582  0.1405  1.1191
 9109TIP3    H248743   0.118   1.615  12.948  1.0678 -1.2967 -1.7482
 9110TIP3   OH248744   4.415   1.317   5.359 -0.3379  0.7078  0.4593
 9110TIP3    H148745   4.349   1.249   5.348  0.9737 -0.3668 -1.3273
 9110TIP3    H248746   4.495   1.270   5.383  0.2400  1.7796  0.7148
 9111TIP3   OH248747   5.722   3.332  15.781 -0.5749  0.1092 -0.5501
 9111TIP3    H148748   5.732   3.314  15.875 -0.0415 -1.6560 -0.8983
 9111TIP3    H248749   5.710   3.426  15.776  3.0496  0.8477  1.0522
 9112TIP3   OH248750   2.080   0.513   5.429  0.7133 -0.0990  0.4823
 9112TIP3    H148751   2.099   0.535   5.338 -2.3085  0.6585 -0.0848
 9112TIP3    H248752   1.986   0.496   5.430  0.8484 -1.1741  3.2808
 9113TIP3   OH248753   6.436   2.160  11.370  0.1091 -0.1433  0.2867
 9113TIP3    H148754   6.460   2.146  11.279 -2.7449 -0.2178 -0.5742
 9113TIP3    H248755   6.486   2.236  11.398  2.6050 -1.3694 -0.6133
 9114TIP3   OH248756   6.319   4.911   4.991 -0.4813  0.6421 -0.1325
 9114TIP3    H148757   6.257   4.953   5.050  1.4022  1.0601  1.6626
 9114TIP3    H248758   6.393   4.972   4.985  0.7691 -0.8164 -0.3202
 9115TIP3   OH248759   1.147   1.941  13.169  0.1097  0.3437 -0.3652
 9115TIP3    H148760   1.223   1.959  13.226 -0.8932 -1.2382  1.5949
 9115TIP3    H248761   1.170   1.861  13.123  0.1783  0.6165 -0.8042
 9116TIP3   OH248762   2.141   3.996  16.350 -0.1740  0.6856 -0.0555
 9116TIP3    H148763   2.225   3.975  16.310 -0.8944 -2.4124 -0.2256
 9116TIP3    H248764   2.079   3.938  16.306 -1.9596  1.1147  1.7375
 9117TIP3   OH248765   5.483   5.101  11.105  0.1368  0.2501  0.4027
 9117TIP3    H148766   5.410   5.099  11.044  0.2852 -0.2402  0.2335
 9117TIP3    H248767   5.535   5.023  11.083 -1.1556 -1.4458  2.7909
 9118TIP3   OH248768   6.646   6.174   5.085 -0.2606  0.3184 -0.3637
 9118TIP3    H148769   6.615   6.084   5.075  0.1752  0.3624 -2.9570
 9118TIP3    H248770   6.738   6.166   5.109 -0.6973  0.1325  1.3508
 9119TIP3   OH248771   3.397   2.381   5.509 -0.0380 -0.1044  0.2628
 9119TIP3    H148772   3.435   2.415   5.590  1.1312  1.0808 -0.7270
 9119TIP3    H248773   3.316   2.431   5.498  0.9237  1.3849 -0.4072
 9120TIP3   OH248774   5.526   5.358   3.073 -0.3351  0.3816 -0.0365
 9120TIP3    H148775   5.460   5.333   3.009  0.3730 -1.5699 -0.0583
 9120TIP3    H248776   5.504   5.307   3.151  0.0372  1.1622  0.5878
 9121TIP3   OH248777   5.035   1.368  16.407 -0.4718  0.1519  0.5909
 9121TIP3    H148778   5.069   1.436  16.466 -1.0673  0.3475  0.7117
 9121TIP3    H248779   4.958   1.334  16.452  0.0389 -0.8758  0.7119
 9122TIP3   OH248780   6.106   3.820   1.505 -0.5301  0.0120  0.3314
 9122TIP3    H148781   6.036   3.807   1.569 -1.2853  1.5834 -0.1216
 9122TIP3    H248782   6.080   3.768   1.429 -0.7898 -0.0406  0.4577
 9123TIP3   OH248783   2.796   2.535  14.302 -0.6945  0.0968 -0.2044
 9123TIP3    H148784   2.761   2.491  14.380 -0.3959 -0.6514 -0.4863
 9123TIP3    H248785   2.738   2.610  14.289 -1.1904 -0.1905  0.3054
 9124TIP3   OH248786   0.253   6.749  16.726  0.7451 -0.5404  0.6410
 9124TIP3    H148787   0.193   6.727  16.655  0.9436 -0.5485  0.4734
 9124TIP3    H248788   0.230   6.839  16.749  0.2446 -0.7635  1.0123
 9125TIP3   OH248789   4.906   2.992   6.793  0.5235  0.4256 -0.3151
 9125TIP3    H148790   4.993   2.987   6.833  0.9614  0.3645 -1.2461
 9125TIP3    H248791   4.921   2.972   6.701 -0.2292  2.0559 -0.8207
 9126TIP3   OH248792   1.174   1.897  11.052  0.1404 -0.6386  0.1066
 9126TIP3    H148793   1.125   1.979  11.044  0.9670  0.0845  1.9811
 9126TIP3    H248794   1.229   1.894  10.974 -1.0624 -0.2216 -0.7778
 9127TIP3   OH248795   1.000   3.909   5.679  0.6306 -0.1090  0.5241
 9127TIP3    H148796   1.033   3.824   5.648  1.1008  0.0318  0.6338
 9127TIP3    H248797   1.052   3.927   5.758  1.2912  0.7915 -0.0956
 9128TIP3   OH248798   2.666   2.197  15.582  0.0846 -0.5869 -0.1096
 9128TIP3    H148799   2.655   2.221  15.674 -0.1153  2.9027 -0.9005
 9128TIP3    H248800   2.728   2.261  15.548 -1.6931 -0.1938 -2.9387
 9129TIP3   OH248801   3.410   3.004  14.374  0.5307  0.0731 -0.3108
 9129TIP3    H148802   3.491   3.054  14.367 -0.7255  2.5130  1.2007
 9129TIP3    H248803   3.382   3.017  14.464 -0.3069 -2.8000 -0.0726
 9130TIP3   OH248804   2.978   3.610  17.281  0.2101  0.0965  0.0252
 9130TIP3    H148805   3.057   3.630  17.231 -0.5467  1.2820 -0.7576
 9130TIP3    H248806   2.925   3.557  17.221 -0.5659  1.2633 -0.3587
 9131TIP3   OH248807   2.739   2.783  17.148 -0.5523  0.3993  0.4112
 9131TIP3    H148808   2.646   2.769  17.162 -0.6226  1.3844  0.9744
 9131TIP3    H248809   2.759   2.734  17.068 -1.4682 -0.1157  0.4896
 9132TIP3   OH248810   6.330   5.047  11.415 -0.4382 -0.0206 -0.3452
 9132TIP3    H148811   6.378   5.007  11.343 -1.0895  1.9080 -1.9285
 9132TIP3    H248812   6.387   5.119  11.444 -0.1827 -0.7632  1.1222
 9133TIP3   OH248813   6.024   1.895  12.443 -0.1246  0.1364  0.5622
 9133TIP3    H148814   6.014   1.881  12.537  1.3293  0.3408  0.7663
 9133TIP3    H248815   5.969   1.827  12.403 -0.5530 -0.1208  1.5489
 9134TIP3   OH248816   3.455   2.455  16.135 -0.8179  0.6932 -0.1916
 9134TIP3    H148817   3.409   2.382  16.093  0.7223 -0.9906  0.8711
 9134TIP3    H248818   3.515   2.487  16.067  1.3685 -1.7493  0.4077
 9135TIP3   OH248819   1.510   4.966  16.206 -0.0600  0.3642 -0.3275
 9135TIP3    H148820   1.499   4.891  16.264 -0.1840  0.3810 -0.3305
 9135TIP3    H248821   1.422   4.988  16.177  0.2052 -1.3708 -2.7418
 9136TIP3   OH248822   4.216   2.842  11.377 -0.3836 -0.0990  0.2208
 9136TIP3    H148823   4.141   2.818  11.431  0.5541 -0.2367  1.5087
 9136TIP3    H248824   4.227   2.936  11.391 -0.4137 -0.0477 -0.0933
 9137TIP3   OH248825   3.222   3.918   5.428 -0.4108  0.8097 -0.1908
 9137TIP3    H148826   3.164   3.850   5.461 -0.2020  1.5554  1.8753
 9137TIP3    H248827   3.199   3.927   5.336 -2.0942 -0.3833  0.0717
 9138TIP3   OH248828   4.475   1.194  17.383 -0.6032 -0.3073  0.5071
 9138TIP3    H148829   4.551   1.253  17.386  3.0258 -4.4463  1.3778
 9138TIP3    H248830   4.482   1.149  17.299 -4.2348  1.3674 -0.8770
 9139TIP3   OH248831   1.849   2.931   5.561 -0.1434 -0.6563  0.0058
 9139TIP3    H148832   1.923   2.992   5.558  0.1007 -0.9715 -1.0932
 9139TIP3    H248833   1.772   2.985   5.549 -0.1159 -0.2975  1.3694
 9140TIP3   OH248834   1.873   1.176   1.620 -0.0744 -0.4230 -0.1561
 9140TIP3    H148835   1.860   1.250   1.680 -0.4122 -1.8351  1.5833
 9140TIP3    H248836   1.925   1.213   1.548 -0.8699  1.6716  0.2749
 9141TIP3   OH248837   5.188   3.746  16.456 -0.1325  0.5244 -0.1563
 9141TIP3    H148838   5.274   3.784  16.436 -0.6946  1.1328 -1.5239
 9141TIP3    H248839   5.127   3.819  16.446 -0.9326 -0.1477 -0.2733
 9142TIP3   OH248840   2.124   1.367   3.604 -0.4858 -0.2837 -0.1162
 9142TIP3    H148841   2.182   1.299   3.571  1.3900  0.1816  1.9681
 9142TIP3    H248842   2.129   1.358   3.699 -4.7010 -0.8483  0.2085
 9143TIP3   OH248843   5.349   1.101   5.250  0.3221 -0.3570  0.2020
 9143TIP3    H148844   5.431   1.127   5.292  1.7903 -1.8280 -1.5327
 9143TIP3    H248845   5.338   1.164   5.178 -0.3979  0.1607  0.7479
 9144TIP3   OH248846   1.483   4.724   0.547 -0.1814 -0.1985  0.2033
 9144TIP3    H148847   1.481   4.630   0.534 -0.2502 -0.2156  0.3296
 9144TIP3    H248848   1.423   4.759   0.481  0.0703 -0.2195 -0.0347
 9145TIP3   OH248849   4.936   1.694   2.004  0.2535  0.3201  0.2359
 9145TIP3    H148850   4.844   1.710   1.983  0.1995  1.4059  1.1410
 9145TIP3    H248851   4.962   1.623   1.946 -1.0275  0.2950 -0.3584
 9146TIP3   OH248852   1.401   6.279  12.856  0.2768  0.5515  0.4119
 9146TIP3    H148853   1.365   6.366  12.840 -2.1368 -0.7960 -2.3320
 9146TIP3    H248854   1.463   6.265  12.785  2.0902  0.6567  1.8999
 9147TIP3   OH248855   1.373   4.141  17.384 -0.0920 -0.1209 -0.0811
 9147TIP3    H148856   1.336   4.230  17.383 -1.1465 -0.5366  0.1601
 9147TIP3    H248857   1.310   4.090  17.435  1.2528 -0.7117  1.0411
 9148TIP3   OH248858   1.692   2.491   1.045 -0.1572  0.3460  0.6047
 9148TIP3    H148859   1.750   2.415   1.047  0.4445  0.8084  1.7606
 9148TIP3    H248860   1.604   2.455   1.036  0.1741 -0.4527  0.5492
 9149TIP3   OH248861   3.305   5.481   0.552 -0.0685  0.4335 -0.2048
 9149TIP3    H148862   3.273   5.542   0.485 -3.2885 -0.6942  0.1257
 9149TIP3    H248863   3.265   5.512   0.633  0.5912 -0.4867  0.4948
 9150TIP3   OH248864   1.622   1.512   0.892  0.3457 -0.1164 -0.0990
 9150TIP3    H148865   1.573   1.458   0.955  0.3281 -0.0750 -0.0773
 9150TIP3    H248866   1.679   1.566   0.946 -2.3694  2.7197  0.1942
 9151TIP3   OH248867   0.322   6.219  10.847 -0.8488  0.6846  0.3435
 9151TIP3    H148868   0.394   6.187  10.793 -1.0551  0.2798  0.3057
 9151TIP3    H248869   0.249   6.229  10.786 -0.5465  2.0858  0.1775
 9152TIP3   OH248870   3.735   3.040   0.806 -0.2852 -0.1139  0.0768
 9152TIP3    H148871   3.777   3.126   0.803 -1.1391  0.2857 -1.0566
 9152TIP3    H248872   3.792   2.983   0.754 -1.2449  0.5022 -1.7277
 9153TIP3   OH248873   6.187   1.555  17.333 -0.2056 -0.3027 -0.0066
 9153TIP3    H148874   6.124   1.540  17.262 -0.7921  2.3035 -0.1280
 9153TIP3    H248875   6.273   1.549  17.290 -0.4332 -1.2975 -0.3602
 9154TIP3   OH248876   2.543   5.345   3.289  0.5342 -0.0810 -0.0337
 9154TIP3    H148877   2.569   5.289   3.363  1.6027  0.9526  0.4211
 9154TIP3    H248878   2.621   5.349   3.234  0.5012  0.9712 -0.0320
 9155TIP3   OH248879   0.608   0.259   0.028  0.4773  0.1926  0.0147
 9155TIP3    H148880   0.679   0.322   0.019  0.6668  0.0112  0.2282
 9155TIP3    H248881   0.646   0.176  -0.001  0.2190  0.1813 -0.2963
 9156TIP3   OH248882   5.568   1.271   4.719 -0.3224 -0.1683  0.6974
 9156TIP3    H148883   5.546   1.272   4.812 -0.2600 -0.3315  0.7142
 9156TIP3    H248884   5.663   1.283   4.717 -0.5361  1.8928  0.5756
 9157TIP3   OH248885   5.521   0.600   5.701 -0.2093  0.1059  0.6573
 9157TIP3    H148886   5.511   0.692   5.724  1.2605  0.8073 -1.3516
 9157TIP3    H248887   5.610   0.577   5.729 -0.7206 -0.8830  1.5840
 9158TIP3   OH248888   5.724   3.470   6.773  0.1256 -0.3440 -0.1347
 9158TIP3    H148889   5.658   3.540   6.774 -0.1379 -0.5938  0.9363
 9158TIP3    H248890   5.798   3.508   6.727 -0.1801  0.4985  0.0518
 9159TIP3   OH248891   3.403   1.224  11.598  0.1184  0.5084  0.0391
 9159TIP3    H148892   3.496   1.203  11.587  0.5244  1.4493  1.3660
 9159TIP3    H248893   3.399   1.319  11.590 -0.9849  0.3744 -1.4220
 9160TIP3   OH248894   6.618   6.380   6.266 -0.1955 -0.6513 -0.0458
 9160TIP3    H148895   6.573   6.459   6.298  2.3624  0.4441  1.0855
 9160TIP3    H248896   6.607   6.384   6.171 -0.1698  1.0850 -0.0194
 9161TIP3   OH248897   1.069   4.717  14.879  0.3156 -0.3648 -0.1339
 9161TIP3    H148898   1.060   4.768  14.960  0.8812 -0.2399 -0.1448
 9161TIP3    H248899   1.163   4.701  14.871  0.3169  0.0152 -1.0081
 9162TIP3   OH248900   4.275   3.851   1.237 -0.2469  0.1903 -0.2672
 9162TIP3    H148901   4.261   3.813   1.150  0.3757  2.9480 -1.6712
 9162TIP3    H248902   4.207   3.918   1.245  0.3262  0.6484  0.9751
 9163TIP3   OH248903   5.295   6.287  13.915  0.2219 -0.0245 -0.1845
 9163TIP3    H148904   5.375   6.271  13.965  0.3825  0.8999 -0.1316
 9163TIP3    H248905   5.321   6.275  13.824  0.0987 -1.0206 -0.0953
 9164TIP3   OH248906   5.470   5.631   4.236 -0.1650  0.2890 -0.0158
 9164TIP3    H148907   5.455   5.664   4.324  1.0925 -0.5163  0.5100
 9164TIP3    H248908   5.482   5.537   4.246 -0.0936  0.1708 -1.0535
 9165TIP3   OH248909   1.510   4.090   1.254  0.3544  0.2982  0.1958
 9165TIP3    H148910   1.510   3.995   1.241  2.2110  0.1152  1.2124
 9165TIP3    H248911   1.457   4.103   1.333 -2.4633  0.4715 -1.5797
 9166TIP3   OH248912   0.407   2.071   1.922 -0.2500 -0.0050 -0.8072
 9166TIP3    H148913   0.399   1.977   1.936 -1.5315  0.0188 -1.2359
 9166TIP3    H248914   0.322   2.107   1.948  0.5018  1.1513  0.1610
 9167TIP3   OH248915   1.531   4.243   5.447  0.1597  0.0255 -0.1425
 9167TIP3    H148916   1.494   4.326   5.415  2.1953  0.5512 -1.3119
 9167TIP3    H248917   1.543   4.256   5.541 -0.5957  0.6268 -0.1206
 9168TIP3   OH248918   0.382   3.541   2.950  0.3226 -0.3297  0.3121
 9168TIP3    H148919   0.341   3.457   2.973 -0.5247  0.2778  1.1161
 9168TIP3    H248920   0.423   3.525   2.865 -0.3305 -1.3944  0.1713
 9169TIP3   OH248921   5.894   0.290  17.047 -0.2891 -0.2523  0.3776
 9169TIP3    H148922   5.886   0.197  17.027  1.8214 -0.3983  0.0131
 9169TIP3    H248923   5.829   0.332  16.991  0.5751 -1.2945 -1.4873
 9170TIP3   OH248924   0.044   5.088   1.528  0.4121 -0.0641  0.8532
 9170TIP3    H148925   0.028   5.036   1.449 -2.6166 -1.2063  2.0555
 9170TIP3    H248926   0.052   5.023   1.598  2.1823  0.9543  1.6602
 9171TIP3   OH248927   6.614   1.584   2.772  0.2733  0.1424  0.0727
 9171TIP3    H148928   6.618   1.597   2.677  0.6956  1.6967  0.2756
 9171TIP3    H248929   6.522   1.568   2.790  0.2461 -0.5776 -0.6336
 9172TIP3   OH248930   2.757   1.181   2.004 -0.1685  0.0844 -1.2916
 9172TIP3    H148931   2.717   1.266   1.984 -0.7459  0.3588  0.7390
 9172TIP3    H248932   2.846   1.204   2.033 -0.8816  0.2339  0.9370
 9173TIP3   OH248933   4.726   3.155   6.920  0.0268 -0.5021 -0.0159
 9173TIP3    H148934   4.727   3.239   6.874 -2.0835 -0.5524 -0.2530
 9173TIP3    H248935   4.783   3.099   6.868  1.7374  0.8191  0.3224
 9174TIP3   OH248936   0.524   1.398   2.282  0.1221 -0.2162  0.5686
 9174TIP3    H148937   0.521   1.320   2.337 -2.5340 -0.0746  0.7100
 9174TIP3    H248938   0.571   1.369   2.203 -0.4400 -1.8595  0.8002
 9175TIP3   OH248939   2.667   2.315   0.222 -0.5838 -0.3291  0.7570
 9175TIP3    H148940   2.744   2.348   0.176 -1.4846  0.5624 -0.1799
 9175TIP3    H248941   2.693   2.231   0.257  0.2314 -0.9399 -1.2065
 9176TIP3   OH248942   5.053   1.111   4.722  0.3255  0.5400  0.1237
 9176TIP3    H148943   5.125   1.172   4.705  0.3809  0.4434  0.0104
 9176TIP3    H248944   4.989   1.130   4.653 -0.1873  1.2888  0.7937
 9177TIP3   OH248945   1.211   2.867  11.192  0.3117 -0.6045  0.0919
 9177TIP3    H148946   1.216   2.882  11.287 -2.3777  0.2681  0.1586
 9177TIP3    H248947   1.299   2.889  11.160  0.7222  1.0493  2.1182
 9178TIP3   OH248948   1.087   4.241  13.237  0.5236 -0.3456  0.1062
 9178TIP3    H148949   1.129   4.305  13.180 -0.0582  0.2199  0.3017
 9178TIP3    H248950   1.035   4.187  13.179  0.8368 -0.5039 -0.0312
 9179TIP3   OH248951   1.224   6.682  17.367  0.6267 -0.1734  0.5253
 9179TIP3    H148952   1.233   6.747  17.297 -0.6632 -0.5801 -0.0520
 9179TIP3    H248953   1.311   6.644  17.376  0.9246  0.2256 -0.5297
 9180TIP3   OH248954   2.336   1.782  14.060  0.1175  0.4042  0.6178
 9180TIP3    H148955   2.310   1.866  14.099  0.6142  1.7838 -1.8378
 9180TIP3    H248956   2.432   1.782  14.065  0.0903 -0.5448  1.5459
 9181TIP3   OH248957   2.566   3.194   1.315  0.2613  0.2322 -0.2048
 9181TIP3    H148958   2.600   3.251   1.384  0.5885 -0.0034 -0.1654
 9181TIP3    H248959   2.549   3.111   1.359  2.5083 -0.6045 -0.8007
 9182TIP3   OH248960   4.323   3.354  14.515  0.1022  0.5014 -0.1517
 9182TIP3    H148961   4.298   3.372  14.605  0.5667  0.3901  0.0026
 9182TIP3    H248962   4.414   3.383  14.509  0.1272  0.3533 -0.5374
 9183TIP3   OH248963   5.665   2.271  11.745 -0.6543 -0.0320  0.2911
 9183TIP3    H148964   5.639   2.245  11.657 -0.4547 -1.0378  0.5193
 9183TIP3    H248965   5.670   2.367  11.741  0.6795 -0.1113 -1.1612
 9184TIP3   OH248966   4.744   0.389   3.784  0.4336  0.4266  0.0937
 9184TIP3    H148967   4.751   0.294   3.797 -2.9586  0.1033  0.3608
 9184TIP3    H248968   4.746   0.425   3.873  2.6573  0.7975 -0.0394
 9185TIP3   OH248969   2.935   2.050  15.766  0.2582 -0.0268  0.0905
 9185TIP3    H148970   2.935   2.077  15.675  1.8092 -2.9869 -0.9281
 9185TIP3    H248971   2.882   2.115  15.811  0.5789  2.2998 -2.6542
 9186TIP3   OH248972   5.264   2.836   4.962 -0.3503  0.6039  0.3072
 9186TIP3    H148973   5.193   2.799   5.015 -1.1491 -0.3458 -1.3757
 9186TIP3    H248974   5.264   2.929   4.986 -2.3338  0.6875  0.2067
 9187TIP3   OH248975   2.311   2.022   2.855  0.3246 -0.4886  0.1491
 9187TIP3    H148976   2.218   2.011   2.877  0.2869 -1.1346 -0.2966
 9187TIP3    H248977   2.316   1.998   2.762  0.6549  1.1297 -0.2937
 9188TIP3   OH248978   6.112   4.879   1.274  0.3696  0.3053 -0.3634
 9188TIP3    H148979   6.157   4.962   1.288 -0.3391  1.2972 -3.2485
 9188TIP3    H248980   6.162   4.815   1.324  1.6342  2.2597  0.9809
 9189TIP3   OH248981   2.774   3.121   0.146  0.6840  0.2997  0.3119
 9189TIP3    H148982   2.701   3.069   0.112  0.1749  0.9794  0.3343
 9189TIP3    H248983   2.826   3.059   0.197  1.0494 -0.5642 -1.0711
 9190TIP3   OH248984   2.605   6.146   0.261  0.4888 -0.0422  0.3195
 9190TIP3    H148985   2.667   6.109   0.324  2.1940  0.4681 -1.0199
 9190TIP3    H248986   2.566   6.069   0.219  1.2164 -0.3604  0.2149
 9191TIP3   OH248987   6.024   3.978   0.209 -0.1087  0.0170 -0.5189
 9191TIP3    H148988   6.079   4.015   0.278 -0.7593  0.2782 -0.1404
 9191TIP3    H248989   6.045   3.884   0.209  2.8479  0.5254 -2.6426
 9192TIP3   OH248990   1.907   2.528  14.165 -0.4056 -0.2766 -0.5734
 9192TIP3    H148991   2.001   2.545  14.175 -0.3906  1.5062 -2.9707
 9192TIP3    H248992   1.889   2.456  14.227  1.7958  1.5668  2.4872
 9193TIP3   OH248993   3.836   6.096   1.585 -0.1007 -0.0182  0.1665
 9193TIP3    H148994   3.775   6.111   1.658  0.1497 -1.0664  0.6046
 9193TIP3    H248995   3.886   6.177   1.580  0.4859 -0.2330  1.7583
 9194TIP3   OH248996   3.832   5.600  15.184 -0.3189 -0.4931  0.1175
 9194TIP3    H148997   3.807   5.559  15.266 -1.6577  1.2096  0.6335
 9194TIP3    H248998   3.864   5.687  15.209 -1.3933  0.3280 -1.1590
 9195TIP3   OH248999   2.595   1.125   6.449 -0.0086  0.9366 -0.2733
 9195TIP3    H149000   2.606   1.179   6.371 -0.0229  0.4156 -0.6408
 9195TIP3    H249001   2.508   1.086   6.440 -0.3362  1.4900  0.3951
 9196TIP3   OH249002   3.202   6.017   2.035 -0.7933 -0.1689 -0.1206
 9196TIP3    H149003   3.126   5.963   2.015 -1.4616  0.9257 -0.6178
 9196TIP3    H249004   3.194   6.093   1.977  0.2706  0.3346  0.3567
 9197TIP3   OH249005   1.100   3.289  14.097 -0.1903  0.2755 -0.4701
 9197TIP3    H149006   1.191   3.269  14.074  0.1668  0.5468  0.6162
 9197TIP3    H249007   1.069   3.346  14.027  0.6224  0.5333 -0.6333
 9198TIP3   OH249008   0.526   4.395   0.731 -0.0834 -0.3143 -0.4787
 9198TIP3    H149009   0.483   4.320   0.691 -1.4643 -0.1174  0.5590
 9198TIP3    H249010   0.553   4.364   0.818  0.6059 -0.0065 -0.5709
 9199TIP3   OH249011   6.033   2.324  16.872 -0.5175 -0.0015 -0.4164
 9199TIP3    H149012   6.047   2.322  16.777  1.2870 -3.3393 -0.2413
 9199TIP3    H249013   6.120   2.339  16.908 -0.8892 -0.4976  0.7178
 9200TIP3   OH249014   2.552   6.654   3.419  0.2109 -0.2985  0.3126
 9200TIP3    H149015   2.473   6.669   3.472 -0.1897  0.8899 -0.5737
 9200TIP3    H249016   2.520   6.643   3.330  1.0776  1.6063 -0.3024
 9201TIP3   OH249017   3.885   6.425   4.504  0.0924 -0.3918  0.1726
 9201TIP3    H149018   3.944   6.465   4.568  0.3571  0.3599 -0.5272
 9201TIP3    H249019   3.941   6.406   4.428 -0.5374  0.2555 -0.4636
 9202TIP3   OH249020   6.498   0.549  11.408  0.2651 -0.1780 -0.3515
 9202TIP3    H149021   6.466   0.611  11.342 -1.8386 -0.5652  0.2170
 9202TIP3    H249022   6.498   0.464  11.365 -2.0305 -0.5891  0.3286
 9203TIP3   OH249023   0.452   1.053   4.010  0.8433 -0.2226  0.4396
 9203TIP3    H149024   0.489   1.114   4.074 -1.9806  2.8250 -0.5951
 9203TIP3    H249025   0.381   1.009   4.057  0.8031 -0.3344  0.2763
 9204TIP3   OH249026   1.917   2.074  15.489 -0.9967  0.1229 -0.2067
 9204TIP3    H149027   2.004   2.054  15.522 -1.0343 -1.8227 -1.1392
 9204TIP3    H249028   1.910   2.169  15.495  1.1027  0.3045  0.0710
 9205TIP3   OH249029   2.028   3.927  14.560  0.3075 -0.2065 -0.5212
 9205TIP3    H149030   1.996   3.956  14.646 -0.5365 -1.3141 -0.4361
 9205TIP3    H249031   1.957   3.873  14.526  1.1131 -0.7172 -1.4181
 9206TIP3   OH249032   6.007   2.656  11.875  0.3506  0.1095 -0.4655
 9206TIP3    H149033   6.009   2.721  11.804  0.8274 -1.0143 -1.5189
 9206TIP3    H249034   5.938   2.687  11.933 -0.4900  0.7519 -1.7466
 9207TIP3   OH249035   4.826   1.832  12.770  0.4775 -0.1095  0.9071
 9207TIP3    H149036   4.749   1.775  12.768  0.3398  0.0690  1.1200
 9207TIP3    H249037   4.799   1.911  12.724  0.1226  0.4618  2.0738
 9208TIP3   OH249038   1.399   3.643  16.021 -0.5725  0.0705  0.1475
 9208TIP3    H149039   1.329   3.681  16.075 -0.5038  1.5990 -0.7664
 9208TIP3    H249040   1.465   3.616  16.084 -0.3616  2.0949  0.8938
 9209TIP3   OH249041   4.786   6.537   2.722  0.3239 -0.1248  0.0617
 9209TIP3    H149042   4.773   6.617   2.773 -0.2197  0.8352 -1.4948
 9209TIP3    H249043   4.707   6.485   2.738  0.2826  0.0426  0.4060
 9210TIP3   OH249044   6.046   1.003  17.365  0.1273 -1.0325 -0.0646
 9210TIP3    H149045   6.004   1.048  17.438  0.7027 -1.1584  0.3528
 9210TIP3    H249046   6.125   1.054  17.347  1.1702 -2.2321  0.8851
 9211TIP3   OH249047   4.593   3.024   0.124  0.2485 -0.0548  0.1233
 9211TIP3    H149048   4.656   3.008   0.054 -0.0534 -0.2159 -0.1138
 9211TIP3    H249049   4.511   3.045   0.079  0.3322  1.0012  0.4200
 9212TIP3   OH249050   2.457   6.126   1.615 -0.0831 -0.4213  0.3806
 9212TIP3    H149051   2.493   6.165   1.695 -0.2228 -0.0849  0.2774
 9212TIP3    H249052   2.533   6.111   1.559 -0.0906  0.2124  0.1961
 9213TIP3   OH249053   0.098   5.842  14.748 -0.1426 -1.0628  0.5301
 9213TIP3    H149054   0.080   5.845  14.842 -0.7968 -0.4532  0.3913
 9213TIP3    H249055   0.133   5.754  14.734 -0.5517 -1.3572  1.2568
 9214TIP3   OH249056   4.038   5.538  15.512 -0.5145 -0.3944  0.0554
 9214TIP3    H149057   4.124   5.579  15.520 -1.3140  1.2013  0.9161
 9214TIP3    H249058   4.056   5.444  15.508  1.2030 -0.1702  1.4480
 9215TIP3   OH249059   3.855   5.743   0.666 -0.4689 -0.0147  0.1361
 9215TIP3    H149060   3.781   5.790   0.629 -1.2982 -0.0440  1.6809
 9215TIP3    H249061   3.817   5.664   0.704  0.7373 -1.3802 -1.3241
 9216TIP3   OH249062   5.611   2.894  17.411 -0.4983 -0.6052 -0.2185
 9216TIP3    H149063   5.577   2.810  17.380  0.3449 -0.3997 -1.8473
 9216TIP3    H249064   5.691   2.907  17.360  1.4341 -0.5313  2.6579
 9217TIP3   OH249065   0.500   5.081   5.923  0.2919  0.6377 -0.2282
 9217TIP3    H149066   0.523   5.047   6.009 -0.6371  0.4471 -0.0351
 9217TIP3    H249067   0.518   5.008   5.863  1.2943  0.8993 -0.2541
 9218TIP3   OH249068   3.700   1.992   6.280 -0.4482 -0.1440 -0.4151
 9218TIP3    H149069   3.768   2.040   6.233 -0.9989  2.2059  1.0529
 9218TIP3    H249070   3.657   2.058   6.334 -2.4290 -1.9945  0.3945
 9219TIP3   OH249071   1.770   4.223  11.959 -0.0170  0.0253 -0.7129
 9219TIP3    H149072   1.676   4.239  11.956 -0.4776 -2.3448 -1.6634
 9219TIP3    H249073   1.807   4.277  11.890 -0.8063  0.2908 -0.9292
 9220TIP3   OH249074   5.186   6.370  11.253 -0.2173  0.4865 -0.1499
 9220TIP3    H149075   5.255   6.304  11.249 -0.9113 -0.3074  0.5503
 9220TIP3    H249076   5.119   6.339  11.192 -0.3935  0.7185 -0.0761
 9221TIP3   OH249077   3.768   3.297   1.424  0.7226 -0.5878 -0.3792
 9221TIP3    H149078   3.805   3.292   1.336 -0.7934 -0.6364 -1.0316
 9221TIP3    H249079   3.674   3.292   1.412  0.2503  2.3307  0.9890
 9222TIP3   OH249080   0.720   6.031  16.283 -0.1686 -0.2103  0.0411
 9222TIP3    H149081   0.775   6.086  16.338 -0.1697 -0.1168 -0.0518
 9222TIP3    H249082   0.704   6.083  16.205 -0.2299 -0.3139 -0.0155
 9223TIP3   OH249083   6.626   0.410   2.415  0.5833  0.5957  0.0956
 9223TIP3    H149084   6.631   0.505   2.425  0.9810  0.6384 -0.4819
 9223TIP3    H249085   6.688   0.389   2.346 -1.6980  0.2662 -1.9858
 9224TIP3   OH249086   0.630   5.402  12.459  0.0685  0.0400  0.0803
 9224TIP3    H149087   0.540   5.389  12.490 -1.0178  2.3047 -1.7701
 9224TIP3    H249088   0.624   5.397  12.364  2.4858 -2.4121 -0.0842
 9225TIP3   OH249089   3.550   2.677   0.003 -0.0058 -0.1200 -0.2128
 9225TIP3    H149090   3.598   2.652  -0.076 -1.5816  0.6973 -1.5096
 9225TIP3    H249091   3.553   2.600   0.059  2.4819 -0.2040 -0.3623
 9226TIP3   OH249092   5.127   2.286   6.992 -0.4379  0.2699  0.1242
 9226TIP3    H149093   5.148   2.301   6.900 -1.2515  0.1844 -0.0851
 9226TIP3    H249094   5.135   2.372   7.033 -3.8972  1.2206 -0.8342
 9227TIP3   OH249095   0.538   6.157  16.497 -0.3577  0.1234  0.3582
 9227TIP3    H149096   0.538   6.245  16.460 -0.4824  0.3806  0.9475
 9227TIP3    H249097   0.610   6.112  16.454 -0.1571  0.5852  0.2078
 9228TIP3   OH249098   0.587   4.114   3.155 -0.2046  0.2493 -0.2623
 9228TIP3    H149099   0.550   4.187   3.206 -1.7569 -0.8586  0.2532
 9228TIP3    H249100   0.670   4.149   3.122 -0.0173  1.6432  1.4858
 9229TIP3   OH249101   1.573   0.078  12.210 -0.2109  0.4250  0.6728
 9229TIP3    H149102   1.597   0.168  12.188  0.5690 -0.1214 -0.8501
 9229TIP3    H249103   1.632   0.053  12.280  1.6735  0.1227 -0.9512
 9230TIP3   OH249104   6.183   6.508   0.028 -0.2083  0.1427 -0.1527
 9230TIP3    H149105   6.226   6.459   0.098  0.4675 -0.4238 -0.9455
 9230TIP3    H249106   6.163   6.442  -0.039 -1.9320  0.4623 -0.0096
 9231TIP3   OH249107   1.970   0.410  15.692 -0.6209  0.1193  0.0528
 9231TIP3    H149108   2.045   0.435  15.639  0.7471 -0.5980  1.5374
 9231TIP3    H249109   1.948   0.321  15.664 -1.1466  0.4442 -0.5976
 9232TIP3   OH249110   4.171   4.053   2.616  0.2047 -0.2643  0.1344
 9232TIP3    H149111   4.159   4.070   2.709 -0.0390  0.2551  0.0140
 9232TIP3    H249112   4.162   3.958   2.607 -1.8303 -0.1363  0.3573
 9233TIP3   OH249113   1.132   1.397  16.979  0.7161 -0.0544  0.0779
 9233TIP3    H149114   1.059   1.405  16.918 -0.5840  0.0897  1.5621
 9233TIP3    H249115   1.143   1.303  16.992 -0.1800 -0.0597  0.9142
 9234TIP3   OH249116   5.767   0.525   5.782 -0.2387  0.0634  0.5920
 9234TIP3    H149117   5.795   0.461   5.848  1.5145  1.7557  1.6074
 9234TIP3    H249118   5.810   0.495   5.701 -2.9723 -2.4272 -0.1020
 9235TIP3   OH249119   6.549   2.554   5.809  0.6556 -0.3329 -0.2384
 9235TIP3    H149120   6.606   2.584   5.881  0.1909 -0.6523  0.2693
 9235TIP3    H249121   6.579   2.603   5.733  0.5852  0.6721  0.3589
 9236TIP3   OH249122   1.430   1.668   1.308 -0.4285  0.4156 -0.1483
 9236TIP3    H149123   1.446   1.712   1.224 -1.5707  1.1945  0.0176
 9236TIP3    H249124   1.448   1.736   1.373 -0.6493  0.1524  0.1881
 9237TIP3   OH249125   5.611   4.506  13.472 -0.0868  0.1103 -0.6110
 9237TIP3    H149126   5.637   4.595  13.452 -2.4299  1.5112  1.9238
 9237TIP3    H249127   5.517   4.503  13.454  0.0480 -2.1007 -1.3047
 9238TIP3   OH249128   1.587   5.661  13.334 -0.3486 -0.0148 -0.3068
 9238TIP3    H149129   1.682   5.651  13.323 -0.2013 -1.1357  1.5270
 9238TIP3    H249130   1.574   5.756  13.345  1.1375 -0.0587  3.2400
 9239TIP3   OH249131   1.702   0.124  16.154  0.4578 -0.4075  0.6226
 9239TIP3    H149132   1.686   0.103  16.062  0.1432  1.4880  0.2084
 9239TIP3    H249133   1.792   0.156  16.157  0.3415 -0.0992  0.9053
 9240TIP3   OH249134   1.280   4.511  13.916 -1.1183 -0.0581  0.2255
 9240TIP3    H149135   1.206   4.461  13.881 -0.5322 -0.8513  0.1001
 9240TIP3    H249136   1.336   4.529  13.840 -0.2867 -1.0198  0.5905
 9241TIP3   OH249137   5.303   3.190   3.264  0.0543  0.1913  0.1757
 9241TIP3    H149138   5.391   3.152   3.267  0.3665  0.9569  1.0644
 9241TIP3    H249139   5.305   3.248   3.187 -0.4035 -1.4667 -1.1448
 9242TIP3   OH249140   4.879   3.518   1.870 -0.8672  0.4766  0.1101
 9242TIP3    H149141   4.879   3.610   1.845  2.3590  0.8029  0.9301
 9242TIP3    H249142   4.844   3.517   1.959  0.6795  1.2161  0.7671
 9243TIP3   OH249143   4.326   2.025   0.828 -0.0694  0.2145  0.5870
 9243TIP3    H149144   4.391   2.095   0.823 -0.7908  0.8049 -1.9505
 9243TIP3    H249145   4.376   1.944   0.816  0.2526  0.6357 -1.0378
 9244TIP3   OH249146   1.733   4.920   1.121 -0.3300 -0.5551 -0.1770
 9244TIP3    H149147   1.772   4.924   1.208 -0.6897  1.6795 -0.0397
 9244TIP3    H249148   1.661   4.858   1.130 -0.4122 -0.3011  1.1728
 9245TIP3   OH249149   6.208   0.126   4.887 -0.3260 -0.2398  0.4018
 9245TIP3    H149150   6.298   0.159   4.882  0.3527 -1.8507  1.4216
 9245TIP3    H249151   6.188   0.123   4.980 -1.0705 -0.8156  0.2348
 9246TIP3   OH249152   4.916   1.725  12.529  0.5509 -0.5731  0.4177
 9246TIP3    H149153   4.984   1.666  12.564  1.4278 -1.0661 -1.9227
 9246TIP3    H249154   4.884   1.772  12.605  2.0122 -1.8789  1.9280
 9247TIP3   OH249155   4.909   1.121   4.390  0.5312  0.3955  0.8538
 9247TIP3    H149156   4.987   1.143   4.339  0.6043 -1.0559  0.2864
 9247TIP3    H249157   4.928   1.034   4.425 -2.1340 -1.6288 -2.1457
 9248TIP3   OH249158   6.739   1.190   2.345 -0.5608 -0.0110 -0.1701
 9248TIP3    H149159   6.681   1.247   2.395  0.4152 -0.5354  1.6671
 9248TIP3    H249160   6.765   1.243   2.269 -2.4629  0.6439 -0.4159
 9249TIP3   OH249161   4.428   3.497   1.275  0.0319 -0.1745  0.5036
 9249TIP3    H149162   4.510   3.476   1.321 -0.1994  0.7358  1.3660
 9249TIP3    H249163   4.368   3.524   1.344 -0.9203 -0.5406 -0.1583
 9250TIP3   OH249164   0.182   1.903   5.512 -0.0870 -0.5761 -0.4767
 9250TIP3    H149165   0.096   1.860   5.510 -0.5914  0.2685  1.4216
 9250TIP3    H249166   0.188   1.941   5.599  1.5004  0.8673 -1.1674
 9251TIP3   OH249167   6.131   1.566  16.912  0.5016  0.2593  0.5342
 9251TIP3    H149168   6.222   1.540  16.896  0.5819 -0.7769  2.3723
 9251TIP3    H249169   6.127   1.658  16.888  1.5821 -0.1103 -1.2128
 9252TIP3   OH249170   1.405   3.172  12.285 -0.3611 -0.6846  0.0837
 9252TIP3    H149171   1.420   3.235  12.215 -0.2584 -0.4038  0.3571
 9252TIP3    H249172   1.312   3.181  12.306 -0.4204 -0.8582 -0.1005
 9253TIP3   OH249173   4.382   5.215   2.285  0.1007 -0.1496  0.3331
 9253TIP3    H149174   4.458   5.240   2.233 -1.2217 -0.4790 -1.8675
 9253TIP3    H249175   4.418   5.159   2.354  1.6615 -1.7973 -1.6932
 9254TIP3   OH249176   3.475   6.329  12.334 -0.1356  0.9055  0.0287
 9254TIP3    H149177   3.413   6.361  12.400 -1.2712  1.1163 -1.0984
 9254TIP3    H249178   3.419   6.297  12.263  1.0550  0.3774 -0.6935
 9255TIP3   OH249179   6.362   1.772  12.205  0.6250 -0.0454  0.4523
 9255TIP3    H149180   6.428   1.799  12.269  0.6793  0.6823  0.1063
 9255TIP3    H249181   6.410   1.763  12.123  0.6687 -1.5682  0.6143
 9256TIP3   OH249182   3.396   4.237  13.584  0.3345 -0.1041  0.4306
 9256TIP3    H149183   3.422   4.240  13.492  0.2447 -1.4113  0.3414
 9256TIP3    H249184   3.409   4.146  13.609  1.0150  0.3690  1.9119
 9257TIP3   OH249185   1.852   0.145   0.005  0.4549 -0.4140 -0.0734
 9257TIP3    H149186   1.852   0.214   0.072  1.3816  1.3013 -1.7302
 9257TIP3    H249187   1.928   0.091   0.025  0.2106 -0.4531  0.7666
 9258TIP3   OH249188   4.917   3.045  14.870  0.1590 -0.5484 -0.2167
 9258TIP3    H149189   4.862   2.979  14.828 -0.2972 -0.7477  0.6653
 9258TIP3    H249190   4.908   3.123  14.816 -0.1457 -0.8936 -0.6720
 9259TIP3   OH249191   1.119   5.831   5.095  0.2418 -0.0341 -0.0542
 9259TIP3    H149192   1.108   5.898   5.027 -2.2768 -0.9624 -0.6997
 9259TIP3    H249193   1.044   5.844   5.154  0.7112 -1.1483  0.8328
 9260TIP3   OH249194   2.469   2.729   3.570  0.5104  0.4351  0.0588
 9260TIP3    H149195   2.443   2.820   3.559  1.4612  0.7949  0.6425
 9260TIP3    H249196   2.546   2.719   3.514  1.2124  0.3715  1.0111
 9261TIP3   OH249197   1.409   3.276   2.299  0.2488 -0.1679 -0.5540
 9261TIP3    H149198   1.421   3.182   2.286  0.2550 -0.2689  0.1361
 9261TIP3    H249199   1.364   3.283   2.383 -1.0539  0.3736 -1.2616
 9262TIP3   OH249200   5.329   4.280  14.961  0.4742  0.2183  0.4453
 9262TIP3    H149201   5.370   4.366  14.946 -0.9154  0.6441 -1.1918
 9262TIP3    H249202   5.396   4.217  14.933 -0.2834  0.9288 -3.5821
 9263TIP3   OH249203   4.282   1.983  14.251  0.4206 -0.5436  0.0661
 9263TIP3    H149204   4.272   1.962  14.344 -0.2574 -1.7832 -0.2581
 9263TIP3    H249205   4.215   2.049  14.233  0.4572 -0.4109  0.4213
 9264TIP3   OH249206   1.062   0.340   1.514 -0.2759  0.1321  0.0587
 9264TIP3    H149207   1.113   0.394   1.454 -0.1815 -0.3435 -0.2961
 9264TIP3    H249208   0.976   0.331   1.472 -0.6499  0.9010  0.6380
 9265TIP3   OH249209   2.775   1.271  15.694 -0.2875  0.1925 -0.0667
 9265TIP3    H149210   2.762   1.313  15.609 -0.5287 -0.6032 -0.4246
 9265TIP3    H249211   2.735   1.185  15.685 -1.3418  0.5117  1.2260
 9266TIP3   OH249212   3.574   2.015  13.900  0.2909 -0.5486 -0.2231
 9266TIP3    H149213   3.537   2.076  13.836  0.9210  0.5825  0.4857
 9266TIP3    H249214   3.565   1.929  13.858  0.5111  0.1471 -1.7475
 9267TIP3   OH249215   1.994   0.915  11.586  0.5900 -0.7242 -0.0123
 9267TIP3    H149216   1.975   0.828  11.550 -0.3235 -0.6587  0.2737
 9267TIP3    H249217   2.083   0.910  11.618  0.3570 -1.7322  0.5011
 9268TIP3   OH249218   1.310   2.190  17.015  0.3076  0.2065 -0.6939
 9268TIP3    H149219   1.320   2.270  16.962  1.8073  0.2599 -0.3560
 9268TIP3    H249220   1.257   2.132  16.960 -1.6509  1.7373 -0.5680
 9269TIP3   OH249221   1.844   6.069  11.194 -0.0401  0.4755 -0.9682
 9269TIP3    H149222   1.833   5.978  11.167  0.5133 -0.0904  0.6041
 9269TIP3    H249223   1.919   6.101  11.145  1.7752 -0.9270  0.7582
 9270TIP3   OH249224   3.813   2.230   4.703 -0.0222 -0.3358 -0.5901
 9270TIP3    H149225   3.719   2.241   4.719 -0.4045  0.2199 -2.8183
 9270TIP3    H249226   3.855   2.280   4.773 -1.3502 -0.8056  0.6004
 9271TIP3   OH249227   1.333   2.575   1.608 -0.0745  0.1615 -0.0842
 9271TIP3    H149228   1.294   2.526   1.536 -0.6746  1.0151 -0.3561
 9271TIP3    H249229   1.272   2.564   1.681 -0.6220  1.1291 -0.3782
 9272TIP3   OH249230   6.065   1.138   4.563 -0.1593 -0.2041 -0.2604
 9272TIP3    H149231   5.998   1.074   4.539 -1.0473  1.3998 -2.2840
 9272TIP3    H249232   6.140   1.117   4.507 -0.3670  0.3547 -0.7564
 9273TIP3   OH249233   6.452   2.051   1.442 -0.0790  0.0546 -0.4031
 9273TIP3    H149234   6.454   2.044   1.346 -1.1495 -2.0201 -0.3359
 9273TIP3    H249235   6.452   1.960   1.473 -0.5659  0.6633  1.5443
 9274TIP3   OH249236   0.132   2.929   0.288  0.3950  1.0640  0.5901
 9274TIP3    H149237   0.206   2.868   0.289 -1.1638 -0.9296  0.6836
 9274TIP3    H249238   0.148   2.984   0.211  1.4535 -0.0058  0.0064
 9275TIP3   OH249239   6.347   6.190   6.365  0.5671  0.2375  0.4361
 9275TIP3    H149240   6.300   6.147   6.436 -0.6588 -2.3983 -1.7722
 9275TIP3    H249241   6.279   6.238   6.317  0.9909  0.2533 -0.1574
 9276TIP3   OH249242   5.809   6.318   3.299  0.4249  0.0799  0.1805
 9276TIP3    H149243   5.738   6.272   3.343  0.6906  1.0977  1.7667
 9276TIP3    H249244   5.773   6.404   3.279  0.9485  0.3159  0.2368
 9277TIP3   OH249245   4.771   5.238   4.429  0.0887 -0.5201  0.6346
 9277TIP3    H149246   4.800   5.219   4.340  0.3144  1.5325  0.2144
 9277TIP3    H249247   4.794   5.160   4.479  0.7178 -1.3893 -0.9320
 9278TIP3   OH249248   6.500   4.388   1.265  0.8648 -0.2277 -0.1841
 9278TIP3    H149249   6.442   4.449   1.311  0.7514  0.0096 -0.6251
 9278TIP3    H249250   6.564   4.445   1.221  0.4812 -0.3966 -0.9781
 9279TIP3   OH249251   1.372   5.166   4.337 -0.4232  0.4564 -0.4246
 9279TIP3    H149252   1.415   5.173   4.422  0.3551 -1.3339 -0.6094
 9279TIP3    H249253   1.411   5.236   4.284  0.5145  0.3768  0.1297
 9280TIP3   OH249254   0.199   1.679  15.146 -0.2511  0.1372  0.3444
 9280TIP3    H149255   0.281   1.631  15.140  0.8137  1.8824  0.1499
 9280TIP3    H249256   0.211   1.738  15.220 -0.4258  1.9827 -1.0257
 9281TIP3   OH249257   4.628   3.959   1.250  0.9806 -0.0668  0.4512
 9281TIP3    H149258   4.644   4.048   1.220  2.2507 -0.9387 -1.7336
 9281TIP3    H249259   4.574   3.920   1.181 -0.8589 -0.6118  2.1008
 9282TIP3   OH249260   5.066   0.196  12.127 -0.1303 -0.0483  0.4015
 9282TIP3    H149261   5.072   0.286  12.095 -1.0588 -0.4807 -1.0780
 9282TIP3    H249262   4.999   0.155  12.072  0.4086 -1.7044  0.9128
 9283TIP3   OH249263   3.461   1.669   3.717  0.0873 -0.2760 -0.2273
 9283TIP3    H149264   3.448   1.736   3.784 -3.7978 -1.1014  0.0663
 9283TIP3    H249265   3.474   1.718   3.636  2.6489  0.7242  0.7006
 9284TIP3   OH249266   4.461   3.589   0.862 -0.4893  0.5915 -0.1780
 9284TIP3    H149267   4.504   3.620   0.782 -0.4557 -1.7417 -1.1546
 9284TIP3    H249268   4.492   3.499   0.872 -1.8638  0.2558  1.5021
 9285TIP3   OH249269   0.047   6.300  17.186  0.0041  0.4817 -0.5794
 9285TIP3    H149270   0.096   6.269  17.262 -0.1776  1.0896 -0.2026
 9285TIP3    H249271   0.002   6.379  17.218 -0.7421  0.2648 -1.0812
 9286TIP3   OH249272   4.373   4.509  15.280  0.0064  0.2558  0.2537
 9286TIP3    H149273   4.459   4.489  15.243 -0.2974  0.3958 -0.5481
 9286TIP3    H249274   4.368   4.605  15.279  0.3383  0.3049  1.4875
 9287TIP3   OH249275   1.955   5.636   3.108 -0.0757 -0.1085 -0.3302
 9287TIP3    H149276   1.884   5.608   3.050 -0.2848  0.9649 -0.6238
 9287TIP3    H249277   1.926   5.612   3.195 -0.2398 -0.7962 -0.5694
 9288TIP3   OH249278   0.451   4.805   0.574  0.1377  0.1930 -0.4443
 9288TIP3    H149279   0.374   4.828   0.521  0.9002 -0.5273 -1.9440
 9288TIP3    H249280   0.516   4.870   0.552 -0.0142  0.8137  0.8445
 9289TIP3   OH249281   2.826   3.110  12.220 -0.0883 -0.1258  0.2433
 9289TIP3    H149282   2.747   3.083  12.173  0.5751 -1.3247 -0.2378
 9289TIP3    H249283   2.811   3.082  12.310 -0.6405  0.6311  0.4053
 9290TIP3   OH249284   4.051   5.146   5.233  0.0522  0.0565  0.0220
 9290TIP3    H149285   4.115   5.141   5.161 -1.4296  0.5588 -1.3841
 9290TIP3    H249286   3.969   5.118   5.193 -0.5588 -1.0347  1.9130
 9291TIP3   OH249287   2.786   4.176   0.283 -0.8051  0.2539 -0.1110
 9291TIP3    H149288   2.787   4.187   0.379 -0.6032 -2.1179  0.2030
 9291TIP3    H249289   2.729   4.101   0.268 -0.3810  0.2410 -1.8155
 9292TIP3   OH249290   3.047   6.275  11.304 -0.1432  0.5226  0.2361
 9292TIP3    H149291   3.070   6.197  11.255 -2.0877 -0.4511  0.7581
 9292TIP3    H249292   2.982   6.320  11.250 -0.2812  0.8879  0.6932
 9293TIP3   OH249293   3.571   4.724   4.766  0.6537  0.5501  0.0757
 9293TIP3    H149294   3.535   4.735   4.678  0.6969  0.3612  0.0329
 9293TIP3    H249295   3.570   4.630   4.780  4.3175  0.1034 -1.3062
 9294TIP3   OH249296   3.363   0.552  14.542  0.0308  0.1758  0.4022
 9294TIP3    H149297   3.421   0.476  14.538  0.2153  0.3557 -0.8069
 9294TIP3    H249298   3.278   0.517  14.568 -0.1847 -0.6502 -1.2788
 9295TIP3   OH249299   6.632   5.679  14.862 -0.1287 -0.8232 -0.3156
 9295TIP3    H149300   6.693   5.663  14.934 -0.1058 -0.8706 -0.3459
 9295TIP3    H249301   6.572   5.745  14.896 -0.3736 -1.1521 -0.1010
 9296TIP3   OH249302   3.391   2.387   2.088  0.2685  0.4501  0.5358
 9296TIP3    H149303   3.350   2.300   2.092 -0.7376  0.9143  3.4185
 9296TIP3    H249304   3.481   2.370   2.061 -0.1013 -1.3992  0.3138
 9297TIP3   OH249305   0.436   3.087  13.341  0.4670  0.1260 -0.3481
 9297TIP3    H149306   0.489   3.048  13.272  0.8557 -0.5091  0.2964
 9297TIP3    H249307   0.437   3.023  13.412  1.6677  1.5379  1.0015
 9298TIP3   OH249308   1.564   1.191   4.048  0.5614  0.1618  0.1540
 9298TIP3    H149309   1.564   1.279   4.086  1.4686 -0.1294  0.8655
 9298TIP3    H249310   1.472   1.166   4.046  0.3324  0.9466  0.3747
 9299TIP3   OH249311   0.667   2.728  16.936 -0.1954  0.3039 -0.5319
 9299TIP3    H149312   0.625   2.693  17.015 -0.6752  0.1812 -0.8442
 9299TIP3    H249313   0.712   2.807  16.967 -0.7029  0.4707 -0.2137
 9300TIP3   OH249314   0.979   6.002  15.841 -0.3583  0.2812  0.1177
 9300TIP3    H149315   1.058   5.951  15.860 -0.7184 -0.1428  0.5255
 9300TIP3    H249316   0.995   6.042  15.756  0.3958  0.4024  0.3102
 9301TIP3   OH249317   2.709   4.748   5.218 -0.0999 -0.5542  0.6099
 9301TIP3    H149318   2.801   4.721   5.214 -0.5113 -1.9404 -0.0891
 9301TIP3    H249319   2.671   4.714   5.137 -0.9627  1.0793  0.2951
 9302TIP3   OH249320   2.585   3.099   3.695  0.0534 -0.1244 -0.0823
 9302TIP3    H149321   2.522   3.142   3.753 -0.6181 -2.6707  1.2037
 9302TIP3    H249322   2.654   3.066   3.753  0.8945 -0.2225 -1.0978
 9303TIP3   OH249323   3.750   3.635  16.078  0.5776  0.2664  0.3332
 9303TIP3    H149324   3.696   3.564  16.044  0.0331  1.1911 -0.7946
 9303TIP3    H249325   3.829   3.633  16.024  0.3291  0.8434 -0.0599
 9304TIP3   OH249326   0.118   6.202   2.761  0.0586  0.0036  0.0728
 9304TIP3    H149327   0.043   6.155   2.798 -0.0778 -1.0790 -1.4521
 9304TIP3    H249328   0.139   6.270   2.825 -1.3997 -0.5056  1.1331
 9305TIP3   OH249329   6.447   0.706   0.696 -0.0789 -0.2360 -0.5160
 9305TIP3    H149330   6.456   0.614   0.673 -0.0482 -0.8056  1.6130
 9305TIP3    H249331   6.376   0.709   0.760  2.3200  0.6081  2.3241
 9306TIP3   OH249332   2.693   0.172   1.888  0.0708  0.2212 -0.3655
 9306TIP3    H149333   2.691   0.252   1.941  0.6554  0.0926 -0.1472
 9306TIP3    H249334   2.674   0.102   1.951  0.5363  0.0906 -0.3721
 9307TIP3   OH249335   1.530   0.469   0.779 -0.3473 -0.0448 -0.1954
 9307TIP3    H149336   1.551   0.479   0.872  1.0771 -0.0432 -0.4918
 9307TIP3    H249337   1.611   0.435   0.740 -0.3361  1.5458 -1.7068
 9308TIP3   OH249338   0.904   1.259  14.630  0.2379 -0.2846 -0.0572
 9308TIP3    H149339   0.927   1.340  14.585  0.4748  0.4556  1.3514
 9308TIP3    H249340   0.817   1.274  14.665  0.6931 -0.2267  1.0990
 9309TIP3   OH249341   2.831   5.085   5.911 -0.3105  0.2794  0.2328
 9309TIP3    H149342   2.820   5.179   5.925  0.7807  0.4610 -0.0563
 9309TIP3    H249343   2.909   5.062   5.960 -0.3471 -0.4064 -0.0133
 9310TIP3   OH249344   0.439   1.211  14.930  0.2633 -0.1544 -0.3292
 9310TIP3    H149345   0.377   1.246  14.994  1.3783  1.5704 -0.1183
 9310TIP3    H249346   0.396   1.133  14.895  0.2077 -2.1043  3.5846
 9311TIP3   OH249347   3.668   1.787  14.255  0.6961 -0.1209  0.0525
 9311TIP3    H149348   3.639   1.878  14.245  1.0609  0.0872  0.8686
 9311TIP3    H249349   3.756   1.793  14.293  0.6113 -0.8244  0.3792
 9312TIP3   OH249350   2.446   3.259  17.415  0.3345  0.2037  0.5840
 9312TIP3    H149351   2.486   3.333  17.370  1.3953 -0.2091  0.8065
 9312TIP3    H249352   2.510   3.234  17.482 -1.8911  1.9070  3.6105
 9313TIP3   OH249353   5.812   6.001   1.012 -0.1822 -0.2650 -0.2677
 9313TIP3    H149354   5.741   6.026   0.953  0.4890 -0.6674 -1.2666
 9313TIP3    H249355   5.892   6.014   0.961  0.4982  0.4165  0.9190
 9314TIP3   OH249356   1.042   4.777   1.939  0.6395 -0.1418  0.0855
 9314TIP3    H149357   1.066   4.699   1.889 -1.7057 -1.1656  0.4100
 9314TIP3    H249358   1.090   4.768   2.021  0.1584 -1.4758  0.2603
 9315TIP3   OH249359   4.184   3.612   5.035 -0.0699  0.1466  0.1857
 9315TIP3    H149360   4.171   3.649   5.122 -1.6411  0.3500 -0.1182
 9315TIP3    H249361   4.254   3.546   5.048  1.1453  1.5549  1.1724
 9316TIP3   OH249362   1.365   2.920  16.346  0.0070  0.2098  0.0765
 9316TIP3    H149363   1.335   2.932  16.437 -1.2236  1.1483 -0.4160
 9316TIP3    H249364   1.311   2.981  16.295 -0.0466 -1.0353 -1.4294
 9317TIP3   OH249365   6.234   6.489  16.119  0.0692 -0.1346 -0.3275
 9317TIP3    H149366   6.166   6.424  16.135  0.1930 -0.6387 -1.6892
 9317TIP3    H249367   6.187   6.565  16.086  0.0299  0.0798  0.2142
 9318TIP3   OH249368   0.757   0.031  15.571 -0.1723  0.3631  0.7438
 9318TIP3    H149369   0.670   0.070  15.573 -0.1410  0.5598 -0.5290
 9318TIP3    H249370   0.755  -0.036  15.638 -1.9535 -0.9070 -0.4844
 9319TIP3   OH249371   6.100   4.107   4.703 -0.2374  0.3198  0.0858
 9319TIP3    H149372   6.186   4.146   4.716 -1.0999  1.8659  1.6261
 9319TIP3    H249373   6.058   4.113   4.789 -0.6465 -3.6660  0.3376
 9320TIP3   OH249374   4.123   3.282   4.781 -0.2517  0.1975  1.0222
 9320TIP3    H149375   4.068   3.213   4.746  1.1888 -0.1946 -0.6288
 9320TIP3    H249376   4.185   3.237   4.838  0.6863  0.0628 -0.0532
 9321TIP3   OH249377   5.603   2.801   4.390 -0.1070  1.0682  0.3291
 9321TIP3    H149378   5.600   2.809   4.295  2.7935  1.1802  0.1507
 9321TIP3    H249379   5.600   2.707   4.407  2.3023  0.8292 -0.1665
 9322TIP3   OH249380   1.689   5.379   1.244 -0.8874 -0.6887  0.3141
 9322TIP3    H149381   1.757   5.321   1.210 -0.3681 -0.1473  0.4235
 9322TIP3    H249382   1.707   5.387   1.337 -0.3129  0.4907  0.1173
 9323TIP3   OH249383   2.800   6.729  15.534 -0.1590 -1.0515  0.0523
 9323TIP3    H149384   2.719   6.691  15.500  0.4385 -2.4126  0.0749
 9323TIP3    H249385   2.866   6.709  15.467  0.3127 -0.6610  0.3930
 9324TIP3   OH249386   5.055   3.982  15.254  0.1756  0.2478  0.0317
 9324TIP3    H149387   5.014   4.039  15.319  0.1153  0.6769 -0.3831
 9324TIP3    H249388   5.110   3.923  15.306 -0.7987 -0.2023  0.5800
 9325TIP3   OH249389   0.479   3.910   5.149  0.0418 -0.0943 -0.1017
 9325TIP3    H149390   0.415   3.981   5.158  1.6820  1.2490  1.8675
 9325TIP3    H249391   0.464   3.875   5.061 -0.3403  3.1876 -1.4621
 9326TIP3   OH249392   6.435   0.615  15.644 -0.0071  0.2754  0.0038
 9326TIP3    H149393   6.353   0.574  15.670  0.5866 -0.0643  1.4809
 9326TIP3    H249394   6.408   0.690  15.591 -1.2024 -0.5350 -0.5862
 9327TIP3   OH249395   5.683   4.564   3.799  0.1862 -0.8623 -0.2173
 9327TIP3    H149396   5.731   4.482   3.794  1.0206 -0.3852 -0.2515
 9327TIP3    H249397   5.658   4.573   3.891  1.1678 -0.5618  0.0279
 9328TIP3   OH249398   0.088   0.531  14.586  0.4151 -0.3610 -0.1103
 9328TIP3    H149399   0.075   0.586  14.664 -0.9650  0.6497 -1.0118
 9328TIP3    H249400  -0.001   0.508  14.557  0.9049 -0.8223 -1.3175
 9329TIP3   OH249401   5.139   2.454   3.796 -0.0241  0.0402 -0.1466
 9329TIP3    H149402   5.134   2.522   3.864 -0.5986  0.5064 -0.6424
 9329TIP3    H249403   5.190   2.384   3.836 -0.6148  0.1803  0.8836
 9330TIP3   OH249404   2.053   4.487  11.896  0.5744 -0.2541  0.3602
 9330TIP3    H149405   1.983   4.469  11.958 -0.4990  1.1983 -0.3597
 9330TIP3    H249406   2.019   4.456  11.812  1.5627 -1.2022  0.2863
 9331TIP3   OH249407   4.412   2.013   2.993  0.0147  0.0977  0.4428
 9331TIP3    H149408   4.383   1.971   2.912  3.3380 -0.6100 -0.5150
 9331TIP3    H249409   4.353   1.979   3.060 -2.3127  0.0640 -1.4984
 9332TIP3   OH249410   1.545   5.762   5.505 -0.0175  0.6398  0.2065
 9332TIP3    H149411   1.516   5.806   5.426  0.1391 -0.9164 -0.7652
 9332TIP3    H249412   1.625   5.807   5.530 -0.4239  1.5695 -0.1375
 9333TIP3   OH249413   0.210   6.730   0.143  0.5151  0.0864 -0.3986
 9333TIP3    H149414   0.295   6.702   0.177 -0.8545 -1.4693  2.0668
 9333TIP3    H249415   0.190   6.665   0.075  1.2855  0.4756 -1.0112
 9334TIP3   OH249416   5.124   2.108   0.105 -0.0142  0.4550 -0.2742
 9334TIP3    H149417   5.138   2.094   0.012  2.9536  0.9714 -0.0081
 9334TIP3    H249418   5.115   2.020   0.142  0.3346  0.1700 -0.8601
 9335TIP3   OH249419   5.898   5.347  13.504 -0.0827 -0.0522 -0.6619
 9335TIP3    H149420   5.967   5.348  13.571 -1.3124  0.4675  0.6616
 9335TIP3    H249421   5.941   5.311  13.426  1.1215 -1.7894  0.7137
 9336TIP3   OH249422   2.596   6.008  13.316 -0.0527  0.3573 -0.1139
 9336TIP3    H149423   2.536   5.961  13.259 -0.5240  1.3777 -0.4979
 9336TIP3    H249424   2.674   6.022  13.263  0.2275 -0.2791  0.1196
 9337TIP3   OH249425   0.668   4.795  17.230 -0.1134  0.3409  0.1142
 9337TIP3    H149426   0.638   4.712  17.267  2.1766 -0.1349  1.0849
 9337TIP3    H249427   0.729   4.769  17.160 -0.2566  1.2204 -0.3441
 9338TIP3   OH249428   1.158   0.148  14.330  0.5562  0.7999  0.2417
 9338TIP3    H149429   1.231   0.185  14.281  1.1486  1.6545  1.6805
 9338TIP3    H249430   1.113   0.225  14.366 -0.1271  0.2219  0.6373
 9339TIP3   OH249431   4.731   6.020   3.882  0.6074 -1.2773 -0.0134
 9339TIP3    H149432   4.716   6.077   3.806 -1.5125  0.9895  1.9409
 9339TIP3    H249433   4.696   5.935   3.855 -0.2887 -0.4735 -1.5046
 9340TIP3   OH249434   1.831   1.925  12.895  0.0540  0.0107  0.1909
 9340TIP3    H149435   1.795   2.014  12.899 -1.1201 -0.3757 -1.0745
 9340TIP3    H249436   1.815   1.889  12.982 -1.6180  0.2689  0.0218
 9341TIP3   OH249437   4.549   3.783  15.991 -0.4998  0.5127  0.0975
 9341TIP3    H149438   4.554   3.859  15.933  0.9507  0.1603 -0.2647
 9341TIP3    H249439   4.551   3.708  15.933  3.4824  0.0694  0.5890
 9342TIP3   OH249440   2.483   6.289   4.519  0.3199  0.2696 -0.2673
 9342TIP3    H149441   2.552   6.341   4.560  1.3720 -0.5817 -0.9040
 9342TIP3    H249442   2.529   6.235   4.454 -0.9725 -0.1879 -0.8341
 9343TIP3   OH249443   1.571   2.296  11.531 -0.2993  0.1573 -0.4867
 9343TIP3    H149444   1.526   2.316  11.613 -1.5193  1.5165 -1.4339
 9343TIP3    H249445   1.641   2.236  11.556 -1.9269 -1.1463  1.2395
 9344TIP3   OH249446   5.195   6.254  15.739 -0.1030  0.0045 -0.2976
 9344TIP3    H149447   5.147   6.225  15.816  1.5186  1.5043  1.3818
 9344TIP3    H249448   5.132   6.306  15.689 -0.7055  0.5225  0.9676
 9345TIP3   OH249449   6.151   3.372  16.696 -0.2696  0.1203  0.0524
 9345TIP3    H149450   6.057   3.379  16.714 -0.4906 -1.7475 -0.1380
 9345TIP3    H249451   6.191   3.365  16.782 -0.9673 -4.9399  0.3026
 9346TIP3   OH249452   5.222   0.573   1.969  0.8437  0.1611 -0.0086
 9346TIP3    H149453   5.264   0.494   1.933  0.0060 -0.2087 -0.2104
 9346TIP3    H249454   5.293   0.636   1.977  1.2461 -0.0646 -1.4115
 9347TIP3   OH249455   1.011   0.208  12.190  0.4750 -0.3023 -0.5035
 9347TIP3    H149456   1.101   0.189  12.165  0.7311 -0.3949  0.4469
 9347TIP3    H249457   0.969   0.123  12.197  0.9238 -0.4206  1.2068
 9348TIP3   OH249458   3.432   6.380   0.152  0.1797  0.1435 -0.0429
 9348TIP3    H149459   3.366   6.443   0.122 -0.0391 -0.3120 -0.5272
 9348TIP3    H249460   3.476   6.352   0.072  1.9180  1.4824  0.3906
 9349TIP3   OH249461   3.767   6.133  11.715  0.4031  0.3413 -0.0452
 9349TIP3    H149462   3.723   6.071  11.656  1.2974  1.1285 -1.6215
 9349TIP3    H249463   3.718   6.127  11.797  0.5377 -2.5281 -0.0724
 9350TIP3   OH249464   2.408   1.917   0.762  0.4536  0.4663 -0.2627
 9350TIP3    H149465   2.474   1.903   0.694  1.9323 -0.0458  1.2164
 9350TIP3    H249466   2.352   1.840   0.758 -0.2835  1.0324 -1.7146
 9351TIP3   OH249467   2.666   2.695   4.953 -0.0672 -0.5330 -0.2162
 9351TIP3    H149468   2.746   2.743   4.934 -0.4632  0.4506  0.4864
 9351TIP3    H249469   2.693   2.603   4.957  1.2915 -0.1219  1.2488
 9352TIP3   OH249470   1.425   6.421   0.617  0.4277 -0.0147 -0.1476
 9352TIP3    H149471   1.341   6.380   0.634  0.6477 -0.7745 -0.8456
 9352TIP3    H249472   1.477   6.353   0.575  0.9248  0.8485 -0.9802
 9353TIP3   OH249473   1.666   1.372  17.336  0.6415  0.1892 -0.1887
 9353TIP3    H149474   1.759   1.371  17.359  1.2003  1.2116 -2.1495
 9353TIP3    H249475   1.665   1.380  17.240 -1.4654  0.7470 -0.1764
 9354TIP3   OH249476   4.549   0.005  14.655  0.2797 -0.0296 -0.3976
 9354TIP3    H149477   4.602   0.063  14.600  1.7904 -0.1934  0.8066
 9354TIP3    H249478   4.459   0.032  14.639  0.8139  1.2625 -1.4178
 9355TIP3   OH249479   5.727   3.965  12.033  0.6260  0.0739  0.2585
 9355TIP3    H149480   5.821   3.980  12.036  0.6728 -0.3525  1.1218
 9355TIP3    H249481   5.714   3.883  12.080 -0.1840  0.1485  0.1780
 9356TIP3   OH249482   1.877   2.519  15.176  0.5143 -0.2920  0.5472
 9356TIP3    H149483   1.787   2.541  15.154  0.1141 -2.0689  0.2975
 9356TIP3    H249484   1.891   2.431  15.140  2.5227  0.1495  0.0913
 9357TIP3   OH249485   2.189   1.038   0.448 -0.2400 -0.3854  0.5551
 9357TIP3    H149486   2.213   1.039   0.541 -1.9733  0.7094  1.0327
 9357TIP3    H249487   2.273   1.028   0.402  0.6849 -0.6529  2.2172
 9358TIP3   OH249488   2.227   1.051   0.104  0.1358 -0.1256 -0.1265
 9358TIP3    H149489   2.160   1.119   0.093 -0.4246 -0.5124  0.7816
 9358TIP3    H249490   2.300   1.096   0.147 -0.7826 -0.3802  1.7773
 9359TIP3   OH249491   5.224   3.241  11.763 -0.5842 -0.2877  0.0378
 9359TIP3    H149492   5.300   3.204  11.718 -0.4196 -0.6516  0.6083
 9359TIP3    H249493   5.163   3.263  11.692 -0.3622 -0.9283 -0.3594
 9360TIP3   OH249494   5.684   3.252   6.926  0.1217 -0.0599 -0.4681
 9360TIP3    H149495   5.778   3.244   6.943  0.0223  2.8866  2.3985
 9360TIP3    H249496   5.677   3.311   6.852  0.5306 -0.0604 -0.5060
 9361TIP3   OH249497   0.807   6.745  16.638  0.2404 -0.2066  0.0242
 9361TIP3    H149498   0.892   6.753  16.596  0.0801 -0.2570 -0.3195
 9361TIP3    H249499   0.816   6.790  16.722  0.8521 -0.9399  0.3601
 9362TIP3   OH249500   1.040   6.369   4.929 -0.3970 -0.6655 -0.6893
 9362TIP3    H149501   1.110   6.395   4.869 -0.2075 -0.0913 -0.2212
 9362TIP3    H249502   1.014   6.450   4.974  0.8073 -1.3795  1.4274
 9363TIP3   OH249503   3.037   0.445  16.692 -0.1011 -0.2141  0.2345
 9363TIP3    H149504   3.104   0.513  16.702 -1.1946  0.8064  0.9531
 9363TIP3    H249505   2.994   0.465  16.609  1.4430 -1.8142 -1.0464
 9364TIP3   OH249506   2.335   2.517   4.154 -0.4007 -0.5121 -0.0291
 9364TIP3    H149507   2.356   2.472   4.072 -0.0231  0.0661 -0.2589
 9364TIP3    H249508   2.265   2.466   4.192  0.8797 -2.0414  0.3627
 9365TIP3   OH249509   5.330   3.389   2.551  0.1038  0.5645  1.1756
 9365TIP3    H149510   5.305   3.395   2.459  0.8959 -0.2908  0.8937
 9365TIP3    H249511   5.346   3.480   2.577  1.7604  0.6840 -0.0860
 9366TIP3   OH249512   2.099   3.885  17.416 -0.3204  0.0735  0.3566
 9366TIP3    H149513   2.004   3.893  17.430 -0.1739  1.4703  0.7110
 9366TIP3    H249514   2.132   3.974  17.426  1.1251 -0.4926  0.8358
 9367TIP3   OH249515   2.594   2.809  16.754 -0.4284 -0.2218  0.0158
 9367TIP3    H149516   2.570   2.731  16.705 -0.7374  0.9362 -1.7929
 9367TIP3    H249517   2.582   2.881  16.692  0.8071  1.1675  1.2871
 9368TIP3   OH249518   5.286   4.157  15.955  0.4978  0.1168 -0.1190
 9368TIP3    H149519   5.267   4.138  15.864  0.4019  0.5318 -0.1868
 9368TIP3    H249520   5.292   4.071  15.997 -2.8396 -0.0570  0.2112
 9369TIP3   OH249521   2.504   0.718   1.637 -0.0898  0.0180 -0.0277
 9369TIP3    H149522   2.426   0.665   1.650  0.3217 -0.3623  1.0790
 9369TIP3    H249523   2.532   0.699   1.548 -2.3819  1.7381 -1.2280
 9370TIP3   OH249524   6.496   0.421  12.361 -0.0745  0.4172  0.2798
 9370TIP3    H149525   6.515   0.359  12.431  0.8370  1.9380  1.4239
 9370TIP3    H249526   6.402   0.437  12.368 -0.3413 -0.8567 -0.0842
 9371TIP3   OH249527   3.996   2.943   1.926  0.2188  0.5118  0.6620
 9371TIP3    H149528   4.042   2.866   1.958 -1.6964 -0.9616  0.1252
 9371TIP3    H249529   4.051   2.976   1.855  0.8080 -0.7292  0.5105
 9372TIP3   OH249530   6.045   2.492  11.134  0.5654  0.2872  0.9283
 9372TIP3    H149531   6.027   2.452  11.220 -1.1013 -0.2731  0.3644
 9372TIP3    H249532   6.094   2.425  11.087  1.0605  0.4040  1.2662
 9373TIP3   OH249533   5.505   5.376   4.277  0.0855  0.6944  0.6076
 9373TIP3    H149534   5.531   5.340   4.362  0.1124 -2.4166 -0.5813
 9373TIP3    H249535   5.415   5.346   4.264  0.1391  0.9742 -0.5374
 9374TIP3   OH249536   4.601   3.329   2.663  0.5483 -0.2176 -0.5987
 9374TIP3    H149537   4.580   3.277   2.741  0.5040  0.8966  0.1449
 9374TIP3    H249538   4.697   3.329   2.660  0.5599 -1.9129 -1.6995
 9375TIP3   OH249539   1.075   4.060  16.177 -0.2326 -0.2561 -0.0481
 9375TIP3    H149540   1.036   4.145  16.199 -1.1828 -0.3833 -1.1901
 9375TIP3    H249541   1.148   4.082  16.119 -0.0354 -0.1841  0.2210
 9376TIP3   OH249542   6.490   5.590  15.680  0.0545 -0.6257 -0.7863
 9376TIP3    H149543   6.432   5.516  15.700 -0.9508  0.0967 -0.9847
 9376TIP3    H249544   6.578   5.556  15.699 -0.4962 -1.4088  0.5119
 9377TIP3   OH249545   3.084   4.304  15.338 -0.1349 -0.3019 -0.1142
 9377TIP3    H149546   3.164   4.255  15.360 -0.9063 -0.9872  1.2528
 9377TIP3    H249547   3.033   4.242  15.285 -0.5812 -0.5636  0.6076
 9378TIP3   OH249548   4.979   6.318  16.975  0.2012 -0.2149 -0.1268
 9378TIP3    H149549   5.000   6.228  17.001  1.5849 -0.0071 -0.4701
 9378TIP3    H249550   4.908   6.344  17.034  0.3142 -1.2592  0.4957
 9379TIP3   OH249551   5.058   1.713   4.019 -0.0475 -0.0017  0.1804
 9379TIP3    H149552   4.971   1.719   3.979  0.1938  2.0353 -0.1852
 9379TIP3    H249553   5.078   1.620   4.020 -2.1237 -0.5095  0.0437
 9380TIP3   OH249554   0.513   2.899  16.331  0.1041  0.3349  0.2852
 9380TIP3    H149555   0.420   2.883  16.319  0.3518 -1.5528  0.5509
 9380TIP3    H249556   0.539   2.839  16.401  1.8194 -0.4123 -0.9168
 9381TIP3   OH249557   4.005   4.171   4.627 -0.1512  0.3762 -0.2214
 9381TIP3    H149558   4.097   4.147   4.623 -0.3525 -0.4906  0.1909
 9381TIP3    H249559   3.990   4.219   4.546  0.9473  1.5985  0.2649
 9382TIP3   OH249560   5.794   6.129  16.757 -0.1015  0.1284 -0.0443
 9382TIP3    H149561   5.758   6.129  16.845  1.8136  1.4543  0.8061
 9382TIP3    H249562   5.782   6.039  16.726  0.4542 -0.7512  2.1178
 9383TIP3   OH249563   0.109   3.060   0.046  0.1024 -0.1362 -0.2492
 9383TIP3    H149564   0.152   3.015  -0.027 -1.8522  0.6376 -1.9555
 9383TIP3    H249565   0.163   3.137   0.061  0.6564 -0.4289 -0.6953
 9384TIP3   OH249566   2.501   2.781   0.650  0.3027  0.2458 -0.3411
 9384TIP3    H149567   2.497   2.766   0.745 -1.1499  0.6860 -0.3108
 9384TIP3    H249568   2.523   2.874   0.641 -0.3756  0.4039 -0.4159
 9385TIP3   OH249569   2.370   4.209  12.909 -0.3869 -0.6769 -0.5225
 9385TIP3    H149570   2.445   4.205  12.850 -0.5689 -0.2924 -0.7889
 9385TIP3    H249571   2.342   4.118  12.919  0.3602 -0.8670 -0.0913
 9386TIP3   OH249572   5.953   4.484   4.386 -0.2904  0.0034 -0.0359
 9386TIP3    H149573   5.896   4.434   4.444 -0.2643  1.7472  1.5811
 9386TIP3    H249574   6.041   4.454   4.408 -0.3713 -0.4192 -0.2756
 9387TIP3   OH249575   3.005   0.994  13.660 -0.2801  0.5266 -0.4343
 9387TIP3    H149576   2.935   0.955  13.712 -0.7585  0.7295 -0.9180
 9387TIP3    H249577   3.071   1.019  13.725 -0.4971  0.0199 -0.0063
 9388TIP3   OH249578   4.567   3.993   4.312  0.5261 -0.2243 -0.1589
 9388TIP3    H149579   4.595   4.065   4.256  2.4047 -0.6640  0.1587
 9388TIP3    H249580   4.484   4.023   4.350  0.7591  1.3374 -0.8075
 9389TIP3   OH249581   2.733   1.947   6.085  0.6164 -0.4153 -0.2199
 9389TIP3    H149582   2.753   2.012   6.152 -1.0307 -0.8883  0.8022
 9389TIP3    H249583   2.756   1.989   6.002  1.2601  0.7667  0.5292
 9390TIP3   OH249584   5.540   4.172  11.965 -0.0607 -0.5271 -0.2493
 9390TIP3    H149585   5.513   4.147  11.877  0.6440 -1.0598 -0.3245
 9390TIP3    H249586   5.600   4.102  11.993 -0.8786 -0.7873  0.9613
 9391TIP3   OH249587   3.863   4.857   0.054  0.3416 -0.3411  0.0627
 9391TIP3    H149588   3.790   4.840   0.114  1.2340  0.1118  1.3133
 9391TIP3    H249589   3.897   4.770   0.032  0.0664 -0.5067  0.2815
 9392TIP3   OH249590   0.901   5.058  13.565  0.0761  0.1107 -0.3267
 9392TIP3    H149591   0.865   5.032  13.480  0.5008 -0.8440 -0.2268
 9392TIP3    H249592   0.841   5.022  13.629  0.9171 -1.0604 -0.1732
 9393TIP3   OH249593   1.862   2.133  10.962  0.2773 -0.3378  0.7027
 9393TIP3    H149594   1.904   2.170  10.885 -1.0208 -1.0552 -0.3978
 9393TIP3    H249595   1.909   2.052  10.980  0.0714 -0.5757  0.1655
 9394TIP3   OH249596   4.118   1.511   5.474 -0.1725  0.1108 -0.9823
 9394TIP3    H149597   4.067   1.565   5.534 -0.1715 -1.4589  0.5283
 9394TIP3    H249598   4.054   1.451   5.435 -0.0963  0.8122 -2.2457
 9395TIP3   OH249599   3.015   4.695   5.887  0.5458 -0.6745 -0.1366
 9395TIP3    H149600   2.954   4.632   5.926  1.7618 -0.5841  2.0645
 9395TIP3    H249601   3.093   4.644   5.867  3.5230  0.4347  6.0263
 9396TIP3   OH249602   2.285   0.090  14.310  0.5310 -0.2939  0.2262
 9396TIP3    H149603   2.361   0.045  14.272  0.6585 -0.0008  0.1223
 9396TIP3    H249604   2.321   0.173  14.342 -0.0357  0.6252 -1.3791
 9397TIP3   OH249605   4.237   1.050   6.015  0.2435 -0.2431 -0.6966
 9397TIP3    H149606   4.209   1.121   5.957  0.3245  0.1769 -0.2275
 9397TIP3    H249607   4.278   1.094   6.089 -1.9579 -0.6157  0.8574
 9398TIP3   OH249608   5.315   4.852  15.557 -0.1403 -0.0220  0.0612
 9398TIP3    H149609   5.319   4.821  15.647  0.4129 -0.7512 -0.1968
 9398TIP3    H249610   5.223   4.869  15.541 -0.4395 -1.2713  0.3275
 9399TIP3   OH249611   6.481   4.763   2.816  0.1494  0.0542 -0.6181
 9399TIP3    H149612   6.395   4.725   2.832 -0.1663 -0.0810 -2.3640
 9399TIP3    H249613   6.463   4.845   2.768  0.9700  0.2121 -0.6873
 9400TIP3   OH249614   0.548   4.528  13.771  0.1260 -0.2530 -0.2785
 9400TIP3    H149615   0.507   4.536  13.857 -2.1343 -2.4342 -1.0524
 9400TIP3    H249616   0.480   4.554  13.709  1.2314 -0.1306 -1.4836
 9401TIP3   OH249617   2.058   1.335   2.893  0.2182  0.1272  0.2525
 9401TIP3    H149618   2.077   1.421   2.856 -0.1773 -0.0787 -0.4338
 9401TIP3    H249619   2.117   1.276   2.846  0.3392 -0.0102  0.5767
 9402TIP3   OH249620   3.008   2.723  14.882  0.0387  0.5018  0.1438
 9402TIP3    H149621   2.989   2.662  14.953  0.7013  0.6412  0.4564
 9402TIP3    H249622   2.931   2.721  14.826 -0.4704  0.3446  0.8404
 9403TIP3   OH249623   5.439   3.263   6.505 -0.0599 -0.3885 -0.6303
 9403TIP3    H149624   5.468   3.173   6.519 -1.3937 -0.8926 -0.9195
 9403TIP3    H249625   5.520   3.314   6.501  0.6813 -1.3111  1.1421
 9404TIP3   OH249626   2.069   4.901   4.679 -0.0997  0.1516  0.3770
 9404TIP3    H149627   2.029   4.920   4.594  0.1827  0.4540  0.3075
 9404TIP3    H249628   2.157   4.870   4.658 -0.3779 -0.7510  0.5171
 9405TIP3   OH249629   6.240   6.036   1.803 -0.9162  0.1869  0.4047
 9405TIP3    H149630   6.245   6.080   1.888 -2.0330  0.1005  0.5319
 9405TIP3    H249631   6.274   6.100   1.741  1.5627 -0.3646  1.0862
 9406TIP3   OH249632   0.933   3.235  10.675 -0.2053  0.0058 -0.2448
 9406TIP3    H149633   0.859   3.246  10.615 -0.2709 -1.0786 -0.3777
 9406TIP3    H249634   0.978   3.319  10.672 -1.3217  0.6252 -0.3059
 9407TIP3   OH249635   2.010   5.137   3.886 -0.4487  0.0433 -0.1616
 9407TIP3    H149636   2.100   5.104   3.896 -0.2595  0.7676  0.6429
 9407TIP3    H249637   2.009   5.178   3.799 -0.2773 -0.7942 -0.5685
 9408TIP3   OH249638   3.481   1.211  14.239 -0.9395 -0.2430 -0.5187
 9408TIP3    H149639   3.402   1.181  14.193 -0.9241  0.0231 -0.7212
 9408TIP3    H249640   3.499   1.297  14.202  0.1384 -0.8023 -1.3600
 9409TIP3   OH249641   4.379   6.525  13.253  0.1330 -0.3168  0.3214
 9409TIP3    H149642   4.387   6.566  13.340 -0.6517 -0.6886  0.5838
 9409TIP3    H249643   4.382   6.598  13.192 -0.6892  0.1014  0.7542
 9410TIP3   OH249644   4.757   4.585   0.575  0.3387  0.3454  0.2055
 9410TIP3    H149645   4.797   4.587   0.488  0.4418  1.1361  0.2625
 9410TIP3    H249646   4.696   4.512   0.572  1.8202 -0.9562  0.1360
 9411TIP3   OH249647   6.389   5.237   1.185  0.3576  0.5729 -0.1202
 9411TIP3    H149648   6.436   5.321   1.178  0.4365  0.7564  2.0068
 9411TIP3    H249649   6.370   5.213   1.094  0.6377  2.7160 -0.8089
 9412TIP3   OH249650   4.011   0.371   5.769  0.1797 -0.2336  0.4003
 9412TIP3    H149651   4.073   0.435   5.733 -0.2415  1.2592  2.1271
 9412TIP3    H249652   4.058   0.331   5.842  0.0373 -1.0785  0.0345
 9413TIP3   OH249653   6.749   4.599   1.318 -0.5905  0.1341  0.1432
 9413TIP3    H149654   6.760   4.576   1.226  0.4236  0.3598  0.1903
 9413TIP3    H249655   6.829   4.568   1.360 -1.1088 -0.1057  0.9804
 9414TIP3   OH249656   2.975   2.775  14.482 -0.0059  0.2977 -0.0906
 9414TIP3    H149657   3.009   2.688  14.464 -1.2261 -0.7618  2.2738
 9414TIP3    H249658   3.043   2.817  14.535  0.0725  0.3240 -0.2128
 9415TIP3   OH249659   3.481   0.317   3.013 -0.1500  0.3681 -0.5292
 9415TIP3    H149660   3.551   0.381   3.025 -0.9881  1.3755 -0.8009
 9415TIP3    H249661   3.405   0.370   2.990 -1.5885 -0.4630  1.9366
 9416TIP3   OH249662   2.952   3.377  11.629 -0.9503  0.6484  0.0186
 9416TIP3    H149663   2.920   3.456  11.673 -0.0418  0.8873  0.2827
 9416TIP3    H249664   2.899   3.306  11.665 -0.6397  0.9256  1.0473
 9417TIP3   OH249665   4.082   3.065   1.504 -0.4537 -0.4706  0.1361
 9417TIP3    H149666   4.170   3.032   1.526 -0.8962 -0.4760  2.0843
 9417TIP3    H249667   4.027   2.987   1.508 -0.5359 -0.4962 -1.2609
 9418TIP3   OH249668   1.641   3.172  16.696  0.8723 -0.5206 -0.6155
 9418TIP3    H149669   1.600   3.228  16.761  2.2331 -0.4275  0.2034
 9418TIP3    H249670   1.656   3.089  16.741  1.5432 -0.5566 -0.8855
 9419TIP3   OH249671   3.861   3.038  15.112 -0.5705 -0.5232  0.0338
 9419TIP3    H149672   3.773   3.065  15.086 -0.3318 -0.4468 -0.7406
 9419TIP3    H249673   3.908   3.121  15.128 -0.9105 -0.5821  1.4315
 9420TIP3   OH249674   4.389   4.295  15.834  0.0741 -0.3831 -0.0875
 9420TIP3    H149675   4.477   4.259  15.845  0.4055  0.6661  0.9212
 9420TIP3    H249676   4.356   4.305  15.924 -0.5101  0.5584 -0.3976
 9421TIP3   OH249677   2.901   2.150  10.832 -0.1367  0.5111  0.0925
 9421TIP3    H149678   2.969   2.104  10.881 -0.7462 -1.1536 -0.5806
 9421TIP3    H249679   2.854   2.082  10.784 -0.6119  1.9103 -1.5453
 9422TIP3   OH249680   0.686   4.422  12.593 -0.2133  0.1377 -0.3117
 9422TIP3    H149681   0.623   4.438  12.664  0.5704 -1.3844  0.8022
 9422TIP3    H249682   0.675   4.330  12.572  0.7238  0.1729 -1.0193
 9423TIP3   OH249683   4.236   4.892   4.969 -0.3590 -0.7221  0.2943
 9423TIP3    H149684   4.285   4.965   5.007  0.4674 -1.2783  0.3195
 9423TIP3    H249685   4.144   4.913   4.986 -0.1111  0.1177  0.6414
 9424TIP3   OH249686   4.367   2.220   0.295 -0.0844 -0.3028 -0.5515
 9424TIP3    H149687   4.398   2.215   0.385 -0.6787 -2.1566 -0.4100
 9424TIP3    H249688   4.277   2.188   0.298 -0.3484  0.2545 -1.7079
 9425TIP3   OH249689   6.312   0.536  14.681 -0.0893  0.3945  0.1809
 9425TIP3    H149690   6.296   0.468  14.615 -1.1577  1.4762 -0.7220
 9425TIP3    H249691   6.379   0.498  14.739  1.4334 -0.3064 -1.9284
 9426TIP3   OH249692   0.793   5.051   2.684  0.4137 -0.3031  0.2304
 9426TIP3    H149693   0.831   5.009   2.607 -0.6750  0.1938 -0.5983
 9426TIP3    H249694   0.767   5.138   2.654 -1.6272 -0.7145  0.6519
 9427TIP3   OH249695   1.782   1.730   2.245  0.1847 -0.0866  0.0053
 9427TIP3    H149696   1.823   1.774   2.319  3.5221 -2.0909 -0.4606
 9427TIP3    H249697   1.799   1.637   2.259 -1.1346 -0.7243 -2.1236
 9428TIP3   OH249698   5.261   5.265   6.280  0.3401 -0.0154  0.0861
 9428TIP3    H149699   5.248   5.232   6.191 -1.8496  1.8715 -0.4099
 9428TIP3    H249700   5.176   5.255   6.322  0.1120  2.8821  0.5390
 9429TIP3   OH249701   2.246   5.305  15.909  0.2644 -0.1808  0.4941
 9429TIP3    H149702   2.154   5.327  15.924 -0.0288 -1.7112  1.1533
 9429TIP3    H249703   2.295   5.377  15.948 -0.6438  1.2152 -0.8586
 9430TIP3   OH249704   6.308   2.384   2.353 -0.4059  0.3155  0.6102
 9430TIP3    H149705   6.324   2.449   2.285  0.1504 -0.2332  0.2042
 9430TIP3    H249706   6.278   2.307   2.306  1.9855 -0.7814  0.7150
 9431TIP3   OH249707   0.758   4.886   3.815 -0.1994 -0.2825 -0.1697
 9431TIP3    H149708   0.823   4.940   3.861 -1.0440  1.0236 -0.4395
 9431TIP3    H249709   0.808   4.842   3.746  0.5963 -0.2078  0.3412
 9432TIP3   OH249710   4.055   5.312  16.128  0.3378  0.1541 -0.5106
 9432TIP3    H149711   4.120   5.344  16.191 -0.2556 -0.4445  0.4415
 9432TIP3    H249712   4.104   5.298  16.047  1.3192  0.0291  0.0889
 9433TIP3   OH249713   0.797   3.910   4.785  0.6600  0.4980 -0.1238
 9433TIP3    H149714   0.814   3.896   4.879 -1.5221  0.0303  0.2463
 9433TIP3    H249715   0.884   3.905   4.745  1.3647 -3.5120  1.3547
 9434TIP3   OH249716   0.498   5.502  17.100 -0.0168 -0.0229  0.5990
 9434TIP3    H149717   0.454   5.569  17.152  0.0467  0.3419  0.1962
 9434TIP3    H249718   0.546   5.552  17.034 -2.1540 -0.5385 -1.4535
 9435TIP3   OH249719   5.069   1.387  13.984 -0.2194  0.3022  0.6313
 9435TIP3    H149720   4.983   1.428  13.994 -0.3991 -0.3705  2.1061
 9435TIP3    H249721   5.056   1.297  14.013  0.7886 -0.0493  0.0380
 9436TIP3   OH249722   2.314   1.062   0.695 -0.2830  1.3158 -0.3472
 9436TIP3    H149723   2.381   1.006   0.734  0.3534  0.9217 -1.9376
 9436TIP3    H249724   2.351   1.151   0.700  0.2363  1.1387 -0.9515
 9437TIP3   OH249725   6.147   0.718  14.519  0.2697  0.3883 -0.0455
 9437TIP3    H149726   6.070   0.664  14.503 -0.4758  1.3923  0.0704
 9437TIP3    H249727   6.184   0.684  14.600 -0.8046  0.7229  0.6034
 9438TIP3   OH249728   0.435   2.768  12.293  0.3240  0.3766  0.3156
 9438TIP3    H149729   0.358   2.712  12.287  0.3353  0.2398  1.2959
 9438TIP3    H249730   0.450   2.798  12.203 -1.2955  0.9823  0.2093
 9439TIP3   OH249731   5.184   4.103  17.392  0.4440 -0.1758 -0.1951
 9439TIP3    H149732   5.233   4.182  17.414 -1.3894  1.1063 -0.5465
 9439TIP3    H249733   5.235   4.032  17.431  1.0771  1.3458  1.9020
 9440TIP3   OH249734   2.933   6.410   4.456  0.3319  0.3623 -0.5075
 9440TIP3    H149735   2.913   6.463   4.533  0.0165  0.2485 -0.5091
 9440TIP3    H249736   2.858   6.423   4.398 -0.1094 -0.6679 -0.1908
 9441TIP3   OH249737   0.787   5.251   4.272  0.2262 -0.0625  0.0385
 9441TIP3    H149738   0.827   5.283   4.191  0.3079  2.5485  1.0119
 9441TIP3    H249739   0.813   5.314   4.339 -1.3261 -1.1119  1.7559
 9442TIP3   OH249740   0.853   6.183   3.904  0.2093 -0.2434  0.4284
 9442TIP3    H149741   0.854   6.275   3.877 -1.7672 -0.5062 -0.7525
 9442TIP3    H249742   0.942   6.153   3.889  0.6607  1.2466 -0.0431
 9443TIP3   OH249743   6.031   0.929  12.895  0.3169 -0.5583 -0.1578
 9443TIP3    H149744   6.048   0.842  12.930  1.6593 -0.3253 -0.1866
 9443TIP3    H249745   6.035   0.919  12.800 -0.8845 -0.7105 -0.2106
 9444TIP3   OH249746   5.031   1.682   4.979  0.3914  0.2431  0.1824
 9444TIP3    H149747   4.944   1.709   4.952  0.7099 -1.0368 -2.4074
 9444TIP3    H249748   5.088   1.756   4.957  0.2299  0.3649  0.1773
 9445TIP3   OH249749   2.856   4.291  16.454  0.0219 -0.4586  0.7549
 9445TIP3    H149750   2.794   4.352  16.494  1.3445  0.3029  1.6979
 9445TIP3    H249751   2.883   4.234  16.526  1.4021  0.0524  0.6567
 9446TIP3   OH249752   2.277   2.305  16.464 -0.0354  0.2032 -0.1931
 9446TIP3    H149753   2.260   2.399  16.473 -0.1370  0.3367 -1.5239
 9446TIP3    H249754   2.196   2.263  16.491 -0.8103  0.6204 -1.7548
 9447TIP3   OH249755   1.773   4.013  17.029 -0.2013 -0.2484  0.6787
 9447TIP3    H149756   1.834   4.037  17.099  1.0584  0.6087 -0.6449
 9447TIP3    H249757   1.708   4.083  17.029 -0.4687 -0.4946  1.2809
 9448TIP3   OH249758   6.074   6.667  12.819  0.2713 -0.7806 -0.2820
 9448TIP3    H149759   6.102   6.759  12.820  2.3017 -1.3363  0.3843
 9448TIP3    H249760   6.094   6.636  12.907  0.3477 -2.0468 -0.7276
 9449TIP3   OH249761   2.573   4.632   0.324  0.0745  0.4319 -0.1268
 9449TIP3    H149762   2.551   4.608   0.234  0.2095 -0.8276  0.1481
 9449TIP3    H249763   2.613   4.718   0.317  0.8048  0.0233 -1.3739
 9450TIP3   OH249764   5.031   4.016   5.474 -0.2163 -0.4421  0.5702
 9450TIP3    H149765   5.064   3.959   5.404  0.6061 -0.8669  1.2669
 9450TIP3    H249766   4.967   3.963   5.520 -1.4431  0.1630 -0.4021
 9451TIP3   OH249767   4.744   6.657   3.687 -0.2159 -0.1402  0.1297
 9451TIP3    H149768   4.740   6.749   3.715  0.0218  0.0167 -0.3306
 9451TIP3    H249769   4.792   6.613   3.756 -1.4234 -0.1704  0.9778
 9452TIP3   OH249770   1.663   5.404   0.928 -0.4477  0.3481 -0.8082
 9452TIP3    H149771   1.631   5.361   1.007  0.5412  1.4652  0.2374
 9452TIP3    H249772   1.753   5.427   0.947 -0.7186  2.2319 -1.5748
 9453TIP3   OH249773   0.085   3.237  15.648  0.0206 -0.1257  0.3603
 9453TIP3    H149774   0.126   3.212  15.730 -0.7871  0.8770  1.1054
 9453TIP3    H249775  -0.002   3.269  15.673 -1.0736 -1.7462 -1.1027
 9454TIP3   OH249776   5.456   2.849  15.509  1.9207  0.0872  0.2226
 9454TIP3    H149777   5.495   2.766  15.537  1.1145 -0.2070  0.4942
 9454TIP3    H249778   5.435   2.836  15.417 -1.5920 -1.3974  1.0752
 9455TIP3   OH249779   0.862   2.243   0.254  0.3044 -0.0978  0.0111
 9455TIP3    H149780   0.919   2.274   0.184 -0.1350 -1.1693 -0.8452
 9455TIP3    H249781   0.774   2.247   0.217  0.0947 -0.9231  0.3926
 9456TIP3   OH249782   3.898   6.612  14.166  0.3088  0.3616  0.4185
 9456TIP3    H149783   3.810   6.582  14.189 -0.0535  0.7018 -0.4682
 9456TIP3    H249784   3.934   6.542  14.113  0.8270 -0.0625  1.3229
 9457TIP3   OH249785   3.575   3.841  15.842  0.4599 -0.0703 -0.0711
 9457TIP3    H149786   3.611   3.832  15.930  0.6805  1.5730  0.0502
 9457TIP3    H249787   3.652   3.850  15.785  0.3200 -1.1021 -0.4501
 9458TIP3   OH249788   4.567   2.805   6.092 -0.1220 -1.0731 -0.6174
 9458TIP3    H149789   4.493   2.856   6.126  0.4157 -0.8938  0.2943
 9458TIP3    H249790   4.635   2.871   6.074  0.2037 -1.3525 -0.4234
 9459TIP3   OH249791   1.873   5.280  13.133 -0.3277 -0.3147 -0.2871
 9459TIP3    H149792   1.784   5.299  13.161  0.5723  0.2479  2.4458
 9459TIP3    H249793   1.871   5.187  13.110 -1.4879 -0.4383  0.2300
 9460TIP3   OH249794   2.423   2.649  12.480  0.7065 -0.6328 -0.4367
 9460TIP3    H149795   2.379   2.725  12.443  0.1067 -1.3979 -1.3578
 9460TIP3    H249796   2.516   2.669  12.473  0.6071  1.4229  2.4062
 9461TIP3   OH249797   2.775   2.408  15.462  0.5677 -0.2334  0.2752
 9461TIP3    H149798   2.807   2.438  15.377  0.3422  0.8903  0.5725
 9461TIP3    H249799   2.680   2.413  15.456  0.5633  0.5196  0.8145
 9462TIP3   OH249800   3.705   5.422  13.440 -0.0635  0.5769 -0.1143
 9462TIP3    H149801   3.787   5.433  13.391  0.3934 -0.6587  0.3399
 9462TIP3    H249802   3.732   5.427  13.532 -0.2162 -1.4173  0.0834
 9463TIP3   OH249803   6.533   6.005   5.846  0.0885 -0.5617  0.1394
 9463TIP3    H149804   6.571   5.934   5.794 -1.0289 -2.7965  2.1837
 9463TIP3    H249805   6.561   6.085   5.801  1.3185 -2.2572 -2.3478
 9464TIP3   OH249806   5.233   2.386  17.077  0.5312  0.6716  0.3549
 9464TIP3    H149807   5.288   2.366  17.002 -0.7555  0.1424 -0.4937
 9464TIP3    H249808   5.280   2.350  17.153  1.1429 -0.1250 -0.3876
 9465TIP3   OH249809   2.702   6.005  16.259 -0.2908  0.5820  0.0052
 9465TIP3    H149810   2.780   6.058  16.243 -0.2680  1.7471  3.2689
 9465TIP3    H249811   2.650   6.056  16.320 -1.9205 -1.7241  0.6855
 9466TIP3   OH249812   1.664   4.952   6.056 -0.3401  0.4830 -0.3893
 9466TIP3    H149813   1.664   5.045   6.034  2.0739  0.7697  0.5851
 9466TIP3    H249814   1.642   4.907   5.974  0.8987  1.8163 -1.4927
 9467TIP3   OH249815   2.074   5.855   4.426  0.0915 -0.3363 -0.3226
 9467TIP3    H149816   2.090   5.902   4.345  0.9226 -0.8444 -0.4620
 9467TIP3    H249817   1.978   5.855   4.435 -0.0110 -0.2949 -1.3094
 9468TIP3   OH249818   3.453   1.961   2.295 -0.3105  0.0878  0.0097
 9468TIP3    H149819   3.374   2.002   2.333  1.3990  3.3271  0.4889
 9468TIP3    H249820   3.464   2.005   2.211  2.2890  1.7049  1.0708
 9469TIP3   OH249821   6.526   1.440  16.565  0.5474 -0.2054 -0.2677
 9469TIP3    H149822   6.446   1.398  16.596 -0.1231  0.1057 -1.5403
 9469TIP3    H249823   6.497   1.524  16.530  1.1260 -0.8829 -2.5021
 9470TIP3   OH249824   0.600   1.663   6.324 -0.7479 -0.2244  0.2289
 9470TIP3    H149825   0.635   1.748   6.296  0.8519 -0.7126  0.6296
 9470TIP3    H249826   0.535   1.684   6.391  0.4424  0.6604  1.1408
 9471TIP3   OH249827   0.704   4.380  13.584 -0.4180  0.6211 -0.5209
 9471TIP3    H149828   0.637   4.419  13.640  0.0226  1.9072 -0.8656
 9471TIP3    H249829   0.767   4.450  13.569  0.6435 -0.3667 -0.7895
 9472TIP3   OH249830   2.759   1.240  16.652  1.1142  0.8368  0.3501
 9472TIP3    H149831   2.694   1.240  16.722  1.0794  1.6737  0.3165
 9472TIP3    H249832   2.742   1.320  16.603  1.6060  0.6168 -0.1863
 9473TIP3   OH249833   1.400   6.597   5.646 -0.5015 -0.0457  0.0459
 9473TIP3    H149834   1.366   6.508   5.643 -1.8152  0.4512 -1.4050
 9473TIP3    H249835   1.327   6.649   5.682  0.1228  0.5089  0.5516
 9474TIP3   OH249836   5.954   2.429  13.082 -0.4945 -0.4319  0.1462
 9474TIP3    H149837   5.915   2.391  13.160 -2.2102 -2.2374 -1.4551
 9474TIP3    H249838   6.025   2.370  13.059 -1.1279 -0.9362 -0.5876
 9475TIP3   OH249839   5.964   4.322   4.830  0.7018 -0.1893 -0.5306
 9475TIP3    H149840   6.020   4.397   4.809  1.0409 -0.6112 -1.1946
 9475TIP3    H249841   5.886   4.361   4.869  0.7264  0.5403 -1.1705
 9476TIP3   OH249842   2.308   2.880   1.416 -0.4281  0.7539  0.3029
 9476TIP3    H149843   2.293   2.974   1.409 -0.9442  0.6330 -0.3626
 9476TIP3    H249844   2.401   2.872   1.438  0.2590  1.3611 -2.1339
 9477TIP3   OH249845   1.150   3.653  11.053 -0.5940 -0.0445  0.0058
 9477TIP3    H149846   1.057   3.671  11.056 -0.1979  2.2250  0.4385
 9477TIP3    H249847   1.179   3.661  11.144  0.2312  0.5501 -0.2956
 9478TIP3   OH249848   2.474   5.757   1.595  0.1094  0.0023  0.1551
 9478TIP3    H149849   2.426   5.693   1.647  1.6373 -0.4872  1.0255
 9478TIP3    H249850   2.444   5.742   1.505 -2.9961  1.2568  0.8600
 9479TIP3   OH249851   1.841   6.220   4.849  0.1653 -0.2095  0.4531
 9479TIP3    H149852   1.869   6.311   4.847  1.4970 -0.5959 -0.1621
 9479TIP3    H249853   1.787   6.213   4.928 -1.6547  1.5389 -0.5469
 9480TIP3   OH249854   1.856   1.339  10.579 -0.3300 -0.0511  0.4631
 9480TIP3    H149855   1.931   1.385  10.541  0.0209 -0.3189  0.8214
 9480TIP3    H249856   1.793   1.332  10.507 -0.5465  1.2955  0.4897
 9481TIP3   OH249857   0.418   4.391  17.235  0.9374 -0.0547  0.0264
 9481TIP3    H149858   0.442   4.354  17.320  1.6806 -1.2123 -0.6590
 9481TIP3    H249859   0.339   4.443  17.253  2.3069  1.5706  1.8291
 9482TIP3   OH249860   2.563   0.789   3.376 -0.0047 -0.0182  0.5983
 9482TIP3    H149861   2.568   0.845   3.298 -2.3881 -2.0130 -1.1407
 9482TIP3    H249862   2.638   0.730   3.368  0.0181  0.0803  0.0567
 9483TIP3   OH249863   1.206   2.663   0.904 -0.3425  0.5156  0.5328
 9483TIP3    H149864   1.174   2.751   0.923  2.4316  1.4352  1.3934
 9483TIP3    H249865   1.301   2.671   0.904  0.0101 -1.9125 -2.2697
 9484TIP3   OH249866   5.132   4.261   6.745 -0.2243 -0.5585 -0.2681
 9484TIP3    H149867   5.068   4.230   6.681  0.7226 -1.1466 -0.9514
 9484TIP3    H249868   5.186   4.184   6.765  0.3203 -0.0610  0.2382
 9485TIP3   OH249869   5.798   6.221   4.791 -0.2796 -0.3732 -0.1301
 9485TIP3    H149870   5.875   6.278   4.784 -1.0594  1.0930  2.1729
 9485TIP3    H249871   5.762   6.218   4.702  2.3181 -1.0310 -1.2646
 9486TIP3   OH249872   0.996   4.171   1.743  0.1900  0.1170 -0.1016
 9486TIP3    H149873   0.997   4.151   1.837  0.8588  0.1960 -0.0903
 9486TIP3    H249874   0.925   4.234   1.733 -1.1168 -1.2563  0.0652
 9487TIP3   OH249875   0.559   6.627   1.780 -0.0241 -0.0040 -0.1196
 9487TIP3    H149876   0.654   6.639   1.776  0.2852 -1.7738  0.9187
 9487TIP3    H249877   0.530   6.685   1.851  0.1299  1.1327 -0.9507
 9488TIP3   OH249878   1.863   2.654  10.699  0.5784  0.1849  0.8293
 9488TIP3    H149879   1.857   2.669  10.605  0.8963  2.3810  1.0943
 9488TIP3    H249880   1.822   2.568  10.713  0.1800 -0.0077 -1.2439
 9489TIP3   OH249881   3.320   0.061  12.703  0.2982  0.4695 -0.1245
 9489TIP3    H149882   3.402   0.016  12.687 -1.1275 -1.6627 -1.9467
 9489TIP3    H249883   3.319   0.132  12.638  0.4771  0.2050 -0.4183
 9490TIP3   OH249884   4.802   1.979   0.083  0.2814 -0.3339 -0.0709
 9490TIP3    H149885   4.798   2.072   0.062  6.4903  0.3445 -0.0909
 9490TIP3    H249886   4.820   1.937  -0.001 -0.4139 -1.3003  0.2464
 9491TIP3   OH249887   6.391   5.434   0.484 -0.3155 -0.4217  0.0991
 9491TIP3    H149888   6.342   5.472   0.412 -0.6724 -0.1046  0.5080
 9491TIP3    H249889   6.330   5.434   0.558  0.2818 -0.0509  0.6039
 9492TIP3   OH249890   0.143   6.384  16.709 -0.2036 -0.3878 -0.0028
 9492TIP3    H149891   0.174   6.335  16.632  1.0833  0.9223 -0.3551
 9492TIP3    H249892   0.092   6.456  16.672 -1.2752 -0.8759  0.4780
 9493TIP3   OH249893   4.543   1.110   4.704  0.1397 -0.0789 -0.3058
 9493TIP3    H149894   4.622   1.162   4.688  0.5891 -0.4523  0.6243
 9493TIP3    H249895   4.492   1.118   4.623  0.2352  1.7114 -0.2187
 9494TIP3   OH249896   1.632   0.107   4.632  0.5206  0.3339  0.1853
 9494TIP3    H149897   1.635   0.024   4.586 -0.8955  0.5243 -0.2954
 9494TIP3    H249898   1.607   0.084   4.722  0.0393  0.2372  0.0308
 9495TIP3   OH249899   2.757   2.628   1.054 -0.3238 -0.4404  0.8110
 9495TIP3    H149900   2.828   2.687   1.080 -1.3739  0.7683  0.9947
 9495TIP3    H249901   2.778   2.605   0.963 -0.4700  1.1279  0.3507
 9496TIP3   OH249902   3.901   0.310  16.029  0.4309 -0.7015  0.9117
 9496TIP3    H149903   3.948   0.303  15.945 -0.8472 -1.1864  0.2067
 9496TIP3    H249904   3.901   0.220  16.063  0.4843 -0.6032  1.1670
 9497TIP3   OH249905   1.456   1.100   1.699  0.3457  0.1091  0.4735
 9497TIP3    H149906   1.445   1.029   1.636  2.6929 -0.9116  1.1316
 9497TIP3    H249907   1.428   1.178   1.651 -0.1175 -0.9354 -1.0439
 9498TIP3   OH249908   0.745   5.775   4.221  0.1922 -0.1950 -0.7161
 9498TIP3    H149909   0.793   5.841   4.170  0.4729  1.7746  1.8918
 9498TIP3    H249910   0.653   5.799   4.211  0.1982 -0.2336 -0.8628
 9499TIP3   OH249911   5.962   4.726  11.603 -0.1016 -0.2698  0.1337
 9499TIP3    H149912   6.008   4.807  11.625  0.0794 -0.4335  0.3512
 9499TIP3    H249913   6.030   4.658  11.602 -0.4458 -0.6566  1.2400
 9500TIP3   OH249914   0.634   4.924   1.695 -0.1942  0.1534 -0.0817
 9500TIP3    H149915   0.663   4.986   1.629  0.0111 -0.0681 -0.2031
 9500TIP3    H249916   0.692   4.938   1.769  0.4884 -0.5614 -0.4709
 9501TIP3   OH249917   0.673   6.744   6.216  0.1358 -0.4602 -0.0315
 9501TIP3    H149918   0.692   6.732   6.123 -0.5679  0.5838 -0.3299
 9501TIP3    H249919   0.601   6.684   6.234  0.4999 -0.9155 -0.0659
 9502TIP3   OH249920   3.212   3.979  15.371  0.4464 -0.2163 -0.3845
 9502TIP3    H149921   3.134   3.999  15.424  0.2695  3.4587 -1.7013
 9502TIP3    H249922   3.206   3.886  15.353 -1.2786 -0.9532  3.1638
 9503TIP3   OH249923   1.715   1.970   0.499 -0.5915  0.9023 -0.4072
 9503TIP3    H149924   1.751   1.883   0.513 -1.5788 -0.0295 -2.9705
 9503TIP3    H249925   1.792   2.028   0.500  0.0729  0.0756  1.3728
 9504TIP3   OH249926   0.316   6.087  11.438  0.1400 -0.0275 -0.5367
 9504TIP3    H149927   0.254   6.151  11.402 -1.3020 -0.4896  0.9716
 9504TIP3    H249928   0.264   6.035  11.499  1.7008 -1.4549 -0.3398
 9505TIP3   OH249929   3.606   3.869   6.058  0.3938 -0.6808  0.2958
 9505TIP3    H149930   3.694   3.863   6.021  0.8092  0.9111  0.9491
 9505TIP3    H249931   3.621   3.879   6.152 -0.4932 -0.6274  0.4370
 9506TIP3   OH249932   6.114   4.273   3.289  0.6548 -0.7818 -0.3998
 9506TIP3    H149933   6.164   4.207   3.239  2.5112 -0.4582  0.9307
 9506TIP3    H249934   6.179   4.338   3.314 -1.0403  1.3050 -1.1738
 9507TIP3   OH249935   4.128   5.503  13.389  0.0126 -0.4925 -0.6437
 9507TIP3    H149936   4.117   5.591  13.426  0.5588  0.0857 -1.8272
 9507TIP3    H249937   4.164   5.452  13.462 -0.9277  0.0792  0.2549
 9508TIP3   OH249938   0.785   1.025  14.354 -0.0122 -0.3446 -0.1827
 9508TIP3    H149939   0.692   1.050  14.357 -0.1646 -0.7390 -1.2115
 9508TIP3    H249940   0.790   0.959  14.285  0.9003 -0.9530  0.4352
 9509TIP3   OH249941   1.091   5.122   3.984  0.1700 -0.4902  0.1564
 9509TIP3    H149942   1.046   5.043   3.957 -1.1541  1.0638 -2.7107
 9509TIP3    H249943   1.022   5.188   3.991  1.2813  0.5613  1.9900
 9510TIP3   OH249944   4.120   5.011   4.384  0.3371 -0.2003 -0.6069
 9510TIP3    H149945   4.173   5.091   4.391 -1.0551  0.6805  0.6152
 9510TIP3    H249946   4.134   4.965   4.466 -0.0185 -0.4602 -0.6857
 9511TIP3   OH249947   0.863   4.981   1.877  0.5376 -0.0387 -0.2956
 9511TIP3    H149948   0.922   5.031   1.821  2.5981 -1.6836  0.2887
 9511TIP3    H249949   0.911   4.901   1.899 -1.0687 -0.5152  1.9539
 9512TIP3   OH249950   2.953   6.608   3.824  0.2899  0.4960 -0.0451
 9512TIP3    H149951   2.879   6.657   3.860  1.0485  1.0085  0.8579
 9512TIP3    H249952   2.917   6.523   3.801 -0.3391  0.3521  1.3987
 9513TIP3   OH249953   2.090   4.241   5.010 -0.3719  0.1294 -0.2673
 9513TIP3    H149954   2.020   4.198   5.059  1.4913 -2.5948  0.1703
 9513TIP3    H249955   2.104   4.185   4.934  1.5282  0.4462 -0.1909
 9514TIP3   OH249956   5.875   5.259  11.253 -0.0122 -0.2872  0.2287
 9514TIP3    H149957   5.844   5.202  11.323  1.1566 -0.6539  0.4772
 9514TIP3    H249958   5.965   5.281  11.278 -0.3008  1.3740 -0.0535
 9515TIP3   OH249959   0.050   2.359  12.513 -0.9992  0.7550  0.1054
 9515TIP3    H149960  -0.013   2.429  12.530 -1.2798  0.9989 -1.6618
 9515TIP3    H249961   0.040   2.341  12.419  1.8591  1.0997 -0.3643
 9516TIP3   OH249962   2.972   3.875  15.033 -0.5498 -0.2303 -0.7387
 9516TIP3    H149963   2.981   3.780  15.030  0.7891 -0.2888  1.9845
 9516TIP3    H249964   2.946   3.894  15.123 -2.4228  1.9266 -1.6321
 9517TIP3   OH249965   3.313   0.276  12.476 -0.2525  0.2957  0.3655
 9517TIP3    H149966   3.372   0.343  12.441  0.3591 -0.2732  0.2934
 9517TIP3    H249967   3.261   0.248  12.401  0.4429 -0.2853  0.0841
 9518TIP3   OH249968   4.784   2.689   1.725  0.2166 -0.2536  0.2629
 9518TIP3    H149969   4.835   2.637   1.787 -1.4258  0.1448  2.0291
 9518TIP3    H249970   4.793   2.779   1.756  0.6004  0.1740 -1.0137
 9519TIP3   OH249971   1.543   1.727  15.849  0.1481  0.4347 -0.3635
 9519TIP3    H149972   1.588   1.643  15.864  0.2021  0.5278 -0.0027
 9519TIP3    H249973   1.530   1.730  15.755  3.3786  1.6552 -0.9317
 9520TIP3   OH249974   2.245   1.747  12.871  0.0134  0.4444  0.4218
 9520TIP3    H149975   2.289   1.719  12.791 -1.2803 -0.3722 -0.0286
 9520TIP3    H249976   2.304   1.720  12.942  1.0013  0.8584 -0.2126
 9521TIP3   OH249977   3.285   5.018  12.221  0.5824 -0.3617 -0.6729
 9521TIP3    H149978   3.236   5.093  12.255 -0.3923 -1.8978  1.5330
 9521TIP3    H249979   3.226   4.978  12.158  0.4789 -0.1422 -0.7174
 9522TIP3   OH249980   4.484   3.989   3.427  0.4176 -0.0634  0.2229
 9522TIP3    H149981   4.441   3.921   3.479  0.5966 -0.0263  0.4217
 9522TIP3    H249982   4.419   4.015   3.362 -1.2648  2.5111  2.6930
 9523TIP3   OH249983   4.275   0.463   3.674 -0.4486  0.2579  0.2645
 9523TIP3    H149984   4.253   0.373   3.700  2.2154 -0.2801  1.0375
 9523TIP3    H249985   4.247   0.517   3.748  1.5663 -0.5209  1.6949
 9524TIP3   OH249986   1.673   0.329  12.252 -0.5967  0.3161  0.4299
 9524TIP3    H149987   1.683   0.320  12.346  0.6719 -0.5508  0.2418
 9524TIP3    H249988   1.752   0.289  12.215 -1.5893 -0.4029 -1.0379
 9525TIP3   OH249989   1.919   2.734   3.055  0.5734  0.1856 -0.8828
 9525TIP3    H149990   1.980   2.801   3.024  1.9215 -0.6028 -0.0353
 9525TIP3    H249991   1.974   2.657   3.069 -1.1226 -1.5461 -3.0690
 9526TIP3   OH249992   0.758   6.507   5.389 -0.3141  0.2740  0.0158
 9526TIP3    H149993   0.749   6.437   5.323 -1.3210 -1.7548  2.1477
 9526TIP3    H249994   0.853   6.514   5.403 -0.1907 -0.8730 -0.0904
 9527TIP3   OH249995   2.701   3.912   5.361  0.3719 -0.3113  0.2992
 9527TIP3    H149996   2.788   3.873   5.374  0.9620  1.0658  0.5944
 9527TIP3    H249997   2.686   3.906   5.267  0.1823 -1.7703  0.3962
 9528TIP3   OH249998   2.460   4.362  17.132 -0.5291  0.4071  0.0298
 9528TIP3    H149999   2.377   4.371  17.086 -0.3331  0.0520 -0.3913
 9528TIP3    H250000   2.521   4.332  17.066 -0.0342  0.7762  0.3151
 9529TIP3   OH250001   0.880   5.851   5.206 -0.2600 -0.0649 -0.5371
 9529TIP3    H150002   0.831   5.895   5.137  0.9507  0.6658 -0.9543
 9529TIP3    H250003   0.842   5.884   5.287  0.3002  1.4266 -0.8473
 9530TIP3   OH250004   4.793   0.445   2.459 -1.0753 -0.0316 -0.5940
 9530TIP3    H150005   4.796   0.352   2.482 -1.2254 -0.1347 -0.9785
 9530TIP3    H250006   4.882   0.477   2.474 -1.0294 -0.2355 -0.4407
 9531TIP3   OH250007   5.130   3.253  12.190 -0.0740 -0.0700 -0.4476
 9531TIP3    H150008   5.057   3.210  12.145 -1.1570  1.2867 -0.0420
 9531TIP3    H250009   5.208   3.211  12.153 -1.0101 -0.7960 -1.7014
 9532TIP3   OH250010   5.660   4.594   4.574 -0.1232  0.1290 -0.1655
 9532TIP3    H150011   5.671   4.499   4.582 -0.2579  0.1179 -0.1022
 9532TIP3    H250012   5.747   4.630   4.589 -0.0621  0.0117 -0.2397
 9533TIP3   OH250013   2.517   2.536  11.314  0.2628 -0.0047 -0.3951
 9533TIP3    H150014   2.515   2.571  11.225 -2.8327  3.1173  0.6916
 9533TIP3    H250015   2.569   2.599  11.364  0.9842 -1.1048  0.3095
 9534TIP3   OH250016   2.535   4.181  13.348 -0.6214  0.0947  0.4864
 9534TIP3    H150017   2.626   4.204  13.330  0.1997 -2.2634  1.2231
 9534TIP3    H250018   2.534   4.085  13.348 -2.9427  0.0483  1.3119
 9535TIP3   OH250019   5.210   2.898  14.585  0.0458 -0.5210  0.0378
 9535TIP3    H150020   5.122   2.924  14.556 -0.2778 -0.2559  1.2112
 9535TIP3    H250021   5.230   2.820  14.533 -0.1717  0.3679 -1.4454
 9536TIP3   OH250022   1.048   0.623   4.077 -0.4404  0.4800  0.8841
 9536TIP3    H150023   1.089   0.659   3.998 -2.3525  1.3316  0.2279
 9536TIP3    H250024   0.974   0.571   4.045  0.5139 -1.7115  1.9913
 9537TIP3   OH250025   2.364   5.418  11.659  0.0027 -0.0748  0.2699
 9537TIP3    H150026   2.273   5.388  11.654  0.7555 -2.8428  1.3361
 9537TIP3    H250027   2.403   5.387  11.578  0.7993 -2.2167  1.3975
 9538TIP3   OH250028   5.115   0.257  15.406  0.3032 -0.1965 -0.7737
 9538TIP3    H150029   5.024   0.257  15.375  0.6671  2.5041 -2.0923
 9538TIP3    H250030   5.168   0.255  15.327  1.3588  0.6169 -0.1162
 9539TIP3   OH250031   0.065   3.857  14.661 -0.8505 -0.5224  0.4756
 9539TIP3    H150032   0.102   3.926  14.606 -3.1272 -0.2433 -0.8431
 9539TIP3    H250033   0.125   3.783  14.651  2.2548  1.4674  2.7839
 9540TIP3   OH250034   0.307   5.451  11.795 -0.2440  0.2623 -0.0138
 9540TIP3    H150035   0.402   5.447  11.800 -0.1471  1.1291 -0.8018
 9540TIP3    H250036   0.289   5.488  11.708 -1.2264  2.2558  0.9656
 9541TIP3   OH250037   2.676   0.423   2.336  0.5652 -0.1415  0.5604
 9541TIP3    H150038   2.651   0.369   2.411  0.3700 -0.4409  0.2785
 9541TIP3    H250039   2.758   0.464   2.364  0.8288 -0.7452  0.6990
 9542TIP3   OH250040   1.364   6.106   6.032  0.0755  0.2966  0.1424
 9542TIP3    H150041   1.308   6.050   6.086 -1.1071  0.3070 -1.0200
 9542TIP3    H250042   1.303   6.150   5.972  1.1600  1.6246 -0.0257
 9543TIP3   OH250043   0.634   2.382   3.299 -0.1452  0.2424  0.1707
 9543TIP3    H150044   0.671   2.299   3.329  2.1109  1.4780  1.0286
 9543TIP3    H250045   0.583   2.359   3.222  2.4224 -1.6376 -1.1000
 9544TIP3   OH250046   0.224   3.232   1.477  0.1483  0.0933  0.0015
 9544TIP3    H150047   0.237   3.137   1.480 -1.1225 -0.1147 -0.3976
 9544TIP3    H250048   0.309   3.266   1.451  1.2682 -0.7260  2.3044
 9545TIP3   OH250049   3.083   5.141   3.624  0.5082  0.0424  0.0373
 9545TIP3    H150050   3.016   5.127   3.691  1.3219  1.3092  1.1761
 9545TIP3    H250051   3.045   5.104   3.544 -2.0023  1.5722  0.3875
 9546TIP3   OH250052   4.839   6.614  14.224 -0.0791 -0.2233  0.0593
 9546TIP3    H150053   4.874   6.525  14.231  2.0987  0.5467 -0.2698
 9546TIP3    H250054   4.916   6.670  14.232 -1.1771  1.5740 -1.3822
 9547TIP3   OH250055   2.780   4.034   3.189  0.1368  1.1021  0.3005
 9547TIP3    H150056   2.769   3.939   3.186 -0.0797  1.1081  0.7881
 9547TIP3    H250057   2.875   4.048   3.182  0.2588  0.7988  1.1527
 9548TIP3   OH250058   3.253   1.312  16.916  0.0000 -0.1620 -0.5774
 9548TIP3    H150059   3.265   1.251  16.844 -2.4539  0.3286 -1.5058
 9548TIP3    H250060   3.182   1.370  16.887  1.0916  2.1031  0.9375
 9549TIP3   OH250061   2.069   1.726  14.883 -0.2880 -0.4260 -0.5469
 9549TIP3    H150062   1.988   1.774  14.902 -0.5028 -0.9785 -0.0485
 9549TIP3    H250063   2.059   1.643  14.929  0.3389 -0.7118 -0.9186
 9550TIP3   OH250064   2.057   4.417   5.395  0.6710  0.2997  0.2253
 9550TIP3    H150065   2.078   4.510   5.388 -0.6451  0.5883 -0.1016
 9550TIP3    H250066   2.113   4.375   5.330  0.5060  0.9872 -0.3729
 9551TIP3   OH250067   3.077   3.727   0.105  0.1767 -0.1270 -0.0822
 9551TIP3    H150068   3.052   3.819   0.114 -1.1612 -0.4964  0.2100
 9551TIP3    H250069   3.076   3.711   0.010  0.3624  0.1570 -0.1302
 9552TIP3   OH250070   2.041   4.342  15.721  0.8136  0.5071 -0.4459
 9552TIP3    H150071   2.076   4.328  15.809  1.4297 -2.2204 -1.0247
 9552TIP3    H250072   2.103   4.401  15.680  2.2845 -0.6424  0.0235
 9553TIP3   OH250073   3.354   4.279  15.356 -0.3395  0.2251 -0.3461
 9553TIP3    H150074   3.422   4.241  15.301 -0.9895 -0.0262 -1.0059
 9553TIP3    H250075   3.375   4.251  15.445 -0.1935 -0.7638 -0.6842
 9554TIP3   OH250076   3.047   5.014  16.296 -0.1417  0.3445 -0.2061
 9554TIP3    H150077   3.018   5.060  16.218  0.6456  0.7352 -0.2768
 9554TIP3    H250078   3.036   4.922  16.275 -0.7681  0.4678 -0.4437
 9555TIP3   OH250079   0.849   1.627   2.268  0.5461 -0.8543  0.0275
 9555TIP3    H150080   0.845   1.601   2.361  0.2391  0.9292  0.5369
 9555TIP3    H250081   0.899   1.708   2.268  0.2180 -0.6389 -1.3425
 9556TIP3   OH250082   3.290   5.430  13.218  0.0334 -0.4966 -0.0213
 9556TIP3    H150083   3.289   5.462  13.128  2.4992 -0.2813 -0.0398
 9556TIP3    H250084   3.198   5.411  13.238 -0.8909  1.6344 -1.7798
 9557TIP3   OH250085   2.485   5.344  14.468  0.1444  0.1014  0.3664
 9557TIP3    H150086   2.505   5.253  14.446 -0.1139 -0.3267  1.8276
 9557TIP3    H250087   2.418   5.339  14.536 -2.8775  1.4683 -2.2432
 9558TIP3   OH250088   4.625   4.631   5.965  0.7754 -0.6062  0.0543
 9558TIP3    H150089   4.579   4.704   6.006  1.4262  0.8329 -1.6262
 9558TIP3    H250090   4.657   4.578   6.038  1.9551  1.8331  1.4356
 9559TIP3   OH250091   2.979   3.611   3.758  0.5407 -0.1665 -0.1506
 9559TIP3    H150092   3.068   3.642   3.744  0.4591 -0.2320 -0.8464
 9559TIP3    H250093   2.989   3.519   3.783  0.6799 -0.1083  0.0094
 9560TIP3   OH250094   6.258   1.312  11.715  0.1473 -0.4583  0.2394
 9560TIP3    H150095   6.274   1.303  11.621  2.8875 -1.3519  0.6908
 9560TIP3    H250096   6.323   1.377  11.744 -0.0643 -0.8344  1.6474
 9561TIP3   OH250097   3.925   0.517  12.857  0.3014  0.5766 -0.6053
 9561TIP3    H150098   3.888   0.566  12.930  0.7098  2.0418 -1.3290
 9561TIP3    H250099   3.911   0.574  12.781  1.8368  0.0860 -1.2934
 9562TIP3   OH250100   2.059   6.749  17.262 -0.4238 -0.4678 -0.3368
 9562TIP3    H150101   2.026   6.671  17.308 -0.7933 -1.2788 -1.9059
 9562TIP3    H250102   2.154   6.747  17.278 -0.6751 -0.0045  1.4175
 9563TIP3   OH250103   3.943   2.070   4.075 -0.3065 -0.1131 -0.4856
 9563TIP3    H150104   3.879   2.070   4.003 -0.1853 -1.2834 -0.6093
 9563TIP3    H250105   3.921   2.149   4.125 -0.4272  0.7088 -1.7587
 9564TIP3   OH250106   6.237   2.188  14.317  0.0525  0.4057 -0.1762
 9564TIP3    H150107   6.213   2.262  14.373  0.2355 -0.7289  1.4607
 9564TIP3    H250108   6.160   2.176  14.261 -0.5916  0.8825  0.5790
 9565TIP3   OH250109   6.474   0.872   1.783 -0.5216  0.1484 -0.1607
 9565TIP3    H150110   6.502   0.797   1.731 -0.8270 -1.3465  1.7413
 9565TIP3    H250111   6.378   0.869   1.780 -0.6517 -1.4912  2.4130
 9566TIP3   OH250112   0.348   4.710  12.409  1.1611 -1.0068 -0.8295
 9566TIP3    H150113   0.279   4.746  12.464  1.2579 -1.0328 -0.6903
 9566TIP3    H250114   0.341   4.758  12.327  1.0341 -0.9474 -0.7850
 9567TIP3   OH250115   1.256   2.015  15.901  0.6483 -0.8070  0.4396
 9567TIP3    H150116   1.347   1.989  15.883  1.0522 -0.7159  2.1821
 9567TIP3    H250117   1.239   1.981  15.989 -0.3222  0.9431  0.9657
 9568TIP3   OH250118   0.709   2.136  10.072  0.0097 -0.1866  0.1016
 9568TIP3    H150119   0.753   2.130  10.157 -0.7193 -3.0738  0.3967
 9568TIP3    H250120   0.769   2.093  10.011 -1.3982 -2.3510  0.1333
 9569TIP3   OH250121   0.629   5.328  11.505  0.1797 -0.0872  0.2847
 9569TIP3    H150122   0.588   5.329  11.419  2.3213  1.0155 -0.7937
 9569TIP3    H250123   0.699   5.263  11.498 -0.2592 -0.7480  1.5591
 9570TIP3   OH250124   4.570   3.397   5.770 -0.2681 -0.0131 -0.2290
 9570TIP3    H150125   4.523   3.432   5.694  1.8083  0.1566 -1.5521
 9570TIP3    H250126   4.504   3.386   5.837 -1.9848  1.0911 -1.6442
 9571TIP3   OH250127   5.311   4.100   6.910 -0.6159  0.3936 -0.5860
 9571TIP3    H150128   5.229   4.082   6.958  0.0831 -1.3286  0.0670
 9571TIP3    H250129   5.347   4.013   6.892  2.0349  1.0958  0.8319
 9572TIP3   OH250130   3.719   0.702   6.049 -0.1670 -0.1877 -0.4569
 9572TIP3    H150131   3.735   0.607   6.047 -0.5622 -0.2472 -0.9854
 9572TIP3    H250132   3.628   0.710   6.080  0.2304  0.0742  0.7101
 9573TIP3   OH250133   2.982   1.882   0.463 -0.2544  0.2110 -0.1034
 9573TIP3    H150134   3.049   1.830   0.507  0.7550  2.0511  0.6749
 9573TIP3    H250135   3.017   1.894   0.374 -0.3914 -0.2535 -0.2223
 9574TIP3   OH250136   4.487   4.348  15.529  0.0957 -0.1341 -0.2171
 9574TIP3    H150137   4.407   4.384  15.493 -0.0234  0.5324  0.6775
 9574TIP3    H250138   4.554   4.414  15.513 -0.0724  0.4319  1.2030
 9575TIP3   OH250139   0.661   3.123   4.309 -0.6109  0.3878 -0.4807
 9575TIP3    H150140   0.596   3.058   4.280  0.2788 -0.3313 -0.9236
 9575TIP3    H250141   0.673   3.181   4.234  0.3835 -0.4140 -0.9695
 9576TIP3   OH250142   2.738   5.370   1.558  0.4594 -0.1710  0.2053
 9576TIP3    H150143   2.828   5.338   1.561  0.1402 -1.3714 -1.5078
 9576TIP3    H250144   2.685   5.293   1.578 -0.2156  0.4578  0.9117
 9577TIP3   OH250145   2.132   1.840   4.625 -0.3540 -0.2945  0.0059
 9577TIP3    H150146   2.164   1.912   4.680  1.1429  0.2970 -1.5634
 9577TIP3    H250147   2.144   1.762   4.679  0.1398  0.3653  0.8902
 9578TIP3   OH250148   3.689   3.824  13.261  0.0731  0.3914  0.1442
 9578TIP3    H150149   3.610   3.793  13.217  2.0647 -1.9008 -2.1611
 9578TIP3    H250150   3.700   3.914  13.231 -1.7276  0.8420  0.7299
 9579TIP3   OH250151   4.814   3.072   4.781 -0.5074  0.6295  0.2107
 9579TIP3    H150152   4.821   3.167   4.788 -1.3383  0.6731  0.5459
 9579TIP3    H250153   4.868   3.039   4.853  0.0353  0.8320 -0.0960
 9580TIP3   OH250154   3.782   3.156  14.752  0.0807 -0.4806 -0.1406
 9580TIP3    H150155   3.772   3.192  14.664 -0.9677  2.5865  1.1081
 9580TIP3    H250156   3.706   3.100  14.765 -1.2696  1.2810 -0.2364
 9581TIP3   OH250157   4.802   0.159   4.693  0.3407  0.5613  0.1770
 9581TIP3    H150158   4.741   0.110   4.749  0.0680  0.3281 -0.3184
 9581TIP3    H250159   4.790   0.121   4.606 -0.9200  2.4579 -0.5295
 9582TIP3   OH250160   4.926   0.605   4.758  0.0697  0.7062 -0.2092
 9582TIP3    H150161   4.893   0.680   4.808 -1.2485  0.1789 -0.2656
 9582TIP3    H250162   4.880   0.530   4.794 -0.7138  0.2690 -2.0068
 9583TIP3   OH250163   1.805   4.518  13.385  0.2559  0.0539 -0.0698
 9583TIP3    H150164   1.868   4.488  13.319 -0.8937  1.1703 -1.7349
 9583TIP3    H250165   1.817   4.613  13.388 -1.6409  0.3401 -0.7518
 9584TIP3   OH250166   6.703   2.606  17.282  0.3037  0.6201  0.2024
 9584TIP3    H150167   6.718   2.653  17.364  1.3581  1.0068 -0.1973
 9584TIP3    H250168   6.666   2.672  17.223 -0.7002  0.2786  0.4343
 9585TIP3   OH250169   0.614   5.414  12.195 -0.3884 -0.6522  0.0546
 9585TIP3    H150170   0.548   5.360  12.151 -0.6527 -0.1411 -0.1770
 9585TIP3    H250171   0.664   5.453  12.123  0.4953 -1.4258  0.2270
 9586TIP3   OH250172   2.507   4.585   1.064 -0.9312  0.3503 -0.8404
 9586TIP3    H150173   2.527   4.615   1.152 -0.3625  2.0932 -1.5254
 9586TIP3    H250174   2.574   4.520   1.045  0.2942  1.5369 -0.7594
 9587TIP3   OH250175   2.515   1.843   5.964 -0.2025  0.4308  0.1941
 9587TIP3    H150176   2.586   1.895   6.000 -0.3920 -1.4120  3.6313
 9587TIP3    H250177   2.435   1.887   5.992 -0.3816  0.0511  0.2937
 9588TIP3   OH250178   4.088   3.065  13.895 -0.1097 -0.7056  0.4102
 9588TIP3    H150179   4.138   3.141  13.864  0.1325  0.1322  2.6281
 9588TIP3    H250180   4.033   3.040  13.821  0.8833  0.7068 -0.8707
 9589TIP3   OH250181   1.155   5.737   4.141 -0.3656 -0.1688 -0.4213
 9589TIP3    H150182   1.237   5.689   4.127  0.7495  1.4846  0.0885
 9589TIP3    H250183   1.178   5.828   4.121 -0.9870  1.0052  3.5077
 9590TIP3   OH250184   1.687   4.413  11.539  0.3747  0.1383  0.0018
 9590TIP3    H150185   1.673   4.327  11.580  0.3987 -0.1522 -0.5850
 9590TIP3    H250186   1.673   4.397  11.446 -0.1787  0.8988 -0.0522
 9591TIP3   OH250187   2.706   2.702  11.389  0.3562 -0.4149  0.0850
 9591TIP3    H150188   2.738   2.697  11.299  0.5335 -0.3036  0.1396
 9591TIP3    H250189   2.671   2.791  11.397  2.8504  0.5701  0.9292
 9592TIP3   OH250190   1.676   4.101  14.414  0.3936 -0.5490 -0.1349
 9592TIP3    H150191   1.638   4.049  14.342  0.3728  0.6188 -0.9905
 9592TIP3    H250192   1.608   4.164  14.436  1.1315  0.3876 -0.4558
 9593TIP3   OH250193   0.664   5.853  16.851 -0.6128 -0.0927 -0.3325
 9593TIP3    H150194   0.702   5.930  16.893  0.1586 -1.0648  0.8120
 9593TIP3    H250195   0.708   5.847  16.766 -1.2473  1.1578 -0.7641
 9594TIP3   OH250196   2.427   4.217  11.186 -0.2506  0.2012 -0.1506
 9594TIP3    H150197   2.471   4.233  11.269 -0.6199  0.1123  0.0662
 9594TIP3    H250198   2.342   4.180  11.211  0.7679 -2.7237 -0.6188
 9595TIP3   OH250199   2.985   5.916   0.594 -0.5665  0.0826  0.4002
 9595TIP3    H150200   3.037   5.846   0.633 -1.2768 -0.7981 -0.1924
 9595TIP3    H250201   3.037   5.995   0.609  1.6370 -0.9180 -1.3429
 9596TIP3   OH250202   2.616   0.355  12.796 -0.0794  0.2916  0.0746
 9596TIP3    H150203   2.631   0.303  12.875 -2.1457 -0.4156  0.0764
 9596TIP3    H250204   2.616   0.446  12.827  0.6615  0.1273  0.5961
 9597TIP3   OH250205   4.429   6.093  16.226  0.0272  0.2963  0.3178
 9597TIP3    H150206   4.462   6.117  16.139 -0.7214  0.4808  0.0823
 9597TIP3    H250207   4.498   6.038  16.263  0.4967  0.4812 -0.2630
 9598TIP3   OH250208   4.621   6.134   5.968 -0.2339  0.6971 -0.3594
 9598TIP3    H150209   4.579   6.138   5.882 -0.3082  1.2727 -0.3004
 9598TIP3    H250210   4.585   6.055   6.009 -0.0224  0.2842 -0.9464
 9599TIP3   OH250211   5.149   3.598  11.474 -0.6125  0.1538 -0.0020
 9599TIP3    H150212   5.152   3.566  11.564  0.9482  1.0501  0.3009
 9599TIP3    H250213   5.136   3.520  11.420  0.2566 -0.6227  0.8863
 9600TIP3   OH250214   2.472   5.331  16.506 -0.5417 -0.1179  0.1623
 9600TIP3    H150215   2.406   5.266  16.529 -0.4429  0.0456  0.9498
 9600TIP3    H250216   2.421   5.408  16.479 -0.6955  0.0795  0.9699
 9601TIP3   OH250217   2.807   4.964  15.614  0.1579 -0.2077 -0.0344
 9601TIP3    H150218   2.826   4.870  15.623 -1.0910 -0.4450  0.2928
 9601TIP3    H250219   2.836   4.985  15.525  0.5491 -0.8733 -0.0777
 9602TIP3   OH250220   4.182   0.578   6.058  0.7308  0.1212  0.0669
 9602TIP3    H150221   4.221   0.563   6.144 -0.8648  1.2060  1.0167
 9602TIP3    H250222   4.157   0.491   6.027  0.3485 -0.1758  1.1796
 9603TIP3   OH250223   5.221   6.087   5.778 -0.0891 -0.3286  0.0075
 9603TIP3    H150224   5.300   6.126   5.816  0.0511 -0.2037 -0.4137
 9603TIP3    H250225   5.195   6.021   5.842  0.9541 -1.0991 -0.3242
 9604TIP3   OH250226   3.897   3.661   6.211 -0.1047 -0.3949  0.4365
 9604TIP3    H150227   3.884   3.578   6.257 -1.2903 -2.5649 -3.4323
 9604TIP3    H250228   3.827   3.718   6.244  0.7005 -0.7977  3.1232
 9605TIP3   OH250229   6.572   4.891  16.323 -0.0503  0.4113 -0.3599
 9605TIP3    H150230   6.611   4.928  16.402  0.6398  1.0004 -0.9679
 9605TIP3    H250231   6.644   4.847  16.279 -0.2004  0.9819 -1.1839
 9606TIP3   OH250232   1.653   4.379  15.759 -0.4761  0.4529  0.0193
 9606TIP3    H150233   1.576   4.433  15.777 -0.0800  0.5755  1.4760
 9606TIP3    H250234   1.620   4.290  15.751 -0.7845  0.5281  0.4648
 9607TIP3   OH250235   5.808   6.391   0.017  0.5267  0.4611  0.1556
 9607TIP3    H150236   5.875   6.383   0.085 -0.5536 -0.8410  1.1259
 9607TIP3    H250237   5.799   6.486   0.003  0.3121  0.8099  2.3433
 9608TIP3   OH250238   3.718   1.652  16.254 -0.2691 -0.0956 -0.0860
 9608TIP3    H150239   3.706   1.728  16.198 -1.5787  1.1648  1.8116
 9608TIP3    H250240   3.677   1.580  16.206  1.1465  0.2662 -1.9920
 9609TIP3   OH250241   5.334   4.251   1.603 -0.1367  0.0419 -1.1436
 9609TIP3    H150242   5.324   4.180   1.667  0.6446  0.5475 -0.4356
 9609TIP3    H250243   5.427   4.251   1.582 -0.2360  0.4723 -1.5984
 9610TIP3   OH250244   1.421   5.254   3.435  0.2194 -0.0291  0.1636
 9610TIP3    H150245   1.416   5.345   3.462 -3.0295  0.0869 -0.4541
 9610TIP3    H250246   1.422   5.205   3.518 -0.3125  0.5445  0.5204
 9611TIP3   OH250247   4.743   2.088  11.408 -0.5100  0.0922 -0.4263
 9611TIP3    H150248   4.835   2.065  11.417 -0.0424  1.4212 -1.5541
 9611TIP3    H250249   4.742   2.183  11.400 -2.0346  0.1484  0.1355
 9612TIP3   OH250250   5.529   3.355  13.597  0.4899 -0.4064 -0.6738
 9612TIP3    H150251   5.505   3.268  13.564 -0.7592 -0.5429  0.4931
 9612TIP3    H250252   5.570   3.338  13.682 -1.8026  0.1784  0.6561
 9613TIP3   OH250253   3.595   6.230  12.845  0.3054  0.3453  0.5899
 9613TIP3    H150254   3.638   6.197  12.767 -0.9374  1.4538 -0.6218
 9613TIP3    H250255   3.592   6.325  12.833 -2.0400  0.3601  0.7759
 9614TIP3   OH250256   1.681   6.504  14.935  0.4766  0.0554  0.5287
 9614TIP3    H150257   1.595   6.546  14.933 -0.1161 -1.0556  1.5335
 9614TIP3    H250258   1.705   6.494  14.843 -0.8658 -0.3948  0.2028
 9615TIP3   OH250259   3.350   4.806   5.134 -0.3765  0.0828  0.4566
 9615TIP3    H150260   3.294   4.864   5.186 -0.7315  1.0137 -0.9005
 9615TIP3    H250261   3.345   4.842   5.045  0.1957 -1.4514 -0.2294
 9616TIP3   OH250262   6.724   2.893   0.940 -0.3083 -0.0763 -0.0144
 9616TIP3    H150263   6.769   2.935   1.013 -0.1113  0.6888 -0.5709
 9616TIP3    H250264   6.711   2.802   0.969 -0.5283  0.2955  1.0981
 9617TIP3   OH250265   4.517   5.761  16.088  0.2066 -0.0783  0.6345
 9617TIP3    H150266   4.566   5.843  16.083 -0.3274  0.1917 -0.7471
 9617TIP3    H250267   4.425   5.788  16.081  0.0643 -0.8263 -0.9896
 9618TIP3   OH250268   4.027   0.756   1.897 -0.1842 -0.1991  0.7049
 9618TIP3    H150269   4.025   0.738   1.991 -2.7119 -1.3645  0.5115
 9618TIP3    H250270   4.060   0.675   1.858  0.8126  0.2658  0.5322
 9619TIP3   OH250271   2.234   5.114  16.260 -0.4427  0.2585  0.0936
 9619TIP3    H150272   2.273   5.090  16.344 -0.6422 -2.3971 -0.4735
 9619TIP3    H250273   2.163   5.174  16.283 -3.1472 -3.4010  2.4005
 9620TIP3   OH250274   4.268   5.706  17.428 -0.2241  0.4184 -0.3902
 9620TIP3    H150275   4.348   5.664  17.398 -0.4410 -0.2424 -0.0804
 9620TIP3    H250276   4.252   5.776  17.365 -0.0986 -0.2563 -1.1974
 9621TIP3   OH250277   2.903   1.714  11.708 -0.0881 -0.8505  0.0500
 9621TIP3    H150278   2.818   1.677  11.733 -0.9011  0.6475 -0.3646
 9621TIP3    H250279   2.914   1.687  11.616 -0.4753 -0.4397 -0.1212
 9622TIP3   OH250280   5.322   2.213   5.579  0.1321  0.2470  0.2988
 9622TIP3    H150281   5.323   2.153   5.654 -1.7119 -3.0966 -2.0997
 9622TIP3    H250282   5.256   2.278   5.602  0.3506 -0.0832  1.9866
 9623TIP3   OH250283   3.333   1.509  11.217  0.0735  0.2120  0.0419
 9623TIP3    H150284   3.355   1.422  11.250 -3.1847 -1.0267 -0.6472
 9623TIP3    H250285   3.244   1.526  11.251  0.3489  3.0299 -0.3429
 9624TIP3   OH250286   4.569   0.705  16.682 -0.1979  0.0529  0.0291
 9624TIP3    H150287   4.636   0.718  16.749  0.6060 -0.2690 -0.6905
 9624TIP3    H250288   4.579   0.780  16.624  0.7215 -0.8386 -1.0299
 9625TIP3   OH250289   4.581   5.212   0.495 -0.0158 -0.1692 -0.1540
 9625TIP3    H150290   4.667   5.252   0.486  1.0637 -2.1537  0.6677
 9625TIP3    H250291   4.582   5.139   0.433 -0.6180 -0.9246  0.6914
 9626TIP3   OH250292   2.025   6.129   1.341  0.2677  0.0818  0.0309
 9626TIP3    H150293   2.072   6.208   1.314  0.0322 -0.1244 -1.0257
 9626TIP3    H250294   2.091   6.076   1.386  0.9879 -0.0552 -1.1402
 9627TIP3   OH250295   2.478   6.098  17.244 -0.4244  0.2274  0.1173
 9627TIP3    H150296   2.497   6.191  17.231  0.2018 -0.0383 -1.0133
 9627TIP3    H250297   2.419   6.096  17.320  1.8974  1.3307  2.1222
 9628TIP3   OH250298   5.870   2.182   2.345  0.0345  0.0642  0.5809
 9628TIP3    H150299   5.782   2.153   2.322  0.0343  0.6403 -0.1863
 9628TIP3    H250300   5.925   2.150   2.273  0.0337  1.9482 -0.3047
 9629TIP3   OH250301   0.745   3.133   1.460 -0.0149  0.2632  0.0458
 9629TIP3    H150302   0.687   3.191   1.509 -0.7855  0.5775 -1.2028
 9629TIP3    H250303   0.722   3.045   1.490  0.2080  0.5014  0.9471
 9630TIP3   OH250304   5.673   1.367   2.973 -0.1551 -0.2701 -0.2755
 9630TIP3    H150305   5.755   1.402   2.938  0.0945 -1.0213 -0.4627
 9630TIP3    H250306   5.682   1.375   3.068 -0.8009  1.6991 -0.3298
 9631TIP3   OH250307   4.736   1.512   1.320  0.1503  0.0570 -1.2059
 9631TIP3    H150308   4.829   1.514   1.343  0.1883 -0.8711 -1.2145
 9631TIP3    H250309   4.725   1.428   1.275 -0.0621  1.4687 -3.9674
 9632TIP3   OH250310   1.677   3.787   6.320  0.5918  0.3641 -0.2451
 9632TIP3    H150311   1.725   3.870   6.323  1.9189 -0.3785  2.6165
 9632TIP3    H250312   1.744   3.721   6.308 -0.3025 -0.4132 -1.0827
 9633TIP3   OH250313   1.533   5.639  15.407  0.3844 -0.6405 -0.2895
 9633TIP3    H150314   1.452   5.605  15.444  1.3877 -1.4099  1.3318
 9633TIP3    H250315   1.591   5.563  15.401  1.2416  0.0257 -0.6508
 9634TIP3   OH250316   1.469   4.550   5.083 -0.5348  0.1236 -0.0149
 9634TIP3    H150317   1.472   4.525   4.990 -2.9323  0.5722 -0.2736
 9634TIP3    H250318   1.544   4.506   5.122 -0.2311 -1.1597 -1.9081
 9635TIP3   OH250319   3.346   2.377  12.384  0.4076  0.3708  0.2183
 9635TIP3    H150320   3.406   2.394  12.312  2.6664 -0.7628  1.7136
 9635TIP3    H250321   3.399   2.390  12.463 -0.8238 -2.3072  1.6009
 9636TIP3   OH250322   4.592   4.766   5.070  0.1298 -0.8737 -0.5119
 9636TIP3    H150323   4.678   4.769   5.111 -0.2776 -0.5088  0.3595
 9636TIP3    H250324   4.605   4.802   4.983  0.4344  1.6136  0.4564
 9637TIP3   OH250325   0.538   4.578  15.892  0.1344  0.6280  0.4128
 9637TIP3    H150326   0.621   4.569  15.938  0.6475  2.2078 -0.1493
 9637TIP3    H250327   0.526   4.495  15.847  1.4382  0.3896  0.4644
 9638TIP3   OH250328   0.651   4.228   3.659  0.3221 -0.6937  0.0518
 9638TIP3    H150329   0.602   4.182   3.727 -1.1142 -1.4127 -1.4173
 9638TIP3    H250330   0.615   4.317   3.658 -0.0489 -0.8483 -0.1641
 9639TIP3   OH250331   1.198   2.166  13.395  0.2182 -0.3534  0.4723
 9639TIP3    H150332   1.232   2.077  13.389 -1.1800 -0.9341  0.8835
 9639TIP3    H250333   1.120   2.158  13.449 -0.2139  1.0524  0.0859
 9640TIP3   OH250334   5.437   6.313  14.805  0.0684  0.6615 -0.1915
 9640TIP3    H150335   5.346   6.321  14.834 -0.0422  0.7239 -0.5468
 9640TIP3    H250336   5.430   6.281  14.715  0.4362 -2.5408  0.7794
 9641TIP3   OH250337   1.213   4.673  15.792 -0.0882 -0.0584  0.4861
 9641TIP3    H150338   1.121   4.697  15.784 -0.2311 -0.1865  1.6573
 9641TIP3    H250339   1.252   4.742  15.845  0.2437 -0.5771  0.9337
 9642TIP3   OH250340   0.372   2.174  11.161 -0.6766 -0.5906 -0.1227
 9642TIP3    H150341   0.283   2.140  11.155 -0.6678 -0.6721  0.1716
 9642TIP3    H250342   0.422   2.121  11.099 -0.6202 -1.2677  0.4891
 9643TIP3   OH250343   5.775   3.101  12.005  0.4411 -0.5555  0.4729
 9643TIP3    H150344   5.807   3.021  11.964 -3.1255 -0.9440 -2.0402
 9643TIP3    H250345   5.789   3.169  11.939 -0.2899  0.0095  0.8820
 9644TIP3   OH250346   6.671   2.913   5.680 -0.1418  0.2372 -0.6581
 9644TIP3    H150347   6.629   2.979   5.624  2.6869  1.2840 -1.7917
 9644TIP3    H250348   6.656   2.830   5.634  0.5666  0.8416 -2.0719
 9645TIP3   OH250349   5.819   5.983  15.522 -0.4168 -0.1283  0.1064
 9645TIP3    H150350   5.874   5.936  15.584  0.0731 -2.7948 -2.1227
 9645TIP3    H250351   5.730   5.957  15.544 -0.4603  0.8518  1.1349
 9646TIP3   OH250352   4.062   6.635  12.694 -0.5760  0.0690 -0.8309
 9646TIP3    H150353   4.098   6.549  12.672  0.4893  0.4319 -0.5764
 9646TIP3    H250354   4.047   6.677  12.609 -0.8864 -0.2864 -0.9499
 9647TIP3   OH250355   5.197   4.600  16.112 -0.2039  0.2824  0.0109
 9647TIP3    H150356   5.132   4.539  16.149  0.5608 -1.1654 -0.9425
 9647TIP3    H250357   5.260   4.544  16.069 -0.4967  1.8338 -2.6526
 9648TIP3   OH250358   1.688   1.198  14.278 -0.2434  0.1445  0.1462
 9648TIP3    H150359   1.726   1.273  14.322 -0.3548 -0.0805  0.6349
 9648TIP3    H250360   1.725   1.122  14.323 -2.5694 -0.1001  1.8693
 9649TIP3   OH250361   5.321   4.956   3.055  0.0079  0.5338 -0.1356
 9649TIP3    H150362   5.263   4.908   2.997 -0.2232  1.5372 -0.7637
 9649TIP3    H250363   5.296   5.048   3.043  0.0859  0.7849  1.4036
 9650TIP3   OH250364   1.502   3.968   3.103  0.3866  0.0221  0.0997
 9650TIP3    H150365   1.465   3.958   3.015 -0.4489  1.0634  0.3147
 9650TIP3    H250366   1.594   3.945   3.093  1.0102  2.8060 -1.7095
 9651TIP3   OH250367   1.717   5.542  16.210  0.0423  0.2778  0.2631
 9651TIP3    H150368   1.694   5.580  16.125 -2.3647 -0.1439  0.6325
 9651TIP3    H250369   1.648   5.476  16.225  1.3266 -0.7752  1.8317
 9652TIP3   OH250370   1.773   2.909   2.739  0.4743 -0.7021 -0.0225
 9652TIP3    H150371   1.852   2.931   2.789  0.4277 -1.2477  0.2960
 9652TIP3    H250372   1.759   2.985   2.682  0.9605 -0.4005  0.2521
 9653TIP3   OH250373   1.479   4.462  15.078  0.1524 -0.1774  0.4819
 9653TIP3    H150374   1.469   4.538  15.136 -0.9028  0.2095 -0.1858
 9653TIP3    H250375   1.530   4.495  15.004  0.1703 -0.2614  0.4567
 9654TIP3   OH250376   1.583   0.245   1.152 -0.5968 -0.0961 -0.1038
 9654TIP3    H150377   1.642   0.184   1.198 -2.0398 -0.7026  1.0191
 9654TIP3    H250378   1.609   0.331   1.184  1.4456 -0.0678 -1.6775
 9655TIP3   OH250379   4.979   4.647   0.760  0.0535  0.5992  0.4630
 9655TIP3    H150380   4.974   4.652   0.665 -1.8910 -0.6206  0.4553
 9655TIP3    H250381   4.978   4.553   0.779  0.2336  0.8336  1.7143
 9656TIP3   OH250382   5.808   3.010  15.911  0.1222  0.0391 -0.1194
 9656TIP3    H150383   5.779   3.087  15.961 -0.2941 -0.1703 -0.0382
 9656TIP3    H250384   5.898   2.996  15.941 -0.3919 -0.5812  1.2094
 9657TIP3   OH250385   1.940   0.759  12.146 -0.4091 -0.2053  0.7683
 9657TIP3    H150386   1.923   0.806  12.064 -1.2612 -2.0614 -0.1872
 9657TIP3    H250387   1.854   0.747  12.185 -0.5375 -2.7675 -0.1083
 9658TIP3   OH250388   0.271   4.408   3.137  0.4890  0.0202  0.2362
 9658TIP3    H150389   0.234   4.481   3.088  0.1523 -0.6370 -0.5147
 9658TIP3    H250390   0.302   4.347   3.069 -1.7009 -1.8075  0.7483
 9659TIP3   OH250391   4.059   1.111  10.840 -0.1280  0.5764  0.4666
 9659TIP3    H150392   4.093   1.022  10.832  0.4533  0.7206  1.2166
 9659TIP3    H250393   4.127   1.166  10.800 -1.0668  0.6003 -1.1868
 9660TIP3   OH250394   4.623   3.959  15.781  0.0172  0.1846  0.3949
 9660TIP3    H150395   4.529   3.977  15.778  0.0255  0.1094 -1.8659
 9660TIP3    H250396   4.664   4.045  15.777  0.0640  0.2071  1.1932
 9661TIP3   OH250397   2.370   4.558  12.883 -0.3271  0.6405  0.1204
 9661TIP3    H150398   2.455   4.520  12.904 -1.2126 -0.3170  2.2121
 9661TIP3    H250399   2.390   4.648  12.856  1.2510  1.0721  2.4413
 9662TIP3   OH250400   4.879   2.849   0.146 -0.5133  0.4054 -0.2477
 9662TIP3    H150401   4.901   2.757   0.163 -0.5864  0.5212  0.5396
 9662TIP3    H250402   4.795   2.846   0.100 -1.5083  0.1124  1.4778
 9663TIP3   OH250403   5.672   4.687  13.131 -0.4364 -0.5400 -0.3890
 9663TIP3    H150404   5.759   4.689  13.170 -1.1066 -2.8313  1.4607
 9663TIP3    H250405   5.669   4.603  13.086 -2.2019 -1.2963  1.0204
 9664TIP3   OH250406   5.680   2.328  12.830  0.8143  0.1675  0.2795
 9664TIP3    H150407   5.633   2.251  12.797  1.6834 -1.0287  1.6777
 9664TIP3    H250408   5.755   2.337  12.771 -0.3218  1.1846 -1.0700
 9665TIP3   OH250409   5.663   0.893  12.971 -0.3653 -0.2000 -0.3944
 9665TIP3    H150410   5.642   0.910  13.063  1.1171  0.2990 -0.1136
 9665TIP3    H250411   5.580   0.902  12.925 -1.0523 -0.0243  0.8454
 9666TIP3   OH250412   5.469   1.948   3.168  0.4118  0.2836  0.1392
 9666TIP3    H150413   5.492   1.966   3.259 -2.0208  0.8295  0.7361
 9666TIP3    H250414   5.403   2.014   3.146  0.7900  0.0549 -1.9841
 9667TIP3   OH250415   1.283   4.623   5.405  0.4279  0.2570 -0.4366
 9667TIP3    H150416   1.304   4.664   5.322 -0.7510  0.9190 -0.4175
 9667TIP3    H250417   1.285   4.529   5.386  1.3473  0.3587 -0.9086
 9668TIP3   OH250418   3.122   3.094   2.533 -0.5481  0.1083  0.9769
 9668TIP3    H150419   3.186   3.034   2.495 -1.8378  0.0734 -1.2856
 9668TIP3    H250420   3.045   3.040   2.550 -1.4426  0.9239 -0.3303
 9669TIP3   OH250421   6.249   0.857   1.084 -0.2850 -0.6512 -0.0600
 9669TIP3    H150422   6.316   0.917   1.117 -1.7776  0.6271  0.7455
 9669TIP3    H250423   6.230   0.799   1.158  0.6577 -1.7137 -0.6218
 9670TIP3   OH250424   1.092   6.631   2.093 -0.1792  0.3527 -0.1975
 9670TIP3    H150425   1.146   6.593   2.162  0.0859 -0.0673 -0.6220
 9670TIP3    H250426   1.035   6.693   2.138 -1.8491 -1.7833  0.8259
 9671TIP3   OH250427   1.533   4.033  11.846  0.6713  0.3798  0.1088
 9671TIP3    H150428   1.510   3.978  11.922 -0.7148 -0.1984 -0.6948
 9671TIP3    H250429   1.515   4.122  11.875 -0.4249  0.1128  0.2825
 9672TIP3   OH250430   3.743   5.455  14.613  0.1242  0.1856 -1.1869
 9672TIP3    H150431   3.717   5.489  14.699  1.6994 -0.0236 -0.5872
 9672TIP3    H250432   3.761   5.363  14.628 -1.4277 -0.3225 -2.1970
 9673TIP3   OH250433   3.170   4.425  12.738  0.0025 -0.3435  0.2346
 9673TIP3    H150434   3.118   4.447  12.815 -1.6175 -1.4641 -0.4749
 9673TIP3    H250435   3.156   4.499  12.678  2.5423  1.3174  1.5146
 9674TIP3   OH250436   6.593   6.194   6.933  0.0468  0.1250 -0.4238
 9674TIP3    H150437   6.519   6.199   6.992  1.2118 -4.2782  1.8740
 9674TIP3    H250438   6.564   6.136   6.863  0.5708  0.3289 -0.8178
 9675TIP3   OH250439   4.823   6.125  12.222 -0.4724 -0.0635 -0.2895
 9675TIP3    H150440   4.899   6.177  12.195 -1.2274  1.2561  0.0105
 9675TIP3    H250441   4.824   6.049  12.164  1.0984 -0.1090 -0.2579
 9676TIP3   OH250442   5.971   6.569   4.010  0.4076  0.0595  0.5394
 9676TIP3    H150443   5.977   6.579   3.915  0.2063  0.4785  0.5684
 9676TIP3    H250444   5.877   6.576   4.029  0.4294 -0.1868  0.7530
 9677TIP3   OH250445   5.776   1.054   5.795  0.2770  0.1931 -0.3121
 9677TIP3    H150446   5.784   0.959   5.801 -2.4716 -0.0958  0.2871
 9677TIP3    H250447   5.818   1.087   5.875 -0.6593 -0.7256  0.5953
 9678TIP3   OH250448   6.279   4.395   1.023  0.2992  0.5466  0.3694
 9678TIP3    H150449   6.198   4.353   0.995  0.9010  0.5332 -1.5353
 9678TIP3    H250450   6.340   4.323   1.037  0.2108  0.5973  1.0536
 9679TIP3   OH250451   5.056   5.747  12.468  0.3219 -0.2126 -0.0352
 9679TIP3    H150452   4.978   5.784  12.508  0.3817  0.3291 -0.4089
 9679TIP3    H250453   5.090   5.817  12.412  0.0989 -1.0404 -1.2450
 9680TIP3   OH250454   1.475   4.878  15.209 -0.5984  0.3405 -0.0929
 9680TIP3    H150455   1.480   4.946  15.276 -0.3687 -1.8659  2.2684
 9680TIP3    H250456   1.557   4.887  15.159  0.3728  0.5432  1.4808
 9681TIP3   OH250457   6.354   3.504  15.110 -0.0591 -0.1792  0.3824
 9681TIP3    H150458   6.286   3.456  15.157  0.8221  0.0988  2.0289
 9681TIP3    H250459   6.372   3.581  15.165  2.1271 -0.6691  0.4740
 9682TIP3   OH250460   2.431   0.385  11.277  0.5191 -0.3269 -0.1334
 9682TIP3    H150461   2.418   0.463  11.331  1.5864 -1.3964  1.8071
 9682TIP3    H250462   2.514   0.399  11.233  0.8074 -0.4407  0.3700
 9683TIP3   OH250463   0.391   0.330  12.887  0.1388 -0.2876  0.5674
 9683TIP3    H150464   0.395   0.324  12.982 -0.4143  0.0899  0.6178
 9683TIP3    H250465   0.449   0.261  12.856  0.7055 -0.0986  1.1840
 9684TIP3   OH250466   0.824   4.550   2.043 -0.1130  0.4998 -0.0924
 9684TIP3    H150467   0.831   4.581   1.953 -1.5547  1.2332  0.0169
 9684TIP3    H250468   0.880   4.610   2.093 -0.1647  0.7703 -0.3522
 9685TIP3   OH250469   2.054   2.252   2.139  0.4427  0.1344 -0.3629
 9685TIP3    H150470   1.966   2.266   2.103  0.2862 -1.0191 -0.4602
 9685TIP3    H250471   2.062   2.157   2.147  0.8469  0.2998  1.7207
 9686TIP3   OH250472   2.407   6.099   5.492  0.3663  0.5394 -0.5410
 9686TIP3    H150473   2.376   6.188   5.476  1.3553  1.4701  2.1462
 9686TIP3    H250474   2.502   6.106   5.490  0.5010 -0.9325 -2.2346
 9687TIP3   OH250475   5.546   5.938   2.643 -0.0927  0.2278  0.2698
 9687TIP3    H150476   5.628   5.889   2.656 -0.6789 -0.6565  0.7152
 9687TIP3    H250477   5.488   5.907   2.713 -1.5246 -0.7357 -1.2728
 9688TIP3   OH250478   4.363   6.191   3.830 -0.7175  0.1883 -0.1187
 9688TIP3    H150479   4.435   6.247   3.858  0.3777 -0.6177 -1.1926
 9688TIP3    H250480   4.341   6.222   3.742 -0.0252 -1.0752 -0.7761
 9689TIP3   OH250481   6.160   6.307   1.285  0.0247  0.0971  0.2545
 9689TIP3    H150482   6.181   6.371   1.217 -1.0218  2.5889  2.1361
 9689TIP3    H250483   6.066   6.295   1.278  0.4264 -3.2066 -1.5722
 9690TIP3   OH250484   5.363   0.915  13.026  0.5941  0.0387 -0.5870
 9690TIP3    H150485   5.394   0.985  12.968  1.3247 -0.4699 -0.8286
 9690TIP3    H250486   5.346   0.959  13.109 -0.0376  0.6991 -1.0472
 9691TIP3   OH250487   1.371   4.240   1.031 -0.1329  0.4367 -0.2947
 9691TIP3    H150488   1.408   4.242   1.119  0.9712 -0.5347 -0.7167
 9691TIP3    H250489   1.395   4.324   0.993  1.1164  0.0768 -0.3345
 9692TIP3   OH250490   2.705   3.751   2.206  0.0338 -0.0965 -0.2428
 9692TIP3    H150491   2.625   3.799   2.182  0.8689  0.4540 -2.1475
 9692TIP3    H250492   2.745   3.728   2.122 -0.7079 -4.9470  0.4487
 9693TIP3   OH250493   2.196   3.289   0.758 -0.2267  0.4412  0.6322
 9693TIP3    H150494   2.147   3.209   0.778  1.7373 -0.8036  0.7044
 9693TIP3    H250495   2.228   3.276   0.669 -0.2569  1.3798  0.4724
 9694TIP3   OH250496   6.751   1.107   2.960  0.3907 -0.0100  0.5047
 9694TIP3    H150497   6.788   1.173   2.901  0.9020 -1.6620 -1.1647
 9694TIP3    H250498   6.665   1.142   2.985  1.5952  2.3271  1.6431
 9695TIP3   OH250499   3.152   3.067  12.203 -0.2892 -0.3098 -0.5130
 9695TIP3    H150500   3.117   3.081  12.291  1.4339 -0.7122  0.2848
 9695TIP3    H250501   3.097   2.999  12.165 -1.9850  0.8933 -0.3468
 9696TIP3   OH250502   5.357   0.343   0.897 -0.1780  0.1283 -0.1978
 9696TIP3    H150503   5.309   0.322   0.977  1.6135 -1.8700  0.4366
 9696TIP3    H250504   5.408   0.421   0.919 -1.2649  0.8412 -0.1216
 9697TIP3   OH250505   3.006   4.547   3.088 -0.6642  0.0033  0.0416
 9697TIP3    H150506   3.053   4.596   3.020  1.7145 -0.7380  1.0369
 9697TIP3    H250507   2.949   4.488   3.040 -0.0922  0.4866 -1.2766
 9698TIP3   OH250508   0.472   5.480  11.289 -0.1499 -0.0963  0.1657
 9698TIP3    H150509   0.555   5.528  11.300 -0.5020  1.0295 -1.6420
 9698TIP3    H250510   0.492   5.411  11.226 -0.1119 -1.1597  1.3174
 9699TIP3   OH250511   2.512   5.865   4.713  0.1037  0.3758  0.6811
 9699TIP3    H150512   2.535   5.952   4.745  2.6129  0.6020 -1.3711
 9699TIP3    H250513   2.448   5.880   4.644 -1.4063  0.3156  2.0201
 9700TIP3   OH250514   6.257   3.347  15.453 -0.4882  0.1801 -0.1411
 9700TIP3    H150515   6.337   3.297  15.444 -0.7963 -0.3021 -0.2235
 9700TIP3    H250516   6.227   3.361  15.363  0.6773  2.3215 -0.2861
 9701TIP3   OH250517   0.532   0.186   5.650  0.1146 -0.7501  0.0605
 9701TIP3    H150518   0.440   0.161   5.650 -0.2734  0.5625  1.1077
 9701TIP3    H250519   0.535   0.267   5.599  0.2883  0.3858  1.7831
 9702TIP3   OH250520   0.448   0.167  14.555  0.2584  0.0767 -0.0238
 9702TIP3    H150521   0.387   0.240  14.566  0.5442  0.3851 -0.4911
 9702TIP3    H250522   0.531   0.207  14.530  0.2325 -0.4512 -1.0197
 9703TIP3   OH250523   0.133   3.364   5.274  0.4314 -0.0099  0.0409
 9703TIP3    H150524   0.064   3.430   5.268  0.0135 -0.3086  1.2832
 9703TIP3    H250525   0.155   3.344   5.183 -2.5869 -1.4253 -0.4883
 9704TIP3   OH250526   5.326   3.792   4.998  0.3381  0.4728  0.2350
 9704TIP3    H150527   5.233   3.810   5.008  0.5910  1.6383  0.6919
 9704TIP3    H250528   5.369   3.871   5.031  1.4539  0.6483 -1.5005
 9705TIP3   OH250529   5.613   0.825   3.219 -0.0240 -0.0127  1.1451
 9705TIP3    H150530   5.580   0.900   3.169  0.3375 -0.7595 -0.2784
 9705TIP3    H250531   5.558   0.822   3.297 -0.6845  1.1390  0.7486
 9706TIP3   OH250532   2.380   1.327   1.915 -0.3549  0.6735  0.8245
 9706TIP3    H150533   2.296   1.290   1.887 -0.9389  3.5070 -1.5642
 9706TIP3    H250534   2.436   1.322   1.838  0.6389  1.6591  1.4519
 9707TIP3   OH250535   3.914   0.108   2.448 -0.3840  0.1937 -0.6357
 9707TIP3    H150536   3.970   0.031   2.435 -1.9247 -1.2068  0.4979
 9707TIP3    H250537   3.882   0.129   2.361  1.6729  0.9020 -1.2804
 9708TIP3   OH250538   0.372   1.587  11.899 -0.5467 -0.2022  0.2836
 9708TIP3    H150539   0.320   1.610  11.822 -1.7591 -2.3508  0.3707
 9708TIP3    H250540   0.462   1.609  11.875 -1.0249  0.1060 -1.3585
 9709TIP3   OH250541   5.629   1.577   2.570 -0.1665 -0.2081 -0.5606
 9709TIP3    H150542   5.545   1.597   2.611 -0.6625  1.1523 -2.1687
 9709TIP3    H250543   5.611   1.503   2.512 -0.3096  0.2086 -1.0522
 9710TIP3   OH250544   0.524   6.522   6.180  0.0588  0.0571 -0.4444
 9710TIP3    H150545   0.441   6.514   6.133  0.2062 -1.4760 -0.4988
 9710TIP3    H250546   0.511   6.473   6.261  1.1736 -0.9763 -0.8621
 9711TIP3   OH250547   0.944   3.412  13.912 -0.0723 -0.5957 -0.1353
 9711TIP3    H150548   0.858   3.382  13.939 -0.4037  1.2906  1.1049
 9711TIP3    H250549   0.963   3.363  13.832 -1.5589 -2.2307  0.4485
 9712TIP3   OH250550   4.564   6.287  13.720  0.3688 -0.0745  0.3769
 9712TIP3    H150551   4.543   6.357  13.782 -0.0111 -0.1596  0.3454
 9712TIP3    H250552   4.620   6.228  13.769  0.6927  0.2544  0.4032
 9713TIP3   OH250553   4.746   6.204   3.630 -0.9972 -0.6237  0.0831
 9713TIP3    H150554   4.784   6.260   3.697 -1.5814  1.9991 -1.6151
 9713TIP3    H250555   4.657   6.237   3.619 -1.0725 -1.2908 -1.5935
 9714TIP3   OH250556   2.484   4.021  12.237 -0.6275  0.0803 -0.0411
 9714TIP3    H150557   2.452   3.944  12.190  0.6689 -0.7278  0.3566
 9714TIP3    H250558   2.405   4.062  12.272 -1.3335 -1.1507 -0.1338
 9715TIP3   OH250559   0.073   2.984   2.610  0.3021  0.0765 -0.2478
 9715TIP3    H150560   0.157   2.939   2.599  0.1629 -0.2123 -0.1468
 9715TIP3    H250561   0.036   2.987   2.522  0.7790  0.9254 -0.4290
 9716TIP3   OH250562   5.079   3.967   1.320  0.0922 -0.5226 -0.0797
 9716TIP3    H150563   5.149   4.003   1.265 -0.3566 -2.0092 -1.7213
 9716TIP3    H250564   5.010   3.945   1.258 -1.3358 -0.2913  1.3695
 9717TIP3   OH250565   2.768   3.991   0.586  0.1244 -0.4507 -0.5727
 9717TIP3    H150566   2.846   3.979   0.640 -1.0394 -1.9472  0.8918
 9717TIP3    H250567   2.726   4.070   0.621  0.9749  0.3893 -1.4020
 9718TIP3   OH250568   4.947   5.229  14.817 -0.2939 -0.2854  0.4647
 9718TIP3    H150569   5.040   5.251  14.824 -0.3447 -0.6407  3.1635
 9718TIP3    H250570   4.903   5.297  14.868 -1.1979 -1.8752  1.8792
 9719TIP3   OH250571   1.139   3.552   1.563 -0.0761  0.0221  0.0345
 9719TIP3    H150572   1.146   3.466   1.522 -1.7044 -1.2124  2.1174
 9719TIP3    H250573   1.083   3.603   1.504 -0.5110 -0.9295 -0.3945
 9720TIP3   OH250574   6.211   0.009  16.342 -0.5779 -0.0996 -0.2722
 9720TIP3    H150575   6.168   0.091  16.368  1.6813  1.0651  0.0384
 9720TIP3    H250576   6.162  -0.020  16.264 -2.3322  0.7309  0.4632
 9721TIP3   OH250577   1.590   6.114  14.264  0.4526  0.0622 -0.0228
 9721TIP3    H150578   1.624   6.089  14.178 -1.2981  1.1445 -1.0823
 9721TIP3    H250579   1.604   6.208  14.269 -1.2760  0.3487 -0.0128
 9722TIP3   OH250580   6.532   3.324   5.715  0.1378  0.1634  0.0903
 9722TIP3    H150581   6.558   3.239   5.751 -0.7760  0.5655  1.8220
 9722TIP3    H250582   6.608   3.352   5.663  0.8420 -1.2402  0.3012
 9723TIP3   OH250583   4.921   5.048  12.275  0.2298 -0.4616  0.1652
 9723TIP3    H150584   4.921   5.013  12.364  0.1751  0.3399  0.4930
 9723TIP3    H250585   5.008   5.029  12.241  0.9071  0.8535  1.0738
 9724TIP3   OH250586   3.870   0.481  16.916 -0.6823 -0.2609  1.0170
 9724TIP3    H150587   3.790   0.453  16.871  0.0953 -2.7272  1.0470
 9724TIP3    H250588   3.904   0.552  16.862 -1.6590 -0.7324 -0.2715
 9725TIP3   OH250589   1.198   1.823  12.134  0.2482 -0.3571  0.0008
 9725TIP3    H150590   1.196   1.728  12.121  0.8688 -0.3531 -0.1268
 9725TIP3    H250591   1.288   1.849  12.115  0.3897  0.0982  1.1639
 9726TIP3   OH250592   0.003   5.106  15.622 -0.5457  0.5048 -0.1637
 9726TIP3    H150593  -0.011   5.106  15.528  1.0309  0.1408 -0.4283
 9726TIP3    H250594   0.032   5.017  15.642 -1.4224  0.4104  0.7686
 9727TIP3   OH250595   1.162   3.853   5.091 -0.3974 -0.0423 -0.1664
 9727TIP3    H150596   1.213   3.857   5.172  0.4173  1.6337 -0.7294
 9727TIP3    H250597   1.171   3.762   5.063  0.0445 -0.4357  1.1501
 9728TIP3   OH250598   4.547   2.004  17.196  0.4229  0.1415  0.1773
 9728TIP3    H150599   4.560   1.935  17.261  0.2989 -1.2978 -1.2647
 9728TIP3    H250600   4.480   2.061  17.234 -2.5348 -2.8029 -0.2318
 9729TIP3   OH250601   4.510   1.094   4.418 -0.1699 -0.1748  0.1602
 9729TIP3    H150602   4.563   1.156   4.369  0.5600  0.8890  2.2013
 9729TIP3    H250603   4.420   1.108   4.387  0.0050  1.8059  0.4717
 9730TIP3   OH250604   4.145   6.386  15.574 -0.1691 -1.0893 -0.3021
 9730TIP3    H150605   4.208   6.377  15.502  0.5367 -0.4231  0.2114
 9730TIP3    H250606   4.196   6.427  15.644 -1.3180 -0.0291 -0.0565
 9731TIP3   OH250607   5.441   4.615  11.399  0.2935  0.5816 -0.1730
 9731TIP3    H150608   5.470   4.690  11.451  0.9726  0.3575 -0.2092
 9731TIP3    H250609   5.482   4.628  11.314  1.1085 -0.2462  0.0719
 9732TIP3   OH250610   4.133   0.254   3.404 -0.1509  0.1732  0.2325
 9732TIP3    H150611   4.170   0.172   3.370 -1.8715 -0.4843 -0.1622
 9732TIP3    H250612   4.146   0.317   3.334  0.0607 -0.0903  0.0310
 9733TIP3   OH250613   3.954   3.073   4.723  0.0035  0.1858 -0.3367
 9733TIP3    H150614   3.915   3.036   4.644  1.3707 -0.0544 -0.9409
 9733TIP3    H250615   4.013   3.005   4.755  2.7103  1.7616 -1.5676
 9734TIP3   OH250616   4.192   3.637   0.498 -0.0581 -0.1937  1.2245
 9734TIP3    H150617   4.176   3.574   0.568 -1.3472 -2.8772 -1.3185
 9734TIP3    H250618   4.114   3.692   0.498 -1.1402 -1.6741  0.4690
 9735TIP3   OH250619   2.294   2.846  15.393  0.0635 -0.8707  0.4777
 9735TIP3    H150620   2.280   2.866  15.300 -1.7562 -0.8024  0.7223
 9735TIP3    H250621   2.208   2.859  15.433  1.6698  3.9540  3.1589
 9736TIP3   OH250622   3.895   3.384  14.869  0.0228  0.2469 -0.0247
 9736TIP3    H150623   3.878   3.359  14.960  1.1774 -0.1074  0.1169
 9736TIP3    H250624   3.843   3.322  14.817  1.0088 -0.9495  0.3728
 9737TIP3   OH250625   3.833   4.515  15.802 -0.1968  0.4048  0.3452
 9737TIP3    H150626   3.868   4.473  15.724  0.2793  3.7833 -1.4485
 9737TIP3    H250627   3.887   4.593  15.813 -3.3099  2.6127  1.1171
 9738TIP3   OH250628   6.117   6.427  13.470  0.2674  0.3947 -0.3276
 9738TIP3    H150629   6.070   6.388  13.397  0.8686 -1.1901  0.0970
 9738TIP3    H250630   6.208   6.433  13.440  0.4060  0.2977  0.0658
 9739TIP3   OH250631   5.261   0.906  14.348  0.3818  0.2022  0.2266
 9739TIP3    H150632   5.175   0.919  14.390  0.6614 -1.0401  1.2234
 9739TIP3    H250633   5.290   0.995  14.327 -0.3174  0.7882  1.5902
 9740TIP3   OH250634   2.735   4.321   4.453 -0.0268  0.0994  0.0815
 9740TIP3    H150635   2.742   4.226   4.462 -1.8236 -0.0551  0.2252
 9740TIP3    H250636   2.641   4.337   4.444  0.2584  1.8598 -0.0512
 9741TIP3   OH250637   3.127   2.987  15.360  0.1140  0.2770 -0.1251
 9741TIP3    H150638   3.109   2.983  15.266 -0.7721 -0.5748  0.0596
 9741TIP3    H250639   3.125   3.080  15.382 -0.7960  0.4145 -0.7509
 9742TIP3   OH250640   5.231   3.959  16.742 -0.2454 -0.0767  0.1715
 9742TIP3    H150641   5.282   3.882  16.715  1.1137  0.9667 -0.3468
 9742TIP3    H250642   5.235   3.958  16.838  1.4515  0.3970  0.1405
 9743TIP3   OH250643   5.069   0.641  15.784 -0.3230 -0.0670 -0.0866
 9743TIP3    H150644   5.033   0.568  15.734 -4.6207  1.0165  1.0109
 9743TIP3    H250645   5.034   0.719  15.740  2.1202  1.2983  0.2153
 9744TIP3   OH250646   6.231   4.611   4.494 -0.0887  0.1592  0.6487
 9744TIP3    H150647   6.285   4.534   4.476 -0.2059  0.4293 -0.9659
 9744TIP3    H250648   6.184   4.589   4.575  0.9277 -0.8847  0.9715
 9745TIP3   OH250649   0.954   2.332  17.131 -0.1595  0.3936  0.0985
 9745TIP3    H150650   0.978   2.315  17.222 -0.8437 -3.8995 -0.3022
 9745TIP3    H250651   0.858   2.338  17.133 -0.4767 -2.6699 -0.4936
 9746TIP3   OH250652   2.182   3.570  16.527 -0.3827 -0.1642  0.7074
 9746TIP3    H150653   2.232   3.601  16.450 -2.4846 -0.2857 -0.7867
 9746TIP3    H250654   2.146   3.486  16.499 -1.7869  0.1374  1.5466
 9747TIP3   OH250655   0.778   3.144   0.287  0.1465  0.0687 -0.5736
 9747TIP3    H150656   0.728   3.102   0.357  0.4775  0.9080  0.1911
 9747TIP3    H250657   0.717   3.146   0.213 -0.7157  0.4323  0.1249
 9748TIP3   OH250658   3.704   5.082   3.345 -0.6517 -0.0058 -0.5058
 9748TIP3    H150659   3.699   5.132   3.263  1.6856 -0.8247 -1.2425
 9748TIP3    H250660   3.627   5.025   3.344 -1.3641  0.9372 -1.4737
 9749TIP3   OH250661   6.654   6.057  11.723  0.2733  0.0722  0.3828
 9749TIP3    H150662   6.612   6.037  11.807 -3.5520 -0.7660 -1.5110
 9749TIP3    H250663   6.683   5.972  11.689 -0.8853 -0.0361 -0.3866
 9750TIP3   OH250664   3.179   1.117   5.035  0.4557 -0.1657  0.2425
 9750TIP3    H150665   3.239   1.088   5.104  0.8819  1.1006  0.4239
 9750TIP3    H250666   3.188   1.050   4.967 -1.0376 -2.2473  1.9288
 9751TIP3   OH250667   3.957   1.563  14.742 -0.1176  0.7774 -0.6348
 9751TIP3    H150668   3.898   1.492  14.716  1.5682 -0.1519 -2.1023
 9751TIP3    H250669   3.979   1.544  14.833 -1.9299  1.0825 -0.0823
 9752TIP3   OH250670   0.332   2.429   0.849 -0.2539  0.4059  0.2215
 9752TIP3    H150671   0.407   2.479   0.817  1.2525  0.1541  3.0421
 9752TIP3    H250672   0.287   2.399   0.770  1.6907  1.9019 -1.5566
 9753TIP3   OH250673   4.025   2.595   4.028  0.2503 -0.3630  0.2706
 9753TIP3    H150674   3.977   2.622   4.106 -0.5565 -1.4901  0.1860
 9753TIP3    H250675   4.096   2.541   4.060  1.0082  0.6361  0.3335
 9754TIP3   OH250676   5.684   0.158   1.022  0.0311 -0.0627  0.0296
 9754TIP3    H150677   5.601   0.111   1.020 -0.2055  0.3204  0.6124
 9754TIP3    H250678   5.683   0.205   1.105  0.9888 -0.3345  0.2029
 9755TIP3   OH250679   2.453   0.430  11.724 -0.3407 -0.4988 -0.0207
 9755TIP3    H150680   2.469   0.524  11.728 -0.0823 -0.5169 -0.5253
 9755TIP3    H250681   2.532   0.393  11.683 -0.8277 -0.8188 -0.7050
 9756TIP3   OH250682   3.497   2.441  16.877 -0.1302  0.0980  0.3323
 9756TIP3    H150683   3.409   2.406  16.891  0.0189 -0.7746 -0.7215
 9756TIP3    H250684   3.484   2.535  16.870 -1.4429 -0.1725 -2.4875
 9757TIP3   OH250685   0.126   4.158  17.291 -0.1450  0.2859 -0.0849
 9757TIP3    H150686   0.089   4.245  17.307 -0.2322  0.2869 -0.2891
 9757TIP3    H250687   0.085   4.103  17.358  1.5000  0.8123  1.4278
 9758TIP3   OH250688   1.570   0.927   3.778  0.1529  0.0853  0.8213
 9758TIP3    H150689   1.646   0.978   3.806 -0.5511  0.8869  1.3361
 9758TIP3    H250690   1.562   0.946   3.684  0.4369  0.1905  0.8168
 9759TIP3   OH250691   0.631   5.257  17.129  0.1248  0.2787  0.0288
 9759TIP3    H150692   0.605   5.343  17.160 -0.8351 -0.5736  1.7290
 9759TIP3    H250693   0.665   5.212  17.206 -0.0142 -1.0869 -0.6685
 9760TIP3   OH250694   1.361   5.056   0.627  0.4808  0.0728  0.1996
 9760TIP3    H150695   1.358   5.140   0.581 -0.3875  1.3472  2.4393
 9760TIP3    H250696   1.358   4.991   0.557 -0.1926  1.8774 -1.5654
 9761TIP3   OH250697   4.387   4.850  16.140 -0.4238 -0.1452  0.7628
 9761TIP3    H150698   4.344   4.914  16.195 -0.1388 -0.5201  1.4310
 9761TIP3    H250699   4.480   4.858  16.161 -0.2520  0.0293 -0.0046
 9762TIP3   OH250700   1.737   4.979   1.400 -0.4442 -0.0768  0.0315
 9762TIP3    H150701   1.740   4.906   1.462  1.3704  0.9505  1.2292
 9762TIP3    H250702   1.724   5.056   1.455 -3.0412  0.5186 -1.2664
 9763TIP3   OH250703   0.491   3.820  16.424  0.7790  0.4313 -0.4150
 9763TIP3    H150704   0.549   3.804  16.498  0.4207 -1.0562 -0.4200
 9763TIP3    H250705   0.547   3.861  16.358  1.5474  0.0586 -0.0047
 9764TIP3   OH250706   4.153   5.705  16.580 -0.1475 -0.2397 -0.4595
 9764TIP3    H150707   4.178   5.770  16.513 -1.6461 -0.6652 -1.4602
 9764TIP3    H250708   4.089   5.751  16.635 -0.6929 -0.6526 -0.7508
 9765TIP3   OH250709   2.961   3.661   4.112 -0.0207  0.1831 -0.6358
 9765TIP3    H150710   2.964   3.627   4.201  0.2066  0.2170 -0.6293
 9765TIP3    H250711   2.872   3.644   4.082 -0.2161  0.5326 -0.2631
 9766TIP3   OH250712   4.740   6.410  12.566 -0.2001 -0.5247 -0.6462
 9766TIP3    H150713   4.823   6.377  12.532  0.0925  0.4142 -0.8527
 9766TIP3    H250714   4.705   6.337  12.618  1.0609 -0.7001 -0.0179
 9767TIP3   OH250715   2.221   4.860   0.038 -0.2760  0.3181 -0.6647
 9767TIP3    H150716   2.131   4.838   0.015 -0.2820 -0.0295 -0.3090
 9767TIP3    H250717   2.269   4.778   0.030 -0.2800  0.1731  0.5534
 9768TIP3   OH250718   2.107   1.203  16.466 -0.1152  0.0193  0.7463
 9768TIP3    H150719   2.014   1.206  16.444 -0.4985  0.5237  2.3121
 9768TIP3    H250720   2.111   1.227  16.559  1.6727  1.0140  0.4595
 9769TIP3   OH250721   6.630   3.718  14.311 -0.6799  0.3730  0.4278
 9769TIP3    H150722   6.691   3.676  14.250 -0.5671 -1.6080  1.8004
 9769TIP3    H250723   6.579   3.645  14.347 -1.3090  1.5700  2.0586
 9770TIP3   OH250724   0.142   1.609  16.831 -0.1463 -0.1047 -0.1311
 9770TIP3    H150725   0.113   1.700  16.846  0.3907  0.0302  0.1019
 9770TIP3    H250726   0.214   1.597  16.892 -1.7136 -1.4556  1.5757
 9771TIP3   OH250727   0.829   6.276  14.621  0.4204  0.4693  0.2703
 9771TIP3    H150728   0.833   6.181  14.614 -0.8248  0.2033  2.4130
 9771TIP3    H250729   0.856   6.308  14.535 -0.4535 -1.8300 -0.9247
 9772TIP3   OH250730   2.300   1.621   0.041  0.2753  0.3442 -0.9110
 9772TIP3    H150731   2.307   1.527   0.056  1.3872  0.4660 -0.5686
 9772TIP3    H250732   2.337   1.633  -0.047 -0.9307  0.3356 -1.4387
 9773TIP3   OH250733   3.256   4.931  15.765 -0.1457 -0.3471 -0.7139
 9773TIP3    H150734   3.257   4.870  15.691 -0.6469  0.4758 -1.4210
 9773TIP3    H250735   3.313   5.003  15.738 -0.5125  0.0685 -0.4093
 9774TIP3   OH250736   2.065   5.756  11.546  0.2978  0.4238  0.4793
 9774TIP3    H150737   1.972   5.769  11.564  0.1166 -0.4895  0.2860
 9774TIP3    H250738   2.071   5.665  11.517  0.9479  1.0373 -1.4699
 9775TIP3   OH250739   3.357   2.755  16.160  0.2147  0.2605 -0.6547
 9775TIP3    H150740   3.304   2.709  16.095  0.8218 -0.3624 -0.7165
 9775TIP3    H250741   3.416   2.688  16.196  1.1115  0.9790 -0.7433
 9776TIP3   OH250742   2.563   4.235   1.936  0.7837 -0.1937  0.0423
 9776TIP3    H150743   2.564   4.146   1.901 -0.6079 -0.0244 -0.4769
 9776TIP3    H250744   2.600   4.227   2.024 -1.2977 -1.6914  0.8532
 9777TIP3   OH250745   1.183   1.786  11.322  0.0548  0.2248  0.0407
 9777TIP3    H150746   1.105   1.730  11.321 -2.2683  3.2276 -0.6676
 9777TIP3    H250747   1.196   1.809  11.230  0.1327  1.8737  0.4495
 9778TIP3   OH250748   4.319   0.021   0.061 -0.0134 -0.7466 -0.0640
 9778TIP3    H150749   4.337  -0.010   0.150  0.4588 -1.6404 -0.4632
 9778TIP3    H250750   4.337   0.115   0.065 -0.4955 -0.6756  0.9108
 9779TIP3   OH250751   2.595   6.394  12.502  0.5161  0.5123  0.0093
 9779TIP3    H150752   2.648   6.447  12.562  0.3913  0.9059 -0.2224
 9779TIP3    H250753   2.607   6.304  12.532  1.7682  0.5353 -0.3903
 9780TIP3   OH250754   0.723   2.435   0.646 -0.3354 -0.2422  0.4890
 9780TIP3    H150755   0.705   2.341   0.648 -1.0928 -0.1102  2.8321
 9780TIP3    H250756   0.710   2.463   0.736  0.5610  2.0036 -0.0342
 9781TIP3   OH250757   2.938   2.947  15.626  0.0066 -0.3085 -0.8078
 9781TIP3    H150758   2.993   2.907  15.559 -1.2039 -0.3568 -1.8073
 9781TIP3    H250759   2.850   2.951  15.587 -0.2582  1.8842 -0.1669
 9782TIP3   OH250760   4.841   5.461  14.942 -0.0961 -0.3388 -0.2174
 9782TIP3    H150761   4.785   5.422  15.009 -0.5291 -1.5286 -1.2317
 9782TIP3    H250762   4.780   5.502  14.880  0.3314  1.4900  0.5106
 9783TIP3   OH250763   4.171   3.470   4.254 -0.9353  0.2007  0.2683
 9783TIP3    H150764   4.183   3.560   4.285 -0.1712 -0.0262  0.6578
 9783TIP3    H250765   4.151   3.480   4.161  0.7110  0.7259 -0.0723
 9784TIP3   OH250766   4.994   6.407  15.618 -0.1258 -0.4076 -0.0006
 9784TIP3    H150767   5.017   6.499  15.606 -2.6307 -0.1083 -4.9508
 9784TIP3    H250768   4.905   6.410  15.653 -0.7982 -0.7673 -1.5780
 9785TIP3   OH250769   3.234   1.108  14.834 -0.5232 -0.1393  0.0351
 9785TIP3    H150770   3.175   1.105  14.910 -1.0133  0.1616 -0.3292
 9785TIP3    H250771   3.259   1.200  14.827 -4.4093  0.9746 -3.0890
 9786TIP3   OH250772   4.460   4.307   5.050 -0.0065 -0.5089  0.6869
 9786TIP3    H150773   4.524   4.293   4.981 -1.6126  0.5952 -1.1328
 9786TIP3    H250774   4.392   4.241   5.034  0.2347 -1.1336  2.0834
 9787TIP3   OH250775   1.215   4.280  11.992  0.1624  0.5990  0.5431
 9787TIP3    H150776   1.198   4.293  11.898 -2.0380 -3.9188  0.0673
 9787TIP3    H250777   1.133   4.304  12.035  0.9022  1.8626  1.3212
 9788TIP3   OH250778   0.614   2.010  11.102  0.1582  0.0756 -0.0512
 9788TIP3    H150779   0.559   1.981  11.029 -1.1859 -1.8282  1.5895
 9788TIP3    H250780   0.644   1.928  11.142 -0.4898  0.9780  2.4677
 9789TIP3   OH250781   4.778   4.399   3.646 -0.5458  0.2969 -0.1723
 9789TIP3    H150782   4.872   4.404   3.662 -0.1712 -1.2718 -1.6552
 9789TIP3    H250783   4.766   4.431   3.557 -1.6738  2.0058  0.5275
 9790TIP3   OH250784   5.687   5.880  10.472  0.0449 -0.4454  0.4917
 9790TIP3    H150785   5.774   5.901  10.506  0.4937 -0.3012 -0.6886
 9790TIP3    H250786   5.637   5.961  10.482 -0.6912 -1.1183  3.2091
 9791TIP3   OH250787   4.251   4.675   2.978 -0.5863  0.0741 -0.4360
 9791TIP3    H150788   4.321   4.686   2.914 -0.3249  1.0794  0.0075
 9791TIP3    H250789   4.293   4.628   3.051  1.2491  5.0959  2.1908
 9792TIP3   OH250790   1.929   2.225  16.176 -0.2464 -0.3428 -0.6203
 9792TIP3    H150791   2.020   2.254  16.177 -0.3182 -0.1223 -0.4707
 9792TIP3    H250792   1.926   2.158  16.244 -0.2016 -0.3349 -0.6101
 9793TIP3   OH250793   6.674   6.216  15.733 -0.0853  0.0587  0.0631
 9793TIP3    H150794   6.762   6.213  15.693 -1.0857  0.2061 -2.3217
 9793TIP3    H250795   6.678   6.150  15.803  2.3530  1.1216  1.0581
 9794TIP3   OH250796   2.167   4.082  15.392 -0.5146  0.7645  0.3849
 9794TIP3    H150797   2.170   4.177  15.398 -0.7761  0.7962  0.0357
 9794TIP3    H250798   2.250   4.052  15.430  0.2206  1.1808 -0.8694
 9795TIP3   OH250799   1.982   6.101  11.681  0.1857  0.3856 -0.2860
 9795TIP3    H150800   1.958   6.175  11.626 -0.7912 -0.6954 -1.3810
 9795TIP3    H250801   1.899   6.068  11.715  0.3789 -1.3452 -1.3613
 9796TIP3   OH250802   1.681   2.813  12.255  0.1522 -0.2530  0.3045
 9796TIP3    H150803   1.617   2.743  12.269 -2.4935  1.9535  0.1703
 9796TIP3    H250804   1.639   2.872  12.192  1.0002  2.8251  2.3827
 9797TIP3   OH250805   4.066   0.803   5.967  0.0571  0.5991  0.1312
 9797TIP3    H150806   4.118   0.726   5.988 -1.4841 -1.2040 -2.1619
 9797TIP3    H250807   4.101   0.872   6.023  2.9146 -1.2083  0.7459
 9798TIP3   OH250808   4.502   6.677   2.914 -0.4353 -0.2099 -0.3651
 9798TIP3    H150809   4.552   6.731   2.975 -1.2864  0.5408 -0.3030
 9798TIP3    H250810   4.526   6.587   2.936  2.5658  0.1456 -1.8236
 9799TIP3   OH250811   5.232   2.500  16.170 -0.1941 -0.1600 -0.8528
 9799TIP3    H150812   5.167   2.480  16.103 -0.4520  0.4606 -0.7998
 9799TIP3    H250813   5.216   2.593  16.191 -0.4335 -0.4668  0.3937
 9800TIP3   OH250814   2.577   2.968   1.461  0.7297  0.1844 -0.5150
 9800TIP3    H150815   2.666   2.933   1.463 -0.1943 -2.3216  0.0447
 9800TIP3    H250816   2.550   2.970   1.553 -0.5787 -1.3545 -0.8255
 9801TIP3   OH250817   1.282   4.881   3.518 -0.5128  0.6542  0.0322
 9801TIP3    H150818   1.196   4.914   3.490 -1.5693  0.0836  2.3761
 9801TIP3    H250819   1.307   4.940   3.590 -0.4460 -1.0201  1.4412
 9802TIP3   OH250820   1.881   2.637   2.703  0.6856 -0.0406 -0.3573
 9802TIP3    H150821   1.844   2.722   2.727 -0.0397  0.2496 -2.3198
 9802TIP3    H250822   1.956   2.658   2.648  1.1965 -0.6827  0.0760
 9803TIP3   OH250823   0.492   3.076  16.671 -0.1648 -0.0581 -0.4904
 9803TIP3    H150824   0.414   3.079  16.726  1.5082  1.1328  2.0465
 9803TIP3    H250825   0.470   3.128  16.594 -1.5365  1.2394  0.7190
 9804TIP3   OH250826   1.962   5.050   2.344 -0.2206  0.0736 -0.3793
 9804TIP3    H150827   1.966   4.955   2.339 -0.0285 -0.0033  0.8714
 9804TIP3    H250828   2.053   5.078   2.346 -0.0141 -0.1043  4.1273
 9805TIP3   OH250829   5.257   0.130  14.131  0.2107  0.2172 -0.0638
 9805TIP3    H150830   5.291   0.057  14.183  2.0526 -1.2712 -3.0823
 9805TIP3    H250831   5.335   0.174  14.098 -0.8514  3.6367  1.5753
 9806TIP3   OH250832   1.128   5.921   6.014 -0.7889 -0.0656  0.6749
 9806TIP3    H150833   1.098   5.878   6.095 -0.2058  1.6335  1.8625
 9806TIP3    H250834   1.053   5.972   5.986 -0.7806 -0.1478  0.5034
 9807TIP3   OH250835   4.167   5.017   3.836 -0.4919 -0.2048  0.1209
 9807TIP3    H150836   4.203   5.044   3.752  1.2977 -0.5380  0.7138
 9807TIP3    H250837   4.212   5.072   3.900 -1.6528 -0.1074  0.8785
 9808TIP3   OH250838   6.691   1.588  15.136 -0.1459  0.3814 -0.1561
 9808TIP3    H150839   6.685   1.672  15.091  0.4024  0.4770 -0.0522
 9808TIP3    H250840   6.775   1.591  15.182 -0.4460  0.0689  0.4305
 9809TIP3   OH250841   5.199   4.005   6.018  0.2768 -0.0886 -0.2194
 9809TIP3    H150842   5.171   4.081   6.068 -0.4935  0.1873 -1.0199
 9809TIP3    H250843   5.187   4.032   5.926 -0.1740 -1.2232 -0.5083
 9810TIP3   OH250844   5.025   2.341  13.461 -0.2224  0.0330 -0.4124
 9810TIP3    H150845   5.112   2.321  13.428 -1.0401 -1.8151 -1.6508
 9810TIP3    H250846   4.982   2.388  13.390 -0.3809  0.5250  0.0089
 9811TIP3   OH250847   5.738   3.186   1.670 -0.4016  0.4101  0.1759
 9811TIP3    H150848   5.694   3.222   1.747  0.3356  0.6099  0.5165
 9811TIP3    H250849   5.763   3.263   1.619  1.5337  0.4552  1.1007
 9812TIP3   OH250850   2.424   5.736   6.042 -0.1677 -0.6453 -0.4050
 9812TIP3    H150851   2.433   5.641   6.051 -0.8811 -0.5825  1.3775
 9812TIP3    H250852   2.330   5.752   6.044 -0.0321  0.1851  0.7095
 9813TIP3   OH250853   2.172   0.063   4.481 -0.0639 -0.1664 -0.2006
 9813TIP3    H150854   2.124   0.122   4.538  0.2830  0.4677 -0.5633
 9813TIP3    H250855   2.212  -0.001   4.541 -1.0932 -0.5162  0.1223
 9814TIP3   OH250856   6.330   5.033  17.438  0.5935 -0.0957 -0.5246
 9814TIP3    H150857   6.273   4.982  17.380 -0.8445  1.8441 -0.9376
 9814TIP3    H250858   6.362   4.969  17.502 -1.4716 -1.4487 -0.7273
 9815TIP3   OH250859   3.305   1.287  15.559  0.3712 -0.3344 -0.2551
 9815TIP3    H150860   3.241   1.353  15.530  0.5768 -0.7547 -1.7283
 9815TIP3    H250861   3.282   1.208  15.510  1.7810 -0.6060 -0.5034
 9816TIP3   OH250862   4.651   5.423   5.467  0.3072 -0.1161 -0.1660
 9816TIP3    H150863   4.737   5.436   5.505 -0.0885 -0.2233  0.7881
 9816TIP3    H250864   4.609   5.509   5.471  1.2742  0.5913 -3.0337
 9817TIP3   OH250865   1.258   0.227   2.799  0.0452 -0.3819  0.2483
 9817TIP3    H150866   1.179   0.250   2.751  0.2248 -1.1005 -0.3972
 9817TIP3    H250867   1.243   0.261   2.887 -1.8420 -2.2903  0.7122
 9818TIP3   OH250868   4.914   2.379   2.073  0.4737  0.1992  0.2262
 9818TIP3    H150869   4.876   2.430   2.144 -0.7314 -0.7277  0.2726
 9818TIP3    H250870   4.846   2.317   2.047  0.8272  0.5789 -1.8357
 9819TIP3   OH250871   2.232   2.955  14.007  0.3732  0.0553 -0.3352
 9819TIP3    H150872   2.147   2.931  14.045 -0.1671  1.2240 -0.7487
 9819TIP3    H250873   2.296   2.910  14.062 -0.4730 -0.0833  0.5756
 9820TIP3   OH250874   2.660   6.644  12.137  0.1978  0.2665  0.0338
 9820TIP3    H150875   2.746   6.608  12.116  0.6329  0.4871  1.3505
 9820TIP3    H250876   2.632   6.594  12.214 -1.5357 -0.8507 -1.2341
 9821TIP3   OH250877   0.189   6.460   0.392 -0.1706 -0.1223 -0.6367
 9821TIP3    H150878   0.101   6.428   0.371  0.5282 -1.7786 -1.1437
 9821TIP3    H250879   0.174   6.527   0.459 -1.7088 -1.3944  0.3607
 9822TIP3   OH250880   3.285   2.820   1.936  0.4704 -0.6779  0.4158
 9822TIP3    H150881   3.202   2.858   1.965  0.5128  1.4797 -1.9397
 9822TIP3    H250882   3.266   2.727   1.924 -1.7256 -0.1919 -0.3415
 9823TIP3   OH250883   4.838   1.663  15.906 -0.0713 -0.0511 -0.1073
 9823TIP3    H150884   4.859   1.627  15.992  0.5219 -1.5498 -0.8382
 9823TIP3    H250885   4.758   1.618  15.880  0.5526 -0.6943 -0.9436
 9824TIP3   OH250886   1.450   0.789  12.614 -0.1631  0.0772 -0.5021
 9824TIP3    H150887   1.463   0.735  12.693  1.7344 -0.9395 -1.4549
 9824TIP3    H250888   1.434   0.725  12.544  1.6305  0.7351 -1.5633
 9825TIP3   OH250889   0.264   5.695   6.691 -0.5635 -0.1591  0.0602
 9825TIP3    H150890   0.332   5.654   6.637 -1.7462 -1.1594 -0.7388
 9825TIP3    H250891   0.220   5.621   6.734 -2.0811  0.3297 -0.5933
 9826TIP3   OH250892   3.853   1.996  14.394  0.1670  0.1395 -0.0706
 9826TIP3    H150893   3.931   2.012  14.341 -0.0114 -1.6630 -0.9448
 9826TIP3    H250894   3.876   2.030  14.481  1.6182  0.3439 -0.5063
 9827TIP3   OH250895   2.492   6.347  15.417  0.3001  0.2834  1.4982
 9827TIP3    H150896   2.417   6.291  15.437  1.5662 -1.3791  1.8371
 9827TIP3    H250897   2.500   6.345  15.322  0.2283  0.0344  1.4992
 9828TIP3   OH250898   5.330   3.332   1.607  0.1482 -1.0113 -0.2019
 9828TIP3    H150899   5.389   3.371   1.543  0.6104 -1.5546 -0.1189
 9828TIP3    H250900   5.285   3.262   1.559 -0.5776 -0.4755 -0.3161
 9829TIP3   OH250901   2.635   5.257  15.110 -0.5324  0.3484 -0.1664
 9829TIP3    H150902   2.557   5.206  15.087 -0.5975 -1.1287  2.8168
 9829TIP3    H250903   2.628   5.271  15.204  2.1830  1.2654  0.0015
 9830TIP3   OH250904   5.153   1.576  12.838  0.3757 -0.6121 -0.4052
 9830TIP3    H150905   5.114   1.491  12.816  1.7267 -1.4206  0.1777
 9830TIP3    H250906   5.219   1.590  12.770 -0.1078  0.1647 -0.7180
 9831TIP3   OH250907   2.839   1.092   3.908  0.5987  0.1590  0.2505
 9831TIP3    H150908   2.871   1.126   3.825 -0.2625 -0.4664 -0.3556
 9831TIP3    H250909   2.820   1.169   3.960 -2.1491  0.7130 -1.4051
 9832TIP3   OH250910   3.443   4.422   0.779 -0.0223 -0.0114  1.1009
 9832TIP3    H150911   3.348   4.427   0.768  0.1084  3.5617  0.5071
 9832TIP3    H250912   3.469   4.347   0.724 -2.1618  1.1742 -1.8275
 9833TIP3   OH250913   6.545   1.824   6.543  0.2318  0.4509  0.0875
 9833TIP3    H150914   6.549   1.811   6.449  0.4392 -0.3591  0.2071
 9833TIP3    H250915   6.453   1.810   6.566  0.4222 -0.6948  0.1923
 9834TIP3   OH250916   2.902   3.786  10.886 -0.3729  1.0157 -0.2389
 9834TIP3    H150917   2.996   3.792  10.900 -0.0444  0.5313 -1.9226
 9834TIP3    H250918   2.889   3.698  10.850 -1.4199  1.1850 -0.3081
 9835TIP3   OH250919   2.656   0.580   4.083 -0.6940 -0.1463 -0.0924
 9835TIP3    H150920   2.576   0.529   4.071 -1.0747 -0.0042  1.5524
 9835TIP3    H250921   2.721   0.516   4.111 -0.9380  0.0847  1.0876
 9836TIP3   OH250922   0.975   1.905  14.227  0.1689  0.0092 -0.0856
 9836TIP3    H150923   0.908   1.970  14.204 -0.2856 -0.0058  1.1040
 9836TIP3    H250924   1.012   1.938  14.309  1.3540 -0.1989 -0.5172
 9837TIP3   OH250925   4.461   1.944  15.102  0.5126  0.0345  0.6379
 9837TIP3    H150926   4.462   1.848  15.110 -1.1980 -0.0714 -0.0578
 9837TIP3    H250927   4.378   1.971  15.141 -0.6812  0.8734 -2.1749
 9838TIP3   OH250928   4.436   4.864  10.802  0.3402 -0.1806 -0.0266
 9838TIP3    H150929   4.437   4.907  10.717  0.0472  1.0936  0.5843
 9838TIP3    H250930   4.365   4.801  10.797 -0.3363  0.5997 -0.4061
 9839TIP3   OH250931   4.422   2.690   5.881 -0.3254 -1.0156 -0.0585
 9839TIP3    H150932   4.343   2.714   5.929  1.3217  0.5164  2.0205
 9839TIP3    H250933   4.494   2.702   5.943  1.9528  0.9483 -2.7945
 9840TIP3   OH250934   6.459   5.800   5.334 -0.6578  0.5427 -0.5558
 9840TIP3    H150935   6.383   5.854   5.355 -0.1225  0.6282  1.2616
 9840TIP3    H250936   6.436   5.712   5.363 -0.0022  0.6062  0.1896
 9841TIP3   OH250937   3.030   4.047   4.833  0.2422 -0.4908  0.4395
 9841TIP3    H150938   3.092   3.998   4.778  1.3330  0.0632  1.1414
 9841TIP3    H250939   2.975   3.980   4.872  2.2619 -1.2989  2.0632
 9842TIP3   OH250940   1.616   2.356   4.584 -0.2699 -0.2001 -0.4209
 9842TIP3    H150941   1.581   2.404   4.659  0.2899 -0.2956 -0.0916
 9842TIP3    H250942   1.540   2.338   4.529 -0.8208 -0.8368  0.5198
 9843TIP3   OH250943   5.777   5.454   2.524  0.0127  0.0159  0.3148
 9843TIP3    H150944   5.756   5.535   2.478  0.9299 -0.3633 -0.8137
 9843TIP3    H250945   5.869   5.439   2.504 -0.5170 -2.1285 -0.8153
 9844TIP3   OH250946   4.551   4.803   1.010 -0.0415  0.6522 -0.0040
 9844TIP3    H150947   4.554   4.817   0.916 -0.6729  4.7253  0.4057
 9844TIP3    H250948   4.463   4.830   1.036 -0.4490 -1.8988  1.6514
 9845TIP3   OH250949   3.246   3.583   3.962  0.0353  0.1900  0.2120
 9845TIP3    H150950   3.213   3.494   3.971 -0.6847  0.4860  0.5455
 9845TIP3    H250951   3.181   3.637   4.006  0.1242  0.9521 -0.5754
 9846TIP3   OH250952   5.834   4.937   0.356  0.1228 -0.2563 -0.0050
 9846TIP3    H150953   5.748   4.930   0.317 -0.4705 -0.8104  1.3227
 9846TIP3    H250954   5.866   5.023   0.329 -1.6654  0.7977  1.0346
 9847TIP3   OH250955   4.061   0.097   1.441 -0.2456 -0.1007 -0.0299
 9847TIP3    H150956   3.992   0.124   1.381  0.2811  1.3794 -0.0148
 9847TIP3    H250957   4.037   0.136   1.525  0.2652 -0.1363  0.1370
 9848TIP3   OH250958   3.764   5.246   2.396  0.3122  0.0242 -0.3908
 9848TIP3    H150959   3.810   5.258   2.479  0.6483 -1.7064 -0.2972
 9848TIP3    H250960   3.680   5.290   2.408 -0.2649 -1.4461  1.4191
 9849TIP3   OH250961   0.532   0.196  14.271 -0.5299  0.0329 -0.5121
 9849TIP3    H150962   0.559   0.118  14.321 -0.1139  2.0627  2.7792
 9849TIP3    H250963   0.459   0.232  14.322 -1.8326  0.9433 -2.8946
 9850TIP3   OH250964   0.910   0.570   4.362 -0.1048  0.1339 -0.3962
 9850TIP3    H150965   0.909   0.626   4.439 -0.8840 -0.0024 -0.2965
 9850TIP3    H250966   0.969   0.615   4.301  0.4798  0.2658  0.2514
 9851TIP3   OH250967   2.979   2.144   3.288  0.4132 -0.0306  0.5725
 9851TIP3    H150968   3.027   2.225   3.303 -0.2111  0.2249  1.2303
 9851TIP3    H250969   2.955   2.113   3.376 -2.2552  0.8283  0.2365
 9852TIP3   OH250970   2.927   3.263   0.494  0.2006 -0.0592 -0.7295
 9852TIP3    H150971   2.981   3.238   0.569  0.4242  1.6631 -0.2784
 9852TIP3    H250972   2.886   3.181   0.466  0.4067 -0.8098  1.0343
 9853TIP3   OH250973   6.437   2.008   2.373 -0.6956 -0.9234 -0.3611
 9853TIP3    H150974   6.357   2.011   2.321 -0.0457 -0.8055 -1.3826
 9853TIP3    H250975   6.503   1.973   2.313 -0.0578 -1.3508  0.5685
 9854TIP3   OH250976   1.781   3.101  13.414 -0.2290  0.6444  0.2710
 9854TIP3    H150977   1.817   3.115  13.502 -0.0327 -0.0580  0.3098
 9854TIP3    H250978   1.855   3.069  13.363 -0.6712 -0.3131  0.2179
 9855TIP3   OH250979   4.282   3.744   5.352 -0.4736 -0.2558 -0.6185
 9855TIP3    H150980   4.292   3.837   5.374 -0.4630 -0.1976 -0.8598
 9855TIP3    H250981   4.187   3.729   5.355 -0.4354 -0.3886  0.0137
 9856TIP3   OH250982   2.197   0.171  12.322 -0.1164 -0.1925  0.2179
 9856TIP3    H150983   2.261   0.100  12.312  0.5375  0.3721  0.3277
 9856TIP3    H250984   2.240   0.247  12.284 -0.2518  0.4641  1.3359
 9857TIP3   OH250985   3.210   4.587  15.388 -0.3564 -0.3355  0.2170
 9857TIP3    H150986   3.249   4.515  15.339 -3.1858 -0.2064 -2.5094
 9857TIP3    H250987   3.155   4.545  15.453  0.6776 -0.5547  0.9687
 9858TIP3   OH250988   2.358   0.396  16.129 -0.3553  0.1473  0.5879
 9858TIP3    H150989   2.433   0.352  16.167  0.0276 -0.1049 -0.4106
 9858TIP3    H250990   2.284   0.374  16.186  0.0226 -0.9387  0.6732
 9859TIP3   OH250991   4.738   5.771  16.552  0.4702  0.1353 -0.2114
 9859TIP3    H150992   4.824   5.785  16.591  0.6651 -1.0494 -0.1836
 9859TIP3    H250993   4.704   5.693  16.597 -1.2111  1.3548  0.7720
 9860TIP3   OH250994   0.615   2.880   0.148  0.1094  0.5231 -0.1959
 9860TIP3    H150995   0.631   2.892   0.242 -0.5638  0.1875 -0.0337
 9860TIP3    H250996   0.690   2.922   0.105 -0.7475  2.8266  0.4157
 9861TIP3   OH250997   5.222   5.132   6.036  0.2309  0.0699 -0.0483
 9861TIP3    H150998   5.130   5.138   6.012  0.3412 -1.7697 -1.1378
 9861TIP3    H250999   5.238   5.038   6.047  2.3762  0.1610 -1.7143
 9862TIP3   OH251000   5.562   0.586  13.499 -0.3092 -0.3350 -0.4738
 9862TIP3    H151001   5.607   0.576  13.415 -0.2854 -0.8359 -0.4091
 9862TIP3    H251002   5.497   0.516  13.499 -0.8286  0.1395 -0.3980
 9863TIP3   OH251003   5.285   2.853   6.268 -0.2934  0.1874 -0.2902
 9863TIP3    H151004   5.280   2.758   6.252 -1.0182  0.1079  0.3521
 9863TIP3    H251005   5.375   2.876   6.243  0.2071 -0.8467  0.4710
 9864TIP3   OH251006   0.105   1.441   3.285  0.2622 -0.1915 -0.3671
 9864TIP3    H151007   0.089   1.359   3.332  0.6083  0.1223  0.3222
 9864TIP3    H251008   0.145   1.415   3.203 -0.4300 -0.7611 -0.5330
 9865TIP3   OH251009   6.075   3.275   5.417  1.0315 -0.7170  0.4134
 9865TIP3    H151010   6.016   3.200   5.410  1.0842 -0.6756 -0.7283
 9865TIP3    H251011   6.102   3.292   5.327  1.3445  0.4145  0.7056
 9866TIP3   OH251012   5.697   2.002  13.463 -0.0568  0.1078 -0.5869
 9866TIP3    H151013   5.657   1.919  13.487 -0.7343  0.6161  0.0612
 9866TIP3    H251014   5.631   2.068  13.484 -0.4043  0.6750 -3.0695
 9867TIP3   OH251015   2.754   2.163   1.319 -0.0777  0.1654  0.1168
 9867TIP3    H151016   2.776   2.241   1.267 -1.3292  0.0623 -0.6027
 9867TIP3    H251017   2.828   2.104   1.306  0.1161  0.5728 -0.7036
 9868TIP3   OH251018   1.040   6.541  12.930 -0.3671 -0.2505  0.7856
 9868TIP3    H151019   1.070   6.606  12.994 -0.0331 -1.4929  1.9349
 9868TIP3    H251020   0.965   6.500  12.971  0.1148 -1.3647  0.5833
 9869TIP3   OH251021   4.933   0.130   2.509 -0.4387 -0.5050  0.4983
 9869TIP3    H151022   4.971   0.179   2.436 -0.5227  0.0107  0.7989
 9869TIP3    H251023   5.009   0.101   2.560 -0.3774 -0.9010  0.1948
 9870TIP3   OH251024   3.922   4.394  12.090  0.4653 -0.1956  0.1401
 9870TIP3    H151025   3.963   4.481  12.088 -1.0663  0.5541 -1.0278
 9870TIP3    H251026   3.970   4.344  12.024 -0.7949  0.8737 -1.6929
 9871TIP3   OH251027   3.408   2.212   3.058  0.1035 -0.5242  0.5298
 9871TIP3    H151028   3.480   2.149   3.052 -0.1953 -0.9074  0.9675
 9871TIP3    H251029   3.445   2.293   3.020  0.9498 -0.5529  1.2584
 9872TIP3   OH251030   4.347   0.549   0.430 -0.1841 -0.0517  0.4668
 9872TIP3    H151031   4.341   0.454   0.421  1.1497 -0.1547  0.4753
 9872TIP3    H251032   4.425   0.563   0.484 -0.1472  1.0638  0.1421
 9873TIP3   OH251033   1.344   3.233  13.197  0.1723 -0.1889 -1.0056
 9873TIP3    H151034   1.343   3.234  13.101  2.8672 -1.4948 -1.1399
 9873TIP3    H251035   1.423   3.184  13.220  0.3759  1.2696  1.8957
 9874TIP3   OH251036   3.220   5.731   0.443  0.4016  0.4158 -0.1939
 9874TIP3    H151037   3.229   5.766   0.532  3.0074 -0.1881 -0.1555
 9874TIP3    H251038   3.127   5.745   0.422 -0.0666  1.5195  2.1974
 9875TIP3   OH251039   1.213   3.396   0.787  0.0793  0.0710 -0.2256
 9875TIP3    H151040   1.236   3.336   0.858  0.3469  1.7330  1.1721
 9875TIP3    H251041   1.275   3.469   0.797 -0.9067  1.0803 -1.2026
 9876TIP3   OH251042   5.788   3.992  13.756 -0.2265 -0.3612 -0.0118
 9876TIP3    H151043   5.711   4.032  13.715 -0.3377 -0.2503  0.3016
 9876TIP3    H251044   5.843   3.965  13.683  0.3805  1.3653 -0.2449
 9877TIP3   OH251045   5.135   2.750   2.672  0.2448 -0.4742 -0.0551
 9877TIP3    H151046   5.117   2.723   2.582 -0.2425  0.6212 -0.2970
 9877TIP3    H251047   5.192   2.825   2.664  2.5179 -2.0219  0.6463
 9878TIP3   OH251048   5.455   5.467   5.311 -0.2176 -0.0813 -0.0284
 9878TIP3    H151049   5.511   5.525   5.260  0.5750 -0.0302  0.8784
 9878TIP3    H251050   5.369   5.510   5.312  0.6392  1.7792  1.6876
 9879TIP3   OH251051   1.579   3.473   2.049 -1.0960 -0.2054  0.4763
 9879TIP3    H151052   1.578   3.404   1.983  0.6864  0.5874 -0.4457
 9879TIP3    H251053   1.631   3.435   2.121 -2.6421 -0.8913  1.2894
 9880TIP3   OH251054   5.887   5.834  16.917  0.0913 -0.2714 -0.0126
 9880TIP3    H151055   5.813   5.863  16.969 -0.5427 -0.7334 -0.6308
 9880TIP3    H251056   5.882   5.738  16.917 -0.2212 -0.2833 -1.2974
 9881TIP3   OH251057   2.600   6.614  16.110 -0.1971  0.4150 -0.1513
 9881TIP3    H151058   2.605   6.521  16.130  0.1880  0.6719  1.0326
 9881TIP3    H251059   2.581   6.618  16.016 -1.4603 -0.8549  0.0217
 9882TIP3   OH251060   3.894   2.149  10.924 -0.0274  0.5167 -0.4480
 9882TIP3    H151061   3.985   2.166  10.948  0.2509 -0.7780 -0.5306
 9882TIP3    H251062   3.854   2.119  11.005 -0.2561  0.5817 -0.5366
 9883TIP3   OH251063   2.698   3.189  10.947 -0.5792 -0.2369  0.5073
 9883TIP3    H151064   2.719   3.270  10.994 -1.0232  0.0599  0.2031
 9883TIP3    H251065   2.718   3.209  10.855  0.8318 -0.9985  0.6214
 9884TIP3   OH251066   5.936   4.832   2.521 -0.1143  0.4538 -0.5437
 9884TIP3    H151067   5.972   4.775   2.453  1.5416  1.6016 -0.6905
 9884TIP3    H251068   5.969   4.795   2.603  0.4472  0.8316 -0.5953
 9885TIP3   OH251069   4.227   6.541  14.861 -0.1680 -0.0242  0.0814
 9885TIP3    H151070   4.181   6.624  14.875  1.2204  0.6186  1.0119
 9885TIP3    H251071   4.299   6.543  14.924  1.8336 -0.4900 -2.0737
 9886TIP3   OH251072   4.679   1.709  14.524 -0.7007 -0.0871 -0.1739
 9886TIP3    H151073   4.691   1.667  14.609  2.4514  2.1698  0.6684
 9886TIP3    H251074   4.676   1.636  14.462 -0.9823 -1.7148  1.6640
 9887TIP3   OH251075   6.707   4.720   3.238 -0.3141 -0.3966  0.2001
 9887TIP3    H151076   6.653   4.646   3.263 -0.1960 -0.8765 -0.9105
 9887TIP3    H251077   6.760   4.688   3.164 -0.1831  0.7495 -0.2295
 9888TIP3   OH251078   5.705   5.654   1.339  0.3087 -0.2052 -0.4512
 9888TIP3    H151079   5.636   5.590   1.357  0.2403 -0.2023 -0.6898
 9888TIP3    H251080   5.694   5.721   1.406  1.5295 -1.3329  0.9508
 9889TIP3   OH251081   3.632   1.727  12.911 -0.2338 -0.5507  0.2042
 9889TIP3    H151082   3.669   1.643  12.941 -0.4337 -0.3292  1.1079
 9889TIP3    H251083   3.545   1.730  12.950 -0.3131 -0.0194 -0.0053
 9890TIP3   OH251084   3.750   6.146   4.931 -0.2798  0.4620  0.4094
 9890TIP3    H151085   3.753   6.235   4.894  2.7047  0.4632  0.4080
 9890TIP3    H251086   3.791   6.091   4.865 -0.0398 -0.5329  1.3544
 9891TIP3   OH251087   6.592   6.257  13.393 -0.8185  0.2047  0.1314
 9891TIP3    H151088   6.507   6.298  13.375 -0.8093 -0.7304 -2.3430
 9891TIP3    H251089   6.582   6.167  13.363 -0.0298 -0.9860  3.1521
 9892TIP3   OH251090   2.879   2.866   0.208  0.4289 -0.2006 -0.1836
 9892TIP3    H151091   2.962   2.855   0.162 -0.8029 -0.7786 -2.3602
 9892TIP3    H251092   2.823   2.797   0.175 -1.5843  1.4017 -0.3048
 9893TIP3   OH251093   1.375   3.277  14.014 -0.1324 -0.3617  0.9335
 9893TIP3    H151094   1.454   3.279  14.069  0.3895  1.0506  0.1919
 9893TIP3    H251095   1.402   3.226  13.937 -0.4467 -1.2074  1.3746
 9894TIP3   OH251096   3.362   2.835  15.037  0.0741 -0.1719  0.0806
 9894TIP3    H151097   3.436   2.791  14.996 -0.7142 -0.1237 -1.4991
 9894TIP3    H251098   3.308   2.764  15.072  0.3451 -0.2671  0.3063
 9895TIP3   OH251099   1.597   1.294  12.186 -0.3875  0.6274 -0.4709
 9895TIP3    H151100   1.548   1.241  12.249  1.3905 -0.4466  0.0600
 9895TIP3    H251101   1.598   1.382  12.225 -1.4022  0.5486 -0.2393
 9896TIP3   OH251102   6.073   3.653  13.981 -0.0595  0.0837 -0.5377
 9896TIP3    H151103   6.096   3.667  14.072 -0.2710  0.1910 -0.5009
 9896TIP3    H251104   6.151   3.613  13.942 -0.2523 -0.7117 -0.1250
 9897TIP3   OH251105   0.710   3.926  16.241  0.3456  0.4473 -0.0457
 9897TIP3    H151106   0.688   3.950  16.151 -0.6165 -1.3703 -0.3296
 9897TIP3    H251107   0.770   3.995  16.270 -3.0833  3.8503 -0.3526
 9898TIP3   OH251108   0.799   4.213   0.810 -0.7397 -0.0996  0.0158
 9898TIP3    H151109   0.844   4.283   0.765  1.4507  0.1392  2.3343
 9898TIP3    H251110   0.745   4.257   0.876 -1.8475 -0.5114 -0.5894
 9899TIP3   OH251111   6.660   4.516  14.669  0.6192  0.0553 -0.6869
 9899TIP3    H151112   6.596   4.584  14.647  0.3451 -0.4251 -1.4086
 9899TIP3    H251113   6.660   4.513  14.764  0.0425  0.5122 -0.6669
 9900TIP3   OH251114   4.819   2.594   3.909  0.5270 -0.0882  0.4289
 9900TIP3    H151115   4.813   2.502   3.885  1.0808  0.4917 -2.3247
 9900TIP3    H251116   4.913   2.609   3.922  0.5762  0.3067 -0.3084
 9901TIP3   OH251117   1.862   6.709   5.987 -0.5673 -0.4464 -0.4479
 9901TIP3    H151118   1.819   6.690   6.070  0.9897 -0.5612  0.3795
 9901TIP3    H251119   1.885   6.802   5.993  0.7524 -0.7677 -0.1259
 9902TIP3   OH251120   1.066   5.844   2.541  0.8305  0.1297  0.1471
 9902TIP3    H151121   1.012   5.916   2.508 -0.3028 -1.3465 -1.4047
 9902TIP3    H251122   1.012   5.804   2.610  1.2761  0.5014  0.7156
 9903TIP3   OH251123   3.755   6.473   2.767  0.1379  0.1272  0.1700
 9903TIP3    H151124   3.705   6.466   2.849 -1.4911  0.0569 -0.7947
 9903TIP3    H251125   3.757   6.566   2.748 -1.3295  0.0013 -0.7663
 9904TIP3   OH251126   3.178   6.490   2.002 -0.4324 -0.0232  0.3600
 9904TIP3    H151127   3.259   6.439   2.006 -0.3119  0.1776  0.4994
 9904TIP3    H251128   3.147   6.493   2.093 -0.5657 -0.0498  0.3160
 9905TIP3   OH251129   6.272   0.185   2.229  0.1417 -0.7005  0.1440
 9905TIP3    H151130   6.253   0.220   2.316  1.4854 -1.2169  0.6859
 9905TIP3    H251131   6.363   0.209   2.214  0.3636 -1.8703 -0.4838
 9906TIP3   OH251132   3.223   0.319  14.680  0.2129  0.4725 -0.0867
 9906TIP3    H151133   3.171   0.319  14.600 -0.3602 -0.7708  0.2519
 9906TIP3    H251134   3.169   0.273  14.744  1.5361 -0.4668  0.4095
 9907TIP3   OH251135   1.672   5.740  17.190 -0.1510  0.1716 -0.5105
 9907TIP3    H151136   1.600   5.678  17.176  0.1298 -0.1375 -0.6052
 9907TIP3    H251137   1.723   5.702  17.262 -0.5114  0.7838  0.0718
 9908TIP3   OH251138   1.841   0.580   3.290 -0.0018  0.4226 -0.0135
 9908TIP3    H151139   1.800   0.494   3.298  0.0287  0.4671  0.6676
 9908TIP3    H251140   1.848   0.612   3.380  0.1993  1.0393 -0.2427
 9909TIP3   OH251141   5.355   0.120   3.575 -0.7271 -0.2912 -0.4376
 9909TIP3    H151142   5.286   0.056   3.596 -0.0140 -1.2527 -0.9202
 9909TIP3    H251143   5.390   0.089   3.491  0.1927  0.2717 -0.2674
 9910TIP3   OH251144   2.180   3.196  12.322  0.1784 -0.1460 -0.7166
 9910TIP3    H151145   2.182   3.290  12.303  1.7986  0.0246  0.1830
 9910TIP3    H251146   2.224   3.187  12.406  1.6961 -1.8877 -1.6166
 9911TIP3   OH251147   4.756   4.519   4.716  0.2544 -0.5032 -0.3437
 9911TIP3    H151148   4.712   4.604   4.711  0.2615 -0.4740  0.0543
 9911TIP3    H251149   4.822   4.530   4.785 -0.8090 -1.3002  0.8499
 9912TIP3   OH251150   2.064   1.199   0.725 -0.3755 -0.3968 -0.1289
 9912TIP3    H151151   2.147   1.159   0.700 -0.4464 -0.5995 -0.0402
 9912TIP3    H251152   1.998   1.147   0.680 -0.4626 -0.3230 -0.0856
 9913TIP3   OH251153   4.722   0.337   3.376 -0.2413 -0.2129  0.1739
 9913TIP3    H151154   4.649   0.377   3.423  0.4756  0.0796  1.0654
 9913TIP3    H251155   4.712   0.367   3.286 -0.3941  1.0235  0.5839
 9914TIP3   OH251156   4.157   1.569   4.012  0.5178 -0.5032  0.6266
 9914TIP3    H151157   4.084   1.528   3.964  0.3828  0.2063  0.1994
 9914TIP3    H251158   4.124   1.657   4.034  2.0555  0.7591 -1.6910
 9915TIP3   OH251159   6.498   6.163   2.016 -0.2728 -0.1189 -0.2955
 9915TIP3    H151160   6.512   6.073   2.045 -1.1689 -0.2577 -0.2652
 9915TIP3    H251161   6.565   6.214   2.062  1.0179 -0.9172 -1.2179
 9916TIP3   OH251162   2.425   6.145   1.902 -0.0077 -0.6775 -0.3181
 9916TIP3    H151163   2.358   6.201   1.863  0.6275  2.6084  2.7526
 9916TIP3    H251164   2.508   6.180   1.870  0.4156  0.5578  1.8935
 9917TIP3   OH251165   6.445   5.543   1.150  0.8590  0.2751 -0.5390
 9917TIP3    H151166   6.417   5.634   1.136 -0.7185 -0.0804  0.1715
 9917TIP3    H251167   6.495   5.546   1.232 -0.5981  0.2533  0.3818
 9918TIP3   OH251168   0.864   2.484   1.947  0.5240 -0.0900 -0.2095
 9918TIP3    H151169   0.778   2.524   1.939 -1.2328 -2.9890  1.9999
 9918TIP3    H251170   0.916   2.547   1.996 -1.4351  0.4029  1.3325
 9919TIP3   OH251171   3.011   3.102  17.397  0.1643 -0.3932  0.1044
 9919TIP3    H151172   2.920   3.127  17.386  1.1732  2.9404 -2.9929
 9919TIP3    H251173   3.010   3.006  17.401 -3.4282 -0.4582  0.7823
 9920TIP3   OH251174   1.943   5.853   2.873  0.2440 -0.0760  0.2146
 9920TIP3    H151175   1.935   5.778   2.932 -0.4866  0.4928  0.8605
 9920TIP3    H251176   1.872   5.912   2.899 -0.2371  0.1038 -1.3557
 9921TIP3   OH251177   6.143   4.891  14.058  0.0723 -0.7272 -0.5419
 9921TIP3    H151178   6.116   4.827  14.124 -0.3409 -0.0096 -0.0034
 9921TIP3    H251179   6.223   4.930  14.094 -0.3640 -0.0628 -0.2639
 9922TIP3   OH251180   0.821   0.616   1.683 -0.3730  0.4091 -0.2715
 9922TIP3    H151181   0.787   0.641   1.597 -1.9059  0.0481  0.1924
 9922TIP3    H251182   0.888   0.681   1.702  0.3405  0.2099 -1.9356
 9923TIP3   OH251183   2.980   0.612  13.044  0.8976 -0.3936  0.2246
 9923TIP3    H151184   3.016   0.525  13.058 -1.0975 -1.2639  0.2071
 9923TIP3    H251185   2.952   0.612  12.952 -0.5393 -0.3068  0.6427
 9924TIP3   OH251186   4.226   2.410   0.556 -0.1529  0.0559  0.3610
 9924TIP3    H151187   4.253   2.470   0.627 -0.9257  1.2559 -0.3188
 9924TIP3    H251188   4.168   2.463   0.502 -1.8298 -1.6696  0.3750
 9925TIP3   OH251189   2.005   2.890   0.045 -0.2236  0.4579 -0.0193
 9925TIP3    H151190   1.988   2.800   0.074 -0.9319  0.5560 -0.1217
 9925TIP3    H251191   1.998   2.942   0.125  1.0411  0.3303  0.2021
 9926TIP3   OH251192   4.077   6.638   1.163 -0.1239  0.3046 -0.9605
 9926TIP3    H151193   4.155   6.587   1.140 -0.9588 -0.0605 -3.2546
 9926TIP3    H251194   4.048   6.602   1.246  0.7913 -1.2008 -1.2664
 9927TIP3   OH251195   3.557   2.163  15.561  0.2224  0.1236  0.2323
 9927TIP3    H151196   3.515   2.248  15.576 -0.6914  0.1424 -2.0347
 9927TIP3    H251197   3.645   2.186  15.530 -0.2427  0.3339 -1.0336
 9928TIP3   OH251198   1.359   3.107   6.175  0.3670  0.8136 -0.0206
 9928TIP3    H151199   1.389   3.073   6.259 -1.8658 -2.1422 -0.2463
 9928TIP3    H251200   1.294   3.173   6.199 -2.3246 -1.9114  0.8488
 9929TIP3   OH251201   3.731   5.849   3.032  0.4188  0.0555 -0.8502
 9929TIP3    H151202   3.783   5.870   3.110  0.6478  1.0230 -1.2483
 9929TIP3    H251203   3.653   5.806   3.067  3.0350 -5.0460 -0.4335
 9930TIP3   OH251204   1.318   5.012   3.770  0.0692 -0.4943  0.4709
 9930TIP3    H151205   1.294   5.054   3.853  3.0206  3.1023 -0.2161
 9930TIP3    H251206   1.389   4.952   3.794  0.4080 -0.0130  0.7079
 9931TIP3   OH251207   5.105   5.950  12.767  0.3396 -0.2939 -1.0320
 9931TIP3    H151208   5.094   6.043  12.786 -3.7157 -0.8708  0.3312
 9931TIP3    H251209   5.053   5.935  12.689 -0.9487 -1.7359  0.0420
 9932TIP3   OH251210   4.439   1.375  12.135 -0.7619  0.3627 -0.2448
 9932TIP3    H151211   4.445   1.354  12.042  0.2804  0.7149 -0.2613
 9932TIP3    H251212   4.434   1.471  12.138  0.4884  0.4225  0.1187
 9933TIP3   OH251213   1.035   0.169   1.743 -0.5601  0.8635 -0.0354
 9933TIP3    H151214   1.054   0.210   1.827 -1.5424 -0.6483  0.9770
 9933TIP3    H251215   1.023   0.243   1.682 -0.2100  1.9895  1.2231
 9934TIP3   OH251216   4.588   4.748   3.446  0.2583 -0.4796  0.1737
 9934TIP3    H151217   4.516   4.788   3.495  0.1423 -2.4561  1.7059
 9934TIP3    H251218   4.645   4.822   3.425 -0.6243  0.7043  1.6956
 9935TIP3   OH251219   2.238   0.221  11.376 -0.6875 -0.3620  0.3408
 9935TIP3    H151220   2.289   0.287  11.329 -0.0543 -0.2716  1.1437
 9935TIP3    H251221   2.222   0.260  11.462 -1.6342 -0.6243  0.2939
 9936TIP3   OH251222   3.066   3.067  12.474 -0.2895  0.3801 -0.1423
 9936TIP3    H151223   3.131   3.064  12.544 -0.9947  0.8344  0.5334
 9936TIP3    H251224   3.042   2.976  12.459 -1.6640  0.4066  1.6517
 9937TIP3   OH251225   1.935   0.447  11.981 -0.0645 -0.4963 -0.6393
 9937TIP3    H151226   1.943   0.492  11.897  1.7565  0.1027 -0.2028
 9937TIP3    H251227   1.991   0.497  12.040 -1.2088 -0.9734  0.9157
 9938TIP3   OH251228   4.084   5.317  14.339 -0.0527 -0.1288  0.4033
 9938TIP3    H151229   3.988   5.314  14.341 -0.1160  1.1034  0.0577
 9938TIP3    H251230   4.107   5.286  14.251 -0.2586  1.4224 -0.2334
 9939TIP3   OH251231   1.703   1.032   1.790  0.3276  0.4397 -0.0485
 9939TIP3    H151232   1.762   1.084   1.735  1.5570 -0.2297  0.6034
 9939TIP3    H251233   1.616   1.064   1.768  0.8703  0.9334 -1.5936
 9940TIP3   OH251234   2.568   4.522   1.892 -0.1345  0.2238  0.1746
 9940TIP3    H151235   2.549   4.514   1.985  2.3947 -0.1910  0.7091
 9940TIP3    H251236   2.576   4.431   1.862 -2.0997  0.3009 -0.7854
 9941TIP3   OH251237   1.747   1.023   3.966  0.4373 -0.4228 -0.4129
 9941TIP3    H151238   1.678   1.085   3.992  0.9667  1.0312 -2.2173
 9941TIP3    H251239   1.727   0.943   4.014 -2.0923  0.1714 -0.3301
 9942TIP3   OH251240   3.983   0.028  13.187 -0.2152 -0.1410 -0.8244
 9942TIP3    H151241   3.970   0.019  13.093 -0.5659 -1.5130 -0.6670
 9942TIP3    H251242   3.895   0.019  13.225 -0.1147  0.6583 -0.3662
 9943TIP3   OH251243   5.290   1.834   1.187 -0.1738 -0.0768  0.7487
 9943TIP3    H151244   5.385   1.831   1.175 -0.3929 -0.8409 -1.1307
 9943TIP3    H251245   5.260   1.901   1.126 -0.7762  0.9892  2.1607
 9944TIP3   OH251246   3.156   3.869   4.135  0.6455 -0.3248  0.0189
 9944TIP3    H151247   3.087   3.802   4.136 -0.3421  0.6139 -1.0305
 9944TIP3    H251248   3.180   3.880   4.227 -1.4558  0.1209  0.5830
 9945TIP3   OH251249   3.369   1.127   4.529 -0.0072 -0.8442 -0.2979
 9945TIP3    H151250   3.349   1.208   4.482  2.0455  0.3312  0.7257
 9945TIP3    H251251   3.415   1.156   4.608 -1.1147 -2.9128  1.1797
 9946TIP3   OH251252   3.192   6.720   4.747 -0.1953  0.1510 -0.2930
 9946TIP3    H151253   3.283   6.715   4.776 -0.1906  1.3623 -0.0762
 9946TIP3    H251254   3.141   6.704   4.826 -0.1777 -0.1044 -0.3318
 9947TIP3   OH251255   6.747   0.132   0.035  0.7723 -0.4912  0.0547
 9947TIP3    H151256   6.821   0.079   0.064  0.9356 -0.4836 -0.3420
 9947TIP3    H251257   6.724   0.096  -0.051 -0.2160 -1.0366  0.5271
 9948TIP3   OH251258   4.018   3.444  15.662 -0.2396 -0.1229  0.2018
 9948TIP3    H151259   4.099   3.479  15.627 -0.4381  0.1085 -0.0305
 9948TIP3    H251260   4.012   3.355  15.625 -1.4178  0.7876 -1.9785
 9949TIP3   OH251261   5.042   4.437   0.122 -0.2558 -0.1664 -0.0617
 9949TIP3    H151262   5.000   4.358   0.086  0.5058 -1.1318  1.0837
 9949TIP3    H251263   5.131   4.408   0.145 -0.5163  0.5406  1.9913
 9950TIP3   OH251264   0.896   4.401   0.346 -0.1350  0.8340 -0.1482
 9950TIP3    H151265   0.840   4.439   0.414  0.9478  2.4786 -0.1164
 9950TIP3    H251266   0.866   4.310   0.339 -3.0538  1.7122 -0.4525
 9951TIP3   OH251267   0.428   0.616  12.891 -0.2072 -0.0038 -0.2464
 9951TIP3    H151268   0.507   0.647  12.935 -0.4457 -0.3706  0.4671
 9951TIP3    H251269   0.432   0.520  12.899 -1.7015  0.0226  1.6192
 9952TIP3   OH251270   2.413   6.242   1.261 -0.3694 -0.0377  0.7081
 9952TIP3    H151271   2.365   6.316   1.223  1.6496  0.1030 -1.8187
 9952TIP3    H251272   2.505   6.268   1.257  0.2960 -2.1924  0.9318
 9953TIP3   OH251273   4.286   4.040   4.407 -0.2972  0.0885  0.7253
 9953TIP3    H151274   4.280   4.036   4.502 -1.0407  0.1983  0.6937
 9953TIP3    H251275   4.243   3.961   4.376 -0.9532  0.5347  0.4668
 9954TIP3   OH251276   4.663   3.457  15.682 -0.3856  0.0854 -0.3382
 9954TIP3    H151277   4.681   3.380  15.629 -1.4383 -0.5178  0.1314
 9954TIP3    H251278   4.683   3.531  15.625  4.4298 -0.3425  0.3959
 9955TIP3   OH251279   6.151   6.048  12.016 -0.1441  0.3210  0.3854
 9955TIP3    H151280   6.115   6.113  12.077  0.8613 -0.8973  2.3845
 9955TIP3    H251281   6.222   6.007  12.064  1.9270  0.4933 -2.3048
 9956TIP3   OH251282   4.977   3.237   3.170 -0.2005  0.2474  0.0571
 9956TIP3    H151283   4.940   3.272   3.251 -0.5275 -1.1678  0.5581
 9956TIP3    H251284   5.065   3.274   3.166  0.0809 -0.1942  1.4385
 9957TIP3   OH251285   3.263   4.339   6.135 -0.1872  0.8084  0.4501
 9957TIP3    H151286   3.350   4.377   6.121 -0.4846  1.6562  0.8477
 9957TIP3    H251287   3.261   4.318   6.228 -0.4679  0.9245  0.4697
 9958TIP3   OH251288   4.771   2.260   2.486 -0.6800 -0.3066 -0.4569
 9958TIP3    H151289   4.745   2.309   2.564 -1.4704 -0.4871 -0.6070
 9958TIP3    H251290   4.859   2.227   2.508 -0.7063  0.0218  0.1800
 9959TIP3   OH251291   5.712   2.148  12.200  0.0226  0.1639  0.1811
 9959TIP3    H151292   5.790   2.202  12.185  0.7574 -1.1943 -1.0345
 9959TIP3    H251293   5.666   2.147  12.116  0.0183 -1.0700  0.1784
 9960TIP3   OH251294   1.988   0.043   3.822 -0.1955  0.4010  0.2627
 9960TIP3    H151295   2.034  -0.041   3.832  1.9130  1.6053  1.4197
 9960TIP3    H251296   1.924   0.027   3.753 -0.2567 -2.3130  0.8456
 9961TIP3   OH251297   4.166   4.424  15.776 -0.0908  0.1061 -0.0818
 9961TIP3    H151298   4.243   4.369  15.792  0.1783  0.1857 -1.0629
 9961TIP3    H251299   4.202   4.507  15.744 -0.5989  0.0164 -0.9002
 9962TIP3   OH251300   6.713   4.034  14.297  0.1096 -0.2637  0.4357
 9962TIP3    H151301   6.679   3.948  14.322 -0.2079 -0.4433 -0.5609
 9962TIP3    H251302   6.649   4.095  14.332  0.5853 -0.3919  1.5652
 9963TIP3   OH251303   1.875   3.752   1.129 -0.0534 -0.3727 -0.1530
 9963TIP3    H151304   1.959   3.741   1.173  0.9271  1.6570 -1.3550
 9963TIP3    H251305   1.811   3.713   1.189  1.4992 -0.1280  1.7713
 9964TIP3   OH251306   2.391   3.283   6.547  0.3013 -0.1745 -0.2321
 9964TIP3    H151307   2.414   3.219   6.615  0.4851  0.0213 -0.1118
 9964TIP3    H251308   2.420   3.243   6.466 -1.3705 -1.1590 -0.4043
 9965TIP3   OH251309   0.121   2.613   6.737 -0.1664 -0.0471 -0.6731
 9965TIP3    H151310   0.180   2.639   6.807 -0.6922  1.6529 -0.8119
 9965TIP3    H251311   0.067   2.544   6.775  0.7762 -0.4207 -0.0015
 9966TIP3   OH251312   5.566   3.286  10.630  0.3183 -0.7426 -0.5390
 9966TIP3    H151313   5.610   3.268  10.547 -0.6963 -0.7403 -1.1076
 9966TIP3    H251314   5.562   3.202  10.674 -0.8682 -1.1678 -1.3940
 9967TIP3   OH251315   2.037   0.210   4.256  0.4137  0.1648 -0.7981
 9967TIP3    H151316   2.029   0.289   4.308 -1.7440 -0.0271 -0.7616
 9967TIP3    H251317   2.100   0.156   4.304 -0.4211  0.5914  0.8325
 9968TIP3   OH251318   3.966   4.906  14.885 -0.4997  0.4404  0.5627
 9968TIP3    H151319   3.917   4.834  14.844  0.9665 -0.5782  0.5344
 9968TIP3    H251320   4.004   4.954  14.811  1.6336 -1.0311  0.6307
 9969TIP3   OH251321   4.581   5.961   2.352 -0.2157 -0.1666 -0.2643
 9969TIP3    H151322   4.623   5.978   2.268  1.0806 -0.9854  0.1891
 9969TIP3    H251323   4.610   5.873   2.376  0.4500  0.5287  1.6255
 9970TIP3   OH251324   1.432   2.621  16.021  0.0711 -0.3073 -0.4233
 9970TIP3    H151325   1.495   2.682  15.984  0.2418  0.4040  0.9791
 9970TIP3    H251326   1.485   2.552  16.062 -0.1150 -1.1069 -1.4753
 9971TIP3   OH251327   2.845   0.545  14.217 -0.0972  0.4326  0.1946
 9971TIP3    H151328   2.901   0.496  14.278  1.3591  1.7204 -0.0351
 9971TIP3    H251329   2.896   0.551  14.136 -0.4084  1.8731  0.0640
 9972TIP3   OH251330   2.092   6.271   5.265 -0.0669 -0.0363 -0.3598
 9972TIP3    H151331   2.021   6.248   5.326  0.2348 -0.3765 -0.1252
 9972TIP3    H251332   2.088   6.366   5.257 -0.9069 -0.1086 -0.7920
 9973TIP3   OH251333   6.657   0.387  15.922  0.2441 -0.4036 -0.7334
 9973TIP3    H151334   6.741   0.408  15.882 -0.1830 -2.3647 -2.8684
 9973TIP3    H251335   6.594   0.388  15.850 -1.3443 -0.2488  0.5848
 9974TIP3   OH251336   5.701   2.866  16.325  0.3713 -0.1106  0.0846
 9974TIP3    H151337   5.791   2.837  16.306  0.6097 -0.6159  1.7837
 9974TIP3    H251338   5.647   2.815  16.265  1.2022  0.0678 -0.8443
 9975TIP3   OH251339   4.114   1.786  17.139 -0.0854 -0.1608  0.3860
 9975TIP3    H151340   4.111   1.690  17.133 -0.6556 -0.3221  2.4216
 9975TIP3    H251341   4.023   1.812  17.154  0.2132  0.5813  0.9782
 9976TIP3   OH251342   3.691   4.767   3.804 -0.2078 -0.2128  0.1460
 9976TIP3    H151343   3.644   4.739   3.883  0.1804 -1.9049 -0.1750
 9976TIP3    H251344   3.634   4.742   3.732  0.3775 -0.6541 -0.1765
 9977TIP3   OH251345   6.124   0.504   5.890  0.0762  0.0542  0.0547
 9977TIP3    H151346   6.067   0.505   5.966 -0.1602  0.6560 -0.1233
 9977TIP3    H251347   6.153   0.413   5.882  1.0737  0.2163  1.5767
 9978TIP3   OH251348   0.859   1.620  17.390  0.3528 -0.4176  0.2622
 9978TIP3    H151349   0.918   1.600  17.317 -1.8835  2.3238 -2.6033
 9978TIP3    H251350   0.908   1.683  17.444  0.6518  0.7577 -1.2931
 9979TIP3   OH251351   2.051   3.969   0.646  0.6920  0.4695  1.2081
 9979TIP3    H151352   2.043   4.024   0.568  0.6023 -1.8772 -0.5368
 9979TIP3    H251353   2.143   3.976   0.670  0.7167  1.2446  0.9297
 9980TIP3   OH251354   1.824   6.344   1.542  0.1169 -0.1829 -0.0107
 9980TIP3    H151355   1.790   6.268   1.496  0.8827  0.6663 -2.0825
 9980TIP3    H251356   1.916   6.348   1.516  0.4254  0.6993  1.1373
 9981TIP3   OH251357   3.923   0.959   0.017  0.1440 -0.1370  0.0468
 9981TIP3    H151358   3.960   0.934   0.101  0.5941 -1.7803 -0.6132
 9981TIP3    H251359   3.828   0.962   0.032  0.1380 -1.4134  0.3867
 9982TIP3   OH251360   1.696   2.668   5.655 -0.2044  0.2933 -0.1126
 9982TIP3    H151361   1.790   2.680   5.672  0.0824 -2.4827  0.8382
 9982TIP3    H251362   1.657   2.754   5.670  1.9407  1.0840  1.3664
 9983TIP3   OH251363   5.646   3.919   3.281  0.4817  0.2395 -0.3650
 9983TIP3    H151364   5.621   3.978   3.351 -0.0792 -0.2974 -0.1038
 9983TIP3    H251365   5.733   3.887   3.306  0.2952  0.0723  0.0708
 9984TIP3   OH251366   6.475   5.936   6.475 -0.2708 -0.1547 -0.9216
 9984TIP3    H151367   6.492   5.854   6.429  0.0724 -1.1613  0.8988
 9984TIP3    H251368   6.382   5.933   6.496  0.1958 -1.3251  1.2975
 9985TIP3   OH251369   2.416   1.827  11.205  0.0550 -0.4791 -0.1701
 9985TIP3    H151370   2.489   1.770  11.184 -0.0475 -0.8649  0.4944
 9985TIP3    H251371   2.447   1.880  11.279 -0.1708 -0.3123 -0.1915
 9986TIP3   OH251372   2.336   3.721   3.667 -0.1446 -0.5310  0.4428
 9986TIP3    H151373   2.243   3.701   3.671 -0.5814  1.1966 -0.0467
 9986TIP3    H251374   2.360   3.708   3.575 -0.2261  0.2255  0.3044
 9987TIP3   OH251375   2.863   3.788  16.458 -0.5654 -1.0804  0.3397
 9987TIP3    H151376   2.839   3.706  16.415 -2.7583 -0.6070  0.5656
 9987TIP3    H251377   2.917   3.762  16.532  0.3324 -2.1587 -0.6552
 9988TIP3   OH251378   3.236   6.651   5.123  0.2970 -0.0138  0.9391
 9988TIP3    H151379   3.242   6.558   5.141  2.1146 -0.4688 -1.4301
 9988TIP3    H251380   3.326   6.683   5.135 -0.3732  1.5595  2.1127
 9989TIP3   OH251381   3.516   3.964   4.175  0.0169 -1.2828  0.3955
 9989TIP3    H151382   3.494   3.938   4.264 -0.4322 -1.3867  0.2528
 9989TIP3    H251383   3.481   3.894   4.120  0.6438 -1.4243  0.1608
 9990TIP3   OH251384   3.493   0.081  15.814 -0.1800 -0.2537  0.1961
 9990TIP3    H151385   3.460   0.169  15.797  1.3481  0.2949 -0.0821
 9990TIP3    H251386   3.454   0.026  15.746 -0.1518  0.4563 -0.4029
 9991TIP3   OH251387   1.390   6.111   2.004  0.5345 -0.5878 -0.0925
 9991TIP3    H151388   1.452   6.114   1.932  3.0682 -1.9129  1.8470
 9991TIP3    H251389   1.400   6.022   2.040 -1.0586 -0.1710  1.5195
 9992TIP3   OH251390   4.330   0.936  15.298 -0.0848  0.1611  0.4339
 9992TIP3    H151391   4.352   1.023  15.266 -1.0390 -0.0437 -0.8676
 9992TIP3    H251392   4.411   0.886  15.288  0.2532  0.6988  0.4618
 9993TIP3   OH251393   3.384   5.782   6.320 -0.0473  0.3376  0.5061
 9993TIP3    H151394   3.347   5.700   6.285  0.4922  0.3066 -0.0013
 9993TIP3    H251395   3.308   5.831   6.350 -0.4732  0.1088 -0.1824
 9994TIP3   OH251396   1.921   2.765   2.084  0.1602  0.2453 -0.7954
 9994TIP3    H151397   2.001   2.756   2.137  0.7107  0.6958 -1.5417
 9994TIP3    H251398   1.912   2.680   2.040 -1.4418 -0.9220  1.5209
 9995TIP3   OH251399   3.140   1.100  17.396 -0.3345 -0.5487  0.3440
 9995TIP3    H151400   3.068   1.120  17.337  0.6320 -0.7741 -0.9726
 9995TIP3    H251401   3.119   1.013  17.431 -0.2376 -1.0541 -0.8032
 9996TIP3   OH251402   3.009   0.333   1.064 -0.0749 -0.1660 -0.1607
 9996TIP3    H151403   3.029   0.401   1.128  0.0689 -1.1769  0.9089
 9996TIP3    H251404   3.068   0.352   0.990  1.1374 -0.0660  0.7925
 9997TIP3   OH251405   6.075   5.713  16.029 -0.3468  0.0394 -0.0639
 9997TIP3    H151406   6.069   5.628  16.073  0.6748 -0.0144 -0.0012
 9997TIP3    H251407   6.105   5.773  16.097  1.0940 -0.0123 -0.6250
 9998TIP3   OH251408   4.187   0.843  10.837 -0.1459 -0.0567  0.4430
 9998TIP3    H151409   4.229   0.861  10.921 -0.1582  1.5202  0.1504
 9998TIP3    H251410   4.260   0.819  10.779 -0.3356 -3.1308  1.3221
 9999TIP3   OH251411   3.973   1.853  13.119 -0.6870 -0.2957 -0.4686
 9999TIP3    H151412   3.988   1.859  13.025  0.1920  0.4760 -0.2991
 9999TIP3    H251413   4.048   1.899  13.158 -1.3540 -0.0748  0.5889
10000TIP3   OH251414   0.880   0.791  11.732 -0.0697  0.0233 -0.8501
10000TIP3    H151415   0.919   0.727  11.791 -0.3448  0.4354 -0.2093
10000TIP3    H251416   0.934   0.869  11.741 -1.3597  0.8148  0.5334
10001TIP3   OH251417   0.063   5.790   2.242 -0.1045 -0.4386  0.0344
10001TIP3    H151418   0.127   5.861   2.250 -2.0080  1.1968  2.2450
10001TIP3    H251419   0.071   5.742   2.325 -1.2846 -0.5738  0.0810
10002TIP3   OH251420   6.712   1.854   3.899  0.0629 -0.2901  0.6959
10002TIP3    H151421   6.759   1.783   3.943 -0.7034 -1.3020 -0.0923
10002TIP3    H251422   6.638   1.812   3.856 -0.0506  0.8994 -0.3324
10003TIP3   OH251423   3.581   6.634   1.175  0.7466  0.4057 -0.0699
10003TIP3    H151424   3.554   6.615   1.265  0.0243 -1.8431 -0.6923
10003TIP3    H251425   3.515   6.695   1.143 -0.4089 -0.6778  0.1896
10004TIP3   OH251426   0.671   1.409   0.305 -0.0665  0.7785  0.3409
10004TIP3    H151427   0.690   1.354   0.229 -1.0738 -0.0068  0.6383
10004TIP3    H251428   0.738   1.477   0.302  0.5238  0.1847 -0.6762
10005TIP3   OH251429   6.399   4.395  11.783  0.3903  0.2021 -0.1606
10005TIP3    H151430   6.463   4.326  11.795  0.3691  0.2201  0.0584
10005TIP3    H251431   6.364   4.381  11.695 -0.6257 -0.9136  0.3938
10006TIP3   OH251432   1.078   5.589   6.506 -0.3135  0.1755  0.4706
10006TIP3    H151433   1.123   5.511   6.474 -2.4030 -0.7314 -0.4450
10006TIP3    H251434   1.147   5.644   6.542  1.4908 -1.1095 -0.8734
10007TIP3   OH251435   2.051   5.089   6.025 -0.4277 -0.3404  0.3582
10007TIP3    H151436   1.986   5.159   6.023 -0.9849 -0.8021  1.3817
10007TIP3    H251437   2.054   5.056   5.936  0.5046  1.5590 -0.3626
10008TIP3   OH251438   3.222   1.935   1.144  0.6322  0.1396  0.2660
10008TIP3    H151439   3.317   1.926   1.147  0.5618 -1.4338 -1.0605
10008TIP3    H251440   3.204   1.981   1.062  0.2757  1.7818  1.2059
10009TIP3   OH251441   6.550   0.355  16.468 -0.5066 -0.1752 -0.3322
10009TIP3    H151442   6.476   0.321  16.518 -0.2839  0.5670  0.5225
10009TIP3    H251443   6.582   0.279  16.419 -0.2018 -1.1404  1.2863
10010TIP3   OH251444   3.741   5.176  15.223  0.0551  0.6023 -0.3134
10010TIP3    H151445   3.712   5.114  15.289  0.1416  1.9861  1.0798
10010TIP3    H251446   3.749   5.124  15.143 -0.8896 -0.9383  0.5439
10011TIP3   OH251447   1.458   1.350  14.792 -0.7295  0.2145 -0.3378
10011TIP3    H151448   1.429   1.261  14.774 -0.6965  0.0113  0.5613
10011TIP3    H251449   1.420   1.370  14.878  1.1230  0.2422  0.5105
10012TIP3   OH251450   1.484   3.895  12.093 -0.6204  0.7553  0.2535
10012TIP3    H151451   1.424   3.846  12.149 -1.5908  2.5743  0.8828
10012TIP3    H251452   1.566   3.899  12.143 -0.0924 -1.2166 -0.3489
10013TIP3   OH251453   3.005   3.760   2.075  0.3248  0.1146  0.4158
10013TIP3    H151454   3.038   3.690   2.019  0.5729  0.4823  0.0980
10013TIP3    H251455   2.966   3.715   2.150  0.3229 -0.3670  0.1265
10014TIP3   OH251456   3.866   5.558  14.124 -0.2383  0.0728 -0.8123
10014TIP3    H151457   3.816   5.639  14.118  0.0100  0.2650 -0.3669
10014TIP3    H251458   3.952   5.581  14.088  0.7340  0.7897  1.7455
10015TIP3   OH251459   5.642   3.474   5.630  0.2572 -0.2010  0.3354
10015TIP3    H151460   5.675   3.480   5.540  0.8850  0.1061  0.5800
10015TIP3    H251461   5.721   3.473   5.685 -0.1198 -0.3720  0.8876
10016TIP3   OH251462   4.682   2.027   1.186  0.0546  0.5740 -0.0034
10016TIP3    H151463   4.604   2.032   1.242  0.2466  0.9255  0.2397
10016TIP3    H251464   4.739   2.097   1.218  0.5094  0.2648 -0.1231
10017TIP3   OH251465   0.144   5.189  15.314 -0.2889 -0.4517 -0.6140
10017TIP3    H151466   0.226   5.175  15.361 -0.9300  3.0595  1.9022
10017TIP3    H251467   0.169   5.238  15.236  0.0171  1.8415  0.8333
10018TIP3   OH251468   1.888   3.120   5.317  0.3663 -1.0540  0.5690
10018TIP3    H151469   1.909   3.028   5.300 -0.7132 -1.3070  0.5086
10018TIP3    H251470   1.952   3.169   5.266 -0.7192 -1.8079 -1.6855
10019TIP3   OH251471   4.230   2.075  15.209  0.5369 -0.1512  0.3518
10019TIP3    H151472   4.276   2.043  15.286  2.8338  1.1963 -0.3648
10019TIP3    H251473   4.206   2.165  15.231 -1.1974 -0.5813  0.4231
10020TIP3   OH251474   1.451   1.934  13.041  0.0434  0.2059 -0.3888
10020TIP3    H151475   1.399   2.013  13.026  1.3880  0.9494 -1.4218
10020TIP3    H251476   1.473   1.904  12.953  0.4107 -0.7501  0.0164
10021TIP3   OH251477   0.373   5.331  14.027 -0.1014  0.5563  0.9392
10021TIP3    H151478   0.450   5.322  14.083  0.2410 -0.2098  0.3647
10021TIP3    H251479   0.403   5.384  13.954 -0.7804  2.3073  1.8628
10022TIP3   OH251480   4.206   0.797   0.442 -0.7117  0.7709 -0.2634
10022TIP3    H151481   4.231   0.820   0.532 -1.5965  0.2925  0.1185
10022TIP3    H251482   4.243   0.710   0.429 -1.3132  0.4753 -0.0443
10023TIP3   OH251483   0.941   6.009   2.334 -0.7050  0.3028  0.2484
10023TIP3    H151484   0.924   6.103   2.336  1.1932  0.8548 -3.0589
10023TIP3    H251485   0.993   5.995   2.255  0.8017 -3.2710  1.6245
10024TIP3   OH251486   5.573   6.430   2.706  0.0007  0.1218 -0.6799
10024TIP3    H151487   5.663   6.396   2.713 -0.0334  0.2148  0.3954
10024TIP3    H251488   5.584   6.524   2.692  0.0700 -0.0415 -1.8690
10025TIP3   OH251489   1.990   5.242  15.064  0.1094  0.2087  0.2370
10025TIP3    H151490   2.054   5.288  15.009  0.0467  0.9831  0.7886
10025TIP3    H251491   1.977   5.301  15.139 -1.3210  0.1038  0.0990
10026TIP3   OH251492   3.604   2.971   1.018  0.2140  0.9171  0.0271
10026TIP3    H151493   3.661   2.990   0.944 -0.0531  1.4624 -0.0381
10026TIP3    H251494   3.635   2.886   1.050  0.0213  0.4467 -1.0037
10027TIP3   OH251495   1.354   3.520   4.068  0.4475 -0.7193  0.0454
10027TIP3    H151496   1.403   3.521   4.151 -0.2861 -1.2517  0.4982
10027TIP3    H251497   1.332   3.427   4.055 -1.1454 -0.3994  0.2777
10028TIP3   OH251498   3.833   2.994   4.494  0.2639 -0.3154 -0.0849
10028TIP3    H151499   3.908   2.968   4.440  0.8746 -3.3855  1.9733
10028TIP3    H251500   3.769   2.925   4.479 -1.0554  0.7844  0.3353
10029TIP3   OH251501   3.256   1.622   2.984  0.0611 -0.3310 -0.6611
10029TIP3    H151502   3.310   1.628   2.906  0.9981 -0.8239 -0.0676
10029TIP3    H251503   3.299   1.557   3.039 -0.2629  0.4015  0.5112
10030TIP3   OH251504   1.587   6.262  12.115  0.2811 -0.1125  0.7874
10030TIP3    H151505   1.516   6.326  12.113  0.8329  0.5598  1.6283
10030TIP3    H251506   1.574   6.208  12.037 -0.9364  0.2184  0.7482
10031TIP3   OH251507   3.910   1.093  16.006  0.5126  0.2197 -0.0036
10031TIP3    H151508   3.946   1.007  15.984  0.0204 -0.2926  1.1273
10031TIP3    H251509   3.984   1.153  15.997  0.6885 -0.1781 -1.5270
10032TIP3   OH251510   3.156   2.086  13.653  0.0857 -0.1624  0.2904
10032TIP3    H151511   3.248   2.087  13.677 -0.2870  0.9181  1.8154
10032TIP3    H251512   3.152   2.134  13.570  0.6116  2.0687  1.4842
10033TIP3   OH251513   0.969   0.297   2.840  0.5545  0.7797  0.3567
10033TIP3    H151514   1.011   0.292   2.926  0.9860  1.4486  0.1971
10033TIP3    H251515   0.897   0.358   2.851  0.7239  1.0087  0.1978
10034TIP3   OH251516   6.114   1.006  11.344 -0.2014 -0.0629  0.3634
10034TIP3    H151517   6.190   0.966  11.386  1.0337  0.9927 -0.7693
10034TIP3    H251518   6.046   0.938  11.346  0.8723 -1.1460  1.0897
10035TIP3   OH251519   1.385   5.264   0.095  0.0454  0.1005 -0.1529
10035TIP3    H151520   1.381   5.169   0.106 -1.2433  0.4231  2.9896
10035TIP3    H251521   1.467   5.289   0.137 -0.3164  0.4908  0.3292
10036TIP3   OH251522   6.480   6.663   2.363  0.5025  0.1073 -0.1564
10036TIP3    H151523   6.504   6.599   2.430  1.1837  0.4778 -0.0433
10036TIP3    H251524   6.495   6.748   2.403  1.9944  0.3438 -1.1325
10037TIP3   OH251525   1.812   3.668  13.371 -0.3188  0.0977  0.3475
10037TIP3    H151526   1.745   3.661  13.439  1.2655 -0.9665  1.8992
10037TIP3    H251527   1.882   3.719  13.412 -0.5396  2.0841 -1.5762
10038TIP3   OH251528   2.618   1.673  16.269  0.5144  0.1494  0.1777
10038TIP3    H151529   2.687   1.689  16.205  1.1476 -1.0561  0.5337
10038TIP3    H251530   2.657   1.696  16.353  0.0911  0.5653  0.2652
10039TIP3   OH251531   2.243   5.887  15.032  0.1662 -0.1066 -0.8110
10039TIP3    H151532   2.264   5.854  15.119  1.5952 -0.0866 -1.1254
10039TIP3    H251533   2.272   5.819  14.972  1.5438  0.9200 -1.3747
10040TIP3   OH251534   5.248   3.731   0.042  0.7695  0.1621 -0.2634
10040TIP3    H151535   5.175   3.787   0.017  0.8692  0.1680 -0.5506
10040TIP3    H251536   5.214   3.677   0.113  0.6684  0.5707 -0.0003
10041TIP3   OH251537   3.004   1.340   5.064  0.0580 -0.0542  0.1412
10041TIP3    H151538   3.030   1.248   5.069  0.4769 -0.1119 -1.9755
10041TIP3    H251539   2.962   1.348   4.978  0.8736  1.9099 -0.1329
10042TIP3   OH251540   2.815   2.449   2.565  0.1172 -0.1992 -0.9097
10042TIP3    H151541   2.799   2.384   2.633 -1.7741  2.0025  0.9272
10042TIP3    H251542   2.891   2.498   2.596 -0.2526  0.2926 -0.7600
10043TIP3   OH251543   1.499   4.985   0.127 -0.0619  0.1745  0.1868
10043TIP3    H151544   1.587   4.982   0.091 -0.4600 -1.3078 -0.7768
10043TIP3    H251545   1.458   4.904   0.096 -1.6785  0.7124  0.8100
10044TIP3   OH251546   2.404   2.622   5.689 -0.2804  0.1019 -0.0657
10044TIP3    H151547   2.397   2.662   5.603 -0.1195 -2.8153 -1.5572
10044TIP3    H251548   2.344   2.673   5.744  0.0858  2.4215 -1.6778
10045TIP3   OH251549   1.298   5.883   6.287  0.2334 -0.0832  0.2559
10045TIP3    H151550   1.376   5.844   6.247  0.8879  1.0955  0.3250
10045TIP3    H251551   1.289   5.837   6.370  1.7839  0.7746  0.9513
10046TIP3   OH251552   1.568   0.816  14.050 -0.3003 -0.5200 -0.3137
10046TIP3    H151553   1.643   0.758  14.065 -0.2180 -0.3795 -0.1781
10046TIP3    H251554   1.555   0.859  14.134  1.5775  1.9711 -1.1960
10047TIP3   OH251555   2.602   3.549   4.656 -0.6630 -0.3623 -0.0395
10047TIP3    H151556   2.627   3.504   4.737 -0.2849  1.3060  0.8177
10047TIP3    H251557   2.507   3.544   4.654 -0.6449 -0.8811  0.2273
10048TIP3   OH251558   2.414   4.237   4.187 -0.0870 -0.5728  0.1830
10048TIP3    H151559   2.321   4.251   4.167  0.5595  1.4321 -1.7381
10048TIP3    H251560   2.445   4.178   4.118  0.0738 -1.4193  0.9475
10049TIP3   OH251561   6.613   3.948   1.064  0.4641  0.1921 -0.1421
10049TIP3    H151562   6.653   3.878   1.115  0.3468 -0.8496 -1.4362
10049TIP3    H251563   6.647   4.029   1.103  1.1068 -0.5898  0.9631
10050TIP3   OH251564   6.681   5.827  12.021  0.0218  0.2615 -0.2712
10050TIP3    H151565   6.644   5.744  11.992 -2.1888  0.3093  2.0702
10050TIP3    H251566   6.605   5.882  12.039  1.3888  2.0685  0.3022
10051TIP3   OH251567   4.397   5.056   2.763  0.1178  0.2649 -0.5364
10051TIP3    H151568   4.390   5.026   2.853 -1.1793  1.0053 -0.3519
10051TIP3    H251569   4.485   5.092   2.756  0.5101 -0.5206  0.1897
10052TIP3   OH251570   3.821   0.720  17.117  0.1179 -1.0481  0.0242
10052TIP3    H151571   3.765   0.645  17.136 -0.1370 -1.2783 -1.4683
10052TIP3    H251572   3.848   0.707  17.026  0.3478  0.4927 -0.1565
10053TIP3   OH251573   5.375   4.543   5.213 -0.3074 -0.1110  0.0319
10053TIP3    H151574   5.458   4.539   5.260 -0.8175 -1.6067  0.8684
10053TIP3    H251575   5.341   4.454   5.216 -1.0444  0.0475 -1.9807
10054TIP3   OH251576   3.050   5.463  12.605 -0.2832  0.4207  0.3059
10054TIP3    H151577   3.092   5.521  12.669 -1.5665  0.6555  0.9681
10054TIP3    H251578   3.037   5.518  12.528 -1.0405  0.8978  0.7573
10055TIP3   OH251579   0.025   2.013   2.661 -0.1462 -0.4071 -0.6137
10055TIP3    H151580   0.075   1.934   2.643  1.0111  0.3213 -0.6771
10055TIP3    H251581   0.071   2.055   2.733 -1.5154 -0.4442  0.3314
10056TIP3   OH251582   5.956   6.030   2.565  0.2746 -0.1565 -0.1620
10056TIP3    H151583   5.894   6.099   2.546  0.4676  0.2319  0.5807
10056TIP3    H251584   5.902   5.955   2.590  0.0398 -0.5230 -1.7070
10057TIP3   OH251585   2.094   2.563   3.875 -0.2355 -0.0379  0.8138
10057TIP3    H151586   2.117   2.473   3.901 -0.3537  0.1457  1.5721
10057TIP3    H251587   2.157   2.584   3.806 -0.2339 -0.7206  0.5989
10058TIP3   OH251588   2.810   2.984   4.624 -0.3301  0.5425 -1.1070
10058TIP3    H151589   2.767   2.979   4.709 -0.5007 -0.0924 -1.2273
10058TIP3    H251590   2.825   3.077   4.610 -0.2957  0.6496 -0.3800
10059TIP3   OH251591   0.735   1.226   4.494 -0.1186 -0.1316  0.2805
10059TIP3    H151592   0.800   1.290   4.465 -1.6363  0.6935 -1.5243
10059TIP3    H251593   0.759   1.145   4.449  0.4201 -0.2042  0.6887
10060TIP3   OH251594   0.397   4.655   6.309 -0.2997 -0.0114 -0.6017
10060TIP3    H151595   0.356   4.733   6.346 -0.1288  1.0800 -2.5309
10060TIP3    H251596   0.488   4.660   6.339 -0.1270  0.9246 -1.2095
10061TIP3   OH251597   3.486   3.590  16.457  0.0940  0.6079 -0.2035
10061TIP3    H151598   3.544   3.667  16.462  0.3938  0.4111 -0.5530
10061TIP3    H251599   3.516   3.534  16.529 -1.2457  1.5539  1.1512
10062TIP3   OH251600   0.906   4.676  12.968  0.6111 -0.2923  0.1181
10062TIP3    H151601   0.864   4.593  12.948  0.2932  0.2500 -1.6941
10062TIP3    H251602   0.962   4.694  12.892  0.3272  1.3243  0.2348
10063TIP3   OH251603   4.790   6.206   1.333  0.2673  0.2226  0.0826
10063TIP3    H151604   4.810   6.292   1.369  0.8443 -0.3341  1.1446
10063TIP3    H251605   4.874   6.172   1.304  0.1524 -0.2673  0.3173
10064TIP3   OH251606   0.493   6.672  14.252  0.1984  0.2181 -0.3696
10064TIP3    H151607   0.407   6.699  14.219 -0.0155  2.1451  1.4901
10064TIP3    H251608   0.474   6.617  14.327  0.4957  2.0066  1.0776
10065TIP3   OH251609   3.199   0.595   4.182  0.1635  0.0649 -0.1132
10065TIP3    H151610   3.114   0.611   4.141 -1.8681 -1.2825  3.1541
10065TIP3    H251611   3.250   0.548   4.116 -1.2251  1.6447 -2.4683
10066TIP3   OH251612   2.283   4.804   6.408  0.1220 -0.0583 -0.0562
10066TIP3    H151613   2.258   4.737   6.344 -0.3719 -0.7616  0.8470
10066TIP3    H251614   2.203   4.822   6.457  0.4340  0.6623  0.1981
10067TIP3   OH251615   4.620   4.254   1.459  0.2411 -0.4053  0.2666
10067TIP3    H151616   4.593   4.307   1.533 -0.1592  1.3824 -1.0820
10067TIP3    H251617   4.630   4.166   1.494 -0.0323  0.3633  2.3909
10068TIP3   OH251618   4.551   6.672  12.918  0.0658  0.1999  0.3644
10068TIP3    H151619   4.562   6.578  12.907  2.3086  0.2853  1.5139
10068TIP3    H251620   4.465   6.690  12.880  0.5076 -1.9475 -1.9416
10069TIP3   OH251621   1.231   2.104   1.276  0.0223  0.0720 -0.2825
10069TIP3    H151622   1.192   2.120   1.190  0.5235  0.6815 -0.4048
10069TIP3    H251623   1.325   2.095   1.258 -0.0172 -1.0791  0.0401
10070TIP3   OH251624   1.477   0.654   5.353  0.0438  0.4136 -0.2769
10070TIP3    H151625   1.470   0.601   5.432  0.3993  0.4733 -0.2034
10070TIP3    H251626   1.569   0.644   5.326  0.0514  0.7995 -0.3942
10071TIP3   OH251627   2.686   0.404   3.397 -0.2349  0.4599 -0.5509
10071TIP3    H151628   2.705   0.487   3.353  2.2515 -0.2353 -0.9256
10071TIP3    H251629   2.706   0.421   3.489 -2.7580  1.0967 -0.0232
10072TIP3   OH251630   3.241   6.228   4.676  0.3804 -0.2640 -0.0425
10072TIP3    H151631   3.319   6.174   4.689  0.1023 -0.1085  2.8730
10072TIP3    H251632   3.275   6.316   4.663  0.7167 -0.3989 -0.0912
10073TIP3   OH251633   6.397   4.724  12.251  0.4619  0.0010  0.4701
10073TIP3    H151634   6.430   4.806  12.288  0.7216 -0.6075  1.6477
10073TIP3    H251635   6.322   4.701  12.306  0.0847 -0.3013 -0.1587
10074TIP3   OH251636   3.645   2.072   5.638 -0.3606 -0.9551 -0.6691
10074TIP3    H151637   3.626   2.091   5.730  0.7986  0.5328 -0.6974
10074TIP3    H251638   3.580   2.006   5.614 -0.9758 -1.0593  1.0839
10075TIP3   OH251639   0.113   5.254   1.341  0.2523 -0.1242 -0.2138
10075TIP3    H151640   0.105   5.202   1.420 -1.6881  0.2842 -0.0769
10075TIP3    H251641   0.149   5.194   1.275 -1.1475 -1.4202  0.1526
10076TIP3   OH251642   4.477   5.185   3.091  0.2616 -0.1616 -0.1114
10076TIP3    H151643   4.428   5.106   3.069 -0.0409  0.2775 -1.0782
10076TIP3    H251644   4.515   5.167   3.177  0.5658 -1.5338 -0.5106
10077TIP3   OH251645   5.618   2.460   5.479  0.3397  0.0867  0.2543
10077TIP3    H151646   5.587   2.382   5.432 -2.6003  0.8206  0.7802
10077TIP3    H251647   5.654   2.516   5.410 -2.3810  0.4381 -1.0120
10078TIP3   OH251648   2.471   5.797  12.713 -0.1807 -0.1529  0.1332
10078TIP3    H151649   2.384   5.789  12.674 -0.2333 -0.9527  0.3957
10078TIP3    H251650   2.507   5.878  12.676 -0.0045 -1.1444 -2.0378
10079TIP3   OH251651   0.793   4.693   0.970 -0.0716  0.2654  0.3048
10079TIP3    H151652   0.713   4.676   0.920  0.0872 -0.3768  0.2601
10079TIP3    H251653   0.807   4.614   1.022  1.3037 -0.2539 -0.7611
10080TIP3   OH251654   5.311   1.797  14.480  0.3264  0.0936 -0.6129
10080TIP3    H151655   5.240   1.793  14.416  0.1790 -0.0968 -0.4396
10080TIP3    H251656   5.350   1.883  14.467  1.5391 -0.6367 -2.2953
10081TIP3   OH251657   5.584   6.417   4.128  0.2131 -0.6089  0.3017
10081TIP3    H151658   5.600   6.332   4.170  1.0460 -0.4094  0.4187
10081TIP3    H251659   5.568   6.477   4.201  0.8992 -0.4188  0.3104
10082TIP3   OH251660   5.765   3.191  16.108  0.3477 -0.1835  0.4820
10082TIP3    H151661   5.777   3.252  16.180 -0.7585 -0.7717  1.2102
10082TIP3    H251662   5.699   3.129  16.140 -0.9584  0.1374 -1.4018
10083TIP3   OH251663   1.266   1.804   5.611 -0.3903  0.5188  0.2921
10083TIP3    H151664   1.279   1.831   5.702  0.5059  0.9582  0.0456
10083TIP3    H251665   1.321   1.726   5.601  0.8060  1.4044 -0.2973
10084TIP3   OH251666   1.732   5.955  17.045  0.2953 -0.1227 -0.3806
10084TIP3    H151667   1.811   5.990  17.086  0.0448  0.1759 -0.1504
10084TIP3    H251668   1.702   5.886  17.105 -0.5596  0.8952  0.4061
10085TIP3   OH251669   2.005   4.999   1.277  0.1683 -0.2060  0.1983
10085TIP3    H151670   1.981   5.074   1.223 -0.1622 -0.9522 -0.7292
10085TIP3    H251671   1.972   5.021   1.364 -1.3639  0.0579 -0.4072
10086TIP3   OH251672   0.410   3.538  11.186  0.4158  0.2754  0.7654
10086TIP3    H151673   0.400   3.628  11.216  1.7516  0.7294 -0.0718
10086TIP3    H251674   0.495   3.536  11.142 -0.7275 -0.7276 -1.5820
10087TIP3   OH251675   2.418   0.721  15.520  0.1879  0.3727  0.0969
10087TIP3    H151676   2.326   0.696  15.509  0.5197 -0.4912 -0.8169
10087TIP3    H251677   2.467   0.644  15.492  1.1974  0.6564  1.0168
10088TIP3   OH251678   4.409   5.096   1.211  0.3847 -0.3524  0.0224
10088TIP3    H151679   4.386   5.076   1.301 -1.2376 -1.1639 -0.5456
10088TIP3    H251680   4.355   5.038   1.158  0.2532  1.0765 -1.5114
10089TIP3   OH251681   5.743   0.298   4.489 -0.0965  0.0814  0.2340
10089TIP3    H151682   5.747   0.337   4.401  0.2203  1.3436  0.7887
10089TIP3    H251683   5.834   0.279   4.512 -0.2014 -0.4829  0.1946
10090TIP3   OH251684   2.134   2.082   1.725 -0.1646  0.0767 -0.1412
10090TIP3    H151685   2.154   1.990   1.744  0.2944 -1.4523 -6.0448
10090TIP3    H251686   2.217   2.128   1.739  0.7400 -1.2572 -1.0003
10091TIP3   OH251687   2.941   5.736   0.322 -0.3197  0.2956 -0.8064
10091TIP3    H151688   2.928   5.663   0.383  1.3967  2.2660  2.1834
10091TIP3    H251689   2.852   5.755   0.290 -1.1998 -1.3405  0.4625
10092TIP3   OH251690   5.920   3.435   0.626  0.1230 -0.3099  0.1680
10092TIP3    H151691   5.935   3.526   0.600 -0.3843 -0.1076  0.5766
10092TIP3    H251692   5.896   3.391   0.544  0.8431 -0.1902 -0.1210
10093TIP3   OH251693   0.729   3.903  16.997  0.2210  0.2253  0.1862
10093TIP3    H151694   0.710   3.970  16.932 -0.2066 -1.1063 -1.1146
10093TIP3    H251695   0.694   3.939  17.079  2.8210  2.9598  0.2654
10094TIP3   OH251696   1.214   1.144  14.358  0.5648 -0.0569  0.2317
10094TIP3    H151697   1.136   1.161  14.305  0.5553  0.3065  0.3577
10094TIP3    H251698   1.195   1.189  14.441  0.7548 -0.2725  0.3910
10095TIP3   OH251699   2.835   1.087   1.676  0.5261 -0.2284  0.1965
10095TIP3    H151700   2.772   1.150   1.641  0.6303 -0.3815 -0.2618
10095TIP3    H251701   2.841   1.110   1.769 -1.3069 -1.1256  0.5808
10096TIP3   OH251702   6.501   6.485  12.018  0.0268 -0.0220 -0.0701
10096TIP3    H151703   6.408   6.503  12.034  0.1654 -1.8035  3.9817
10096TIP3    H251704   6.503   6.393  11.991  0.6465 -0.5583  1.6889
10097TIP3   OH251705   4.647   3.443   6.148 -0.0418  0.5555  0.4208
10097TIP3    H151706   4.613   3.504   6.214 -1.5359 -0.9084  1.0724
10097TIP3    H251707   4.726   3.408   6.188 -1.3358 -0.8858  1.8590
10098TIP3   OH251708   6.303   5.893  12.184  0.1793 -0.3225 -0.2630
10098TIP3    H151709   6.314   5.804  12.149 -0.8109 -0.6701  0.2582
10098TIP3    H251710   6.319   5.883  12.278  1.8959  0.4238 -0.4359
10099TIP3   OH251711   4.808   5.506   3.795 -0.3682 -0.2306  1.1833
10099TIP3    H151712   4.750   5.527   3.867 -1.7732 -0.9702  0.3197
10099TIP3    H251713   4.880   5.456   3.835 -0.9853 -0.3993  2.1000
10100TIP3   OH251714   0.185   0.527  12.718 -0.1312 -0.2604 -0.2057
10100TIP3    H151715   0.263   0.556  12.766  0.1906  0.0172 -0.8655
10100TIP3    H251716   0.123   0.600  12.728 -0.9291 -1.1365  1.6347
10101TIP3   OH251717   2.352   1.167  11.269  0.2293 -0.3801 -0.0534
10101TIP3    H151718   2.324   1.095  11.326  0.7493 -0.6842 -0.1765
10101TIP3    H251719   2.304   1.244  11.302 -1.6552 -1.0867 -0.9757
10102TIP3   OH251720   3.250   0.014  16.814  0.3074  0.8912  0.0655
10102TIP3    H151721   3.289   0.014  16.727  1.6195  2.8669  0.5922
10102TIP3    H251722   3.211   0.101  16.823 -1.2559  0.1553  0.8732
10103TIP3   OH251723   1.305   1.651   5.025 -0.3736 -0.0961  0.4878
10103TIP3    H151724   1.396   1.621   5.025  0.3176  1.8514  1.2727
10103TIP3    H251725   1.311   1.746   5.032 -2.4836 -0.0085  2.0445
10104TIP3   OH251726   5.753   2.819  15.311 -0.8008  0.0855 -0.0411
10104TIP3    H151727   5.704   2.737  15.311 -3.0062  1.3305 -0.5205
10104TIP3    H251728   5.686   2.888  15.314  0.9837  1.8972  1.5239
10105TIP3   OH251729   1.430   3.532   5.257  0.1562  0.0268  0.2378
10105TIP3    H151730   1.352   3.554   5.307  0.9488  0.3386  1.3858
10105TIP3    H251731   1.410   3.559   5.167 -0.9459  0.3168  0.5561
10106TIP3   OH251732   2.639   2.380   4.861 -0.4437  0.1992  0.1145
10106TIP3    H151733   2.556   2.415   4.828  0.3117 -0.1731 -2.4080
10106TIP3    H251734   2.655   2.302   4.808  0.3043 -1.2021  2.2928
10107TIP3   OH251735   4.617   2.850   3.579 -0.1059  0.2108 -0.5549
10107TIP3    H151736   4.654   2.939   3.572  0.5303  0.0239  0.2592
10107TIP3    H251737   4.675   2.797   3.525  0.6947 -0.0380  0.5191
10108TIP3   OH251738   2.717   6.240   0.807 -0.2823 -0.2811  0.5840
10108TIP3    H151739   2.746   6.296   0.736  0.5040 -1.6211 -0.2053
10108TIP3    H251740   2.649   6.290   0.852 -0.6065  0.6975 -0.9373
10109TIP3   OH251741   1.958   1.717   1.672 -0.0972 -0.6015  0.7197
10109TIP3    H151742   2.009   1.680   1.744 -1.4205 -1.9032  1.0526
10109TIP3    H251743   1.913   1.793   1.710  1.0232  0.1349  0.6045
10110TIP3   OH251744   4.147   0.132   3.656  0.2996  0.0471  0.1612
10110TIP3    H151745   4.238   0.113   3.680  1.1403  1.4220 -1.6857
10110TIP3    H251746   4.141   0.108   3.564 -0.7787  1.3322 -0.1355
10111TIP3   OH251747   3.786   3.034   2.455 -0.2501 -0.0990  0.0923
10111TIP3    H151748   3.716   3.014   2.517 -0.6902 -0.3117 -0.4689
10111TIP3    H251749   3.821   3.118   2.485  0.2180 -0.6741  1.2254
10112TIP3   OH251750   0.631   2.660   4.699 -0.0958  0.5364  0.1761
10112TIP3    H151751   0.647   2.754   4.691 -2.1371  0.8790 -0.8234
10112TIP3    H251752   0.716   2.622   4.719  0.6681  2.6565  1.2643
10113TIP3   OH251753   5.080   0.334  14.021 -0.0250  0.2738  0.1151
10113TIP3    H151754   5.148   0.274  14.053  0.2191  0.2813 -0.3833
10113TIP3    H251755   5.128   0.397  13.968 -0.4368  0.2281 -0.3095
10114TIP3   OH251756   6.677   5.839  15.264  0.4903  0.8284 -0.0359
10114TIP3    H151757   6.757   5.826  15.316  1.1594  0.9305 -1.0033
10114TIP3    H251758   6.611   5.785  15.308  1.6925 -1.1641 -0.5440
10115TIP3   OH251759   6.622   6.260   3.418  0.2497 -0.1461  0.1219
10115TIP3    H151760   6.589   6.190   3.362 -1.0677  1.1037 -0.7384
10115TIP3    H251761   6.628   6.221   3.505 -0.0082 -1.4397 -0.4163
10116TIP3   OH251762   6.680   0.791  13.435  0.4915 -0.1783 -0.3159
10116TIP3    H151763   6.627   0.854  13.485  0.3665  0.4972 -1.2688
10116TIP3    H251764   6.657   0.706  13.472 -0.9358  0.1377 -0.3846
10117TIP3   OH251765   2.509   5.009   4.337 -0.1830 -0.2269 -0.0605
10117TIP3    H151766   2.440   5.063   4.299  0.9138  0.5232 -1.0541
10117TIP3    H251767   2.544   4.959   4.263 -1.7585 -3.0497  0.9607
10118TIP3   OH251768   4.612   3.363   0.799  0.4476 -0.8398 -0.5976
10118TIP3    H151769   4.641   3.309   0.725 -0.1834 -2.5813  0.3747
10118TIP3    H251770   4.671   3.339   0.870  1.9799  1.8614 -0.8142
10119TIP3   OH251771   1.989   1.581   0.164  0.1280 -0.0558 -0.8165
10119TIP3    H151772   2.074   1.616   0.191 -0.0958  0.0136 -0.1928
10119TIP3    H251773   1.927   1.650   0.186  0.0406  0.3738 -2.3472
10120TIP3   OH251774   3.011   4.539  13.921  0.1929 -0.1546 -0.3457
10120TIP3    H151775   3.009   4.552  13.826 -0.0141 -1.0921 -0.4842
10120TIP3    H251776   3.058   4.457  13.932  0.3338  0.0223  0.3747
10121TIP3   OH251777   3.675   3.526   6.034  0.0415 -0.1606 -0.3604
10121TIP3    H151778   3.765   3.558   6.021 -0.4500  0.6147 -2.1311
10121TIP3    H251779   3.670   3.446   5.982 -0.0987 -0.6166  0.3364
10122TIP3   OH251780   2.281   1.093  15.516 -0.1193  0.0147  0.1398
10122TIP3    H151781   2.193   1.062  15.542  0.2944 -1.9981 -0.6463
10122TIP3    H251782   2.266   1.139  15.434 -0.5542  0.6462  0.5534
10123TIP3   OH251783   2.536   0.507  12.272 -0.5235 -0.3594  0.4106
10123TIP3    H151784   2.507   0.553  12.350  0.8213  1.2080  0.0434
10123TIP3    H251785   2.616   0.461  12.300 -0.4036 -0.3250  0.1345
10124TIP3   OH251786   0.774   2.142   4.866 -0.0035 -0.2940  0.1068
10124TIP3    H151787   0.840   2.083   4.902 -0.4477 -1.2531 -0.5982
10124TIP3    H251788   0.789   2.139   4.772  0.5311  1.4295  0.1073
10125TIP3   OH251789   0.417   2.801  13.127 -0.6159  0.2321  0.2479
10125TIP3    H151790   0.373   2.727  13.086 -0.1235  0.2161 -0.2660
10125TIP3    H251791   0.477   2.762  13.191  0.8212  0.0571 -1.1275
10126TIP3   OH251792   2.788   6.527  13.952  1.0206  0.2944  0.6194
10126TIP3    H151793   2.774   6.524  13.857 -0.0516 -0.2993  0.7920
10126TIP3    H251794   2.811   6.618  13.969  3.5492 -0.0305 -0.5019
10127TIP3   OH251795   2.742   2.047   0.351 -0.0868  0.2485 -0.0582
10127TIP3    H151796   2.678   2.030   0.420 -2.0317 -1.4902 -2.1046
10127TIP3    H251797   2.811   1.981   0.365 -0.2661  0.1636  0.4315
10128TIP3   OH251798   1.569   1.191  11.554  0.0099  0.7443 -0.2526
10128TIP3    H151799   1.654   1.149  11.564 -1.1934 -1.8685 -0.1302
10128TIP3    H251800   1.580   1.278  11.593  2.1844 -0.0772  1.1431
10129TIP3   OH251801   6.519   4.740   6.615  0.5177  0.1186 -0.0541
10129TIP3    H151802   6.427   4.752   6.638  1.0331  1.4083  1.5064
10129TIP3    H251803   6.538   4.649   6.636 -0.4401 -0.2284 -0.6229
10130TIP3   OH251804   1.860   1.582   3.164  0.5910  0.5044  0.1823
10130TIP3    H151805   1.767   1.561   3.151  0.4581  1.0868  0.1610
10130TIP3    H251806   1.899   1.500   3.193 -0.1107  0.4925  1.1243
10131TIP3   OH251807   1.520   3.951  13.927  0.5644 -0.0222  0.3676
10131TIP3    H151808   1.477   4.028  13.963  0.1290 -0.3797  0.6271
10131TIP3    H251809   1.449   3.887  13.916  0.7261 -0.0141 -0.8849
10132TIP3   OH251810   4.993   5.094   5.425 -0.0736 -0.0230 -0.3087
10132TIP3    H151811   5.067   5.118   5.480 -0.5647 -1.1849  0.9345
10132TIP3    H251812   5.030   5.037   5.357  0.5212  1.3570 -1.1863
10133TIP3   OH251813   5.792   0.300  11.812 -0.0847  0.2913 -0.0601
10133TIP3    H151814   5.850   0.237  11.769 -0.5841 -0.0932 -0.1757
10133TIP3    H251815   5.730   0.247  11.861 -0.9339  0.6583 -0.7071
10134TIP3   OH251816   5.949   3.100  16.753  0.0128 -0.1126  0.0538
10134TIP3    H151817   5.898   3.177  16.777 -1.6561 -0.7620 -1.2024
10134TIP3    H251818   6.028   3.106  16.806 -1.2864  1.0301  1.9859
10135TIP3   OH251819   6.116   2.623  13.491  0.0320  0.1962 -0.4277
10135TIP3    H151820   6.197   2.672  13.501 -0.0426  0.1936  0.2727
10135TIP3    H251821   6.136   2.536  13.526 -1.0795  1.0495  2.7027
10136TIP3   OH251822   1.165   5.451   0.957 -0.1512 -0.1430 -0.1699
10136TIP3    H151823   1.195   5.378   0.903 -1.8567 -0.5450 -0.6218
10136TIP3    H251824   1.126   5.513   0.896  1.8008  1.4935  0.1341
10137TIP3   OH251825   0.710   3.455  15.190  0.4038  0.6230  0.5918
10137TIP3    H151826   0.656   3.416  15.258  0.0059  0.5041  0.2174
10137TIP3    H251827   0.733   3.542  15.223 -0.3860  0.8452  0.5730
10138TIP3   OH251828   0.521   6.693  16.282 -0.2693  0.0305 -0.2261
10138TIP3    H151829   0.547   6.692  16.374 -0.5238  0.7519 -0.1395
10138TIP3    H251830   0.436   6.738  16.282 -1.0527 -1.3836 -0.6219
10139TIP3   OH251831   5.832   3.076   6.181 -0.7199 -0.8070  0.0811
10139TIP3    H151832   5.756   3.088   6.124  0.6928  0.6777 -1.5746
10139TIP3    H251833   5.866   2.990   6.158 -0.2376 -0.2709 -1.2534
10140TIP3   OH251834   1.446   3.508   6.256  0.0057 -0.7604  0.4134
10140TIP3    H151835   1.515   3.441   6.250 -0.3617 -1.1077  0.0221
10140TIP3    H251836   1.375   3.465   6.304 -0.3020 -0.7056  0.0047
10141TIP3   OH251837   6.562   1.459  15.327 -0.1200  0.3136 -0.3890
10141TIP3    H151838   6.523   1.378  15.293  2.2772 -1.4110  0.6390
10141TIP3    H251839   6.629   1.482  15.263  0.4057  0.4534  0.2009
10142TIP3   OH251840   2.866   4.776  12.929 -1.0045  0.0776  0.0154
10142TIP3    H151841   2.915   4.694  12.926  0.2463  0.6538  2.0619
10142TIP3    H251842   2.784   4.754  12.973 -0.9251 -0.2086  0.0212
10143TIP3   OH251843   6.354   3.490  14.709 -0.2632 -0.2191 -0.6977
10143TIP3    H151844   6.419   3.540  14.760  0.6352  0.3013 -2.2920
10143TIP3    H251845   6.394   3.404  14.697 -0.1063 -0.0748 -1.2186
10144TIP3   OH251846   4.294   6.629   5.069  0.1861 -0.5972 -0.0736
10144TIP3    H151847   4.330   6.541   5.081 -0.6228 -0.6609  2.6049
10144TIP3    H251848   4.271   6.657   5.157 -0.9220  1.7467 -1.0300
10145TIP3   OH251849   6.454   5.568  10.637 -0.3083 -0.0741 -0.3482
10145TIP3    H151850   6.527   5.580  10.697 -0.9861 -0.2126  0.5165
10145TIP3    H251851   6.495   5.542  10.554  0.5490 -1.4020  0.4634
10146TIP3   OH251852   5.618   4.411  10.581  0.2297 -0.6088 -0.6407
10146TIP3    H151853   5.612   4.325  10.624  2.2554 -0.6814 -0.4184
10146TIP3    H251854   5.531   4.450  10.593  0.4514 -0.8906  2.9743
10147TIP3   OH251855   0.556   5.454   4.764  0.0073 -0.9157 -0.2968
10147TIP3    H151856   0.469   5.434   4.797 -0.1134  0.4714  0.2886
10147TIP3    H251857   0.584   5.374   4.719 -1.8977 -1.0948 -1.2378
10148TIP3   OH251858   5.183   5.938  13.650  0.4007 -1.0992  0.2136
10148TIP3    H151859   5.175   5.981  13.565 -0.0340  0.5290  1.0372
10148TIP3    H251860   5.105   5.964  13.698  0.9495 -1.4492  1.3394
10149TIP3   OH251861   1.833   4.793  12.825 -0.3850  0.3526 -0.1091
10149TIP3    H151862   1.891   4.720  12.804 -0.3791  0.0048  1.0760
10149TIP3    H251863   1.893   4.865  12.847 -0.3945  0.3265  0.0033
10150TIP3   OH251864   6.705   2.711   0.378 -0.3330 -0.0523 -0.0515
10150TIP3    H151865   6.722   2.802   0.402 -0.9130 -0.2779  1.2652
10150TIP3    H251866   6.791   2.669   0.381  0.0820  0.6099 -1.5130
10151TIP3   OH251867   1.957   3.967   6.129  0.0749 -0.3924 -0.2283
10151TIP3    H151868   1.954   3.871   6.130  0.6245 -0.4544  2.2703
10151TIP3    H251869   1.901   3.994   6.201  0.5880  1.1369 -0.3519
10152TIP3   OH251870   0.604   3.079  13.696 -0.3668  0.5610 -0.2227
10152TIP3    H151871   0.563   3.009  13.644  0.1535  1.8119 -2.4100
10152TIP3    H251872   0.550   3.156  13.678  0.3634  1.2308  0.4156
10153TIP3   OH251873   3.035   0.765   4.963  0.2948  0.0809 -0.1647
10153TIP3    H151874   2.965   0.800   5.019  3.2166  0.6077  3.5433
10153TIP3    H251875   3.044   0.673   4.991  1.2239  0.0935 -0.3913
10154TIP3   OH251876   3.693   3.076  10.910  0.5930 -0.2846 -0.3491
10154TIP3    H151877   3.719   3.008  10.847 -0.6248 -1.4469  0.3386
10154TIP3    H251878   3.773   3.098  10.957  0.9862 -1.3666 -0.4889
10155TIP3   OH251879   1.391   0.152  16.909 -0.1712  0.1456  0.3384
10155TIP3    H151880   1.486   0.152  16.896 -0.4326  0.8372 -2.0190
10155TIP3    H251881   1.357   0.095  16.840 -1.4671 -0.5158  1.4675
10156TIP3   OH251882   3.304   4.549  14.102  0.4402 -0.5694  0.4630
10156TIP3    H151883   3.300   4.475  14.162 -0.5111 -0.7752  0.1791
10156TIP3    H251884   3.216   4.587  14.106  0.8332  0.3795  0.3916
10157TIP3   OH251885   5.607   4.001   0.880 -0.6850 -0.2774 -0.2453
10157TIP3    H151886   5.572   4.087   0.901 -1.0376  0.3585 -3.1224
10157TIP3    H251887   5.687   4.018   0.831 -0.7022 -1.5677 -0.7842
10158TIP3   OH251888   4.051   1.644  12.775  0.2185  0.1401 -0.1857
10158TIP3    H151889   4.008   1.580  12.831 -0.8156 -0.1808 -1.2922
10158TIP3    H251890   4.128   1.599  12.742 -1.2557 -1.1444 -2.1116
10159TIP3   OH251891   5.020   3.746   2.463  0.3725 -0.0893 -0.4594
10159TIP3    H151892   5.021   3.698   2.380  0.3860 -0.1626 -0.4169
10159TIP3    H251893   5.069   3.826   2.445 -1.0054  0.6684 -0.9968
10160TIP3   OH251894   6.079   1.457   4.975 -0.0520 -0.1050 -0.1744
10160TIP3    H151895   6.080   1.399   4.899  0.0148 -2.2614  1.3812
10160TIP3    H251896   5.993   1.443   5.015  0.6011 -0.4814  1.1749
10161TIP3   OH251897   5.862   6.037   2.261 -0.2737 -0.1554 -0.1239
10161TIP3    H151898   5.788   5.982   2.234 -2.0826  0.8565  2.3059
10161TIP3    H251899   5.846   6.054   2.354  1.1472  2.9791 -0.3211
10162TIP3   OH251900   0.666   0.337   5.272  0.5228  0.7873 -0.3871
10162TIP3    H151901   0.753   0.373   5.252  0.7525  0.4833  0.0413
10162TIP3    H251902   0.684   0.247   5.301  0.0212  0.5631 -0.7538
10163TIP3   OH251903   6.302   1.011   3.460 -0.0930 -0.7339 -0.0307
10163TIP3    H151904   6.334   1.101   3.455  0.2549 -0.7199  1.8527
10163TIP3    H251905   6.374   0.958   3.426 -0.1104 -0.3599 -0.6831
10164TIP3   OH251906   2.470   6.548  14.310  0.0144 -0.2457  0.1409
10164TIP3    H151907   2.387   6.510  14.282  0.0188 -0.6810  0.7061
10164TIP3    H251908   2.491   6.611  14.242 -0.5926 -0.4006 -0.2003
10165TIP3   OH251909   0.798   4.756  13.523  0.2038 -0.3240 -0.2573
10165TIP3    H151910   0.811   4.837  13.474 -0.8548 -0.9550 -1.6660
10165TIP3    H251911   0.755   4.784  13.604 -0.5819  0.4904 -0.9278
10166TIP3   OH251912   6.080   3.677  10.456  0.3087 -0.0636 -0.0477
10166TIP3    H151913   6.043   3.738  10.392  0.5506 -0.2057 -0.3244
10166TIP3    H251914   6.032   3.595  10.442 -1.7605  0.6824  1.9533
10167TIP3   OH251915   4.480   3.292   1.107  0.5678 -0.4547  0.7193
10167TIP3    H151916   4.574   3.282   1.093  0.3332  0.8329 -2.7626
10167TIP3    H251917   4.473   3.351   1.182  2.5673  0.2943  0.3628
10168TIP3   OH251918   6.157   3.382   2.447  0.6699 -0.6179  0.7852
10168TIP3    H151919   6.121   3.362   2.533 -0.5639 -2.7993 -0.1561
10168TIP3    H251920   6.242   3.339   2.446 -0.1386 -2.2668  0.2824
10169TIP3   OH251921   1.097   0.027  12.720 -0.1221 -0.1175 -0.0645
10169TIP3    H151922   1.169   0.034  12.783  0.8565 -2.6068 -0.7858
10169TIP3    H251923   1.018   0.020  12.774  0.7419 -2.6896  1.0080
10170TIP3   OH251924   4.795   0.170  15.442 -0.7768  0.1652 -0.2474
10170TIP3    H151925   4.853   0.096  15.426 -3.2217 -2.1113  0.6764
10170TIP3    H251926   4.733   0.168  15.369 -0.1160  2.2279 -0.9503
10171TIP3   OH251927   1.930   5.947  13.877 -0.5301 -0.4560 -0.3347
10171TIP3    H151928   1.955   5.859  13.848 -1.6060  0.1097 -3.3252
10171TIP3    H251929   2.012   5.997  13.872 -0.5259 -0.5495 -2.0146
10172TIP3   OH251930   1.949   4.590  16.030 -0.5283  0.0842  0.1544
10172TIP3    H151931   2.006   4.665  16.047 -1.0970  0.6632 -0.4550
10172TIP3    H251932   1.990   4.518  16.079  0.0755  0.7576  0.6731
10173TIP3   OH251933   6.063   4.362   6.126  0.1721 -0.7075 -0.0914
10173TIP3    H151934   6.133   4.400   6.179 -1.3661  0.7942  0.9927
10173TIP3    H251935   6.018   4.438   6.089 -0.0155 -1.6810 -1.9674
10174TIP3   OH251936   1.232   2.106  15.431 -0.3785  0.0985  0.5030
10174TIP3    H151937   1.157   2.047  15.434 -1.5254  1.5001  0.3766
10174TIP3    H251938   1.254   2.113  15.338  2.2121 -3.0228  0.7232
10175TIP3   OH251939   1.390   3.205  14.963 -0.5375  0.3465 -0.4743
10175TIP3    H151940   1.337   3.199  14.883 -0.9278 -0.1668 -0.1864
10175TIP3    H251941   1.370   3.291  14.999 -2.3862 -0.3916  0.4249
10176TIP3   OH251942   1.137   5.751   0.970 -0.0884  0.3024  0.0345
10176TIP3    H151943   1.078   5.806   0.919 -2.1091 -0.7042  1.1728
10176TIP3    H251944   1.194   5.709   0.904 -1.5464  0.2524 -1.2544
10177TIP3   OH251945   6.365   1.196  13.813  0.3086 -0.2896  0.2432
10177TIP3    H151946   6.458   1.197  13.788  0.5625  1.4633  1.0955
10177TIP3    H251947   6.366   1.204  13.908 -0.7351  0.5901  0.1923
10178TIP3   OH251948   5.187   0.771  15.538  0.2271 -0.3772 -0.0414
10178TIP3    H151949   5.221   0.795  15.452  0.9659  0.5776  0.4917
10178TIP3    H251950   5.241   0.697  15.566  0.7210  0.0200  0.0634
10179TIP3   OH251951   6.354   6.427   1.912 -0.3805 -0.1972  0.2183
10179TIP3    H151952   6.348   6.339   1.873  1.2084 -0.3627  0.2493
10179TIP3    H251953   6.269   6.467   1.895 -0.6594 -1.2498 -1.0335
10180TIP3   OH251954   0.048   4.552   6.747 -0.1774  0.5550 -0.5154
10180TIP3    H151955  -0.004   4.473   6.755 -0.0016  0.6413  3.2890
10180TIP3    H251956   0.123   4.526   6.694  0.2503 -2.1422  1.2026
10181TIP3   OH251957   5.133   5.569  12.724 -0.2993  0.4806 -0.3590
10181TIP3    H151958   5.212   5.582  12.777  0.4870  0.4289 -1.4796
10181TIP3    H251959   5.114   5.655  12.688 -0.9816  0.5701  0.1970
10182TIP3   OH251960   0.158   0.241  12.655  0.0109 -0.4239 -0.2353
10182TIP3    H151961   0.249   0.220  12.679  0.4751  1.8318  0.2596
10182TIP3    H251962   0.144   0.328  12.693 -1.8770 -0.0909 -1.6030
10183TIP3   OH251963   6.748   4.490   5.630  0.0016 -0.0103 -0.5299
10183TIP3    H151964   6.656   4.505   5.607 -0.7051 -0.6698  1.5729
10183TIP3    H251965   6.749   4.400   5.664  1.3907  0.0671 -0.3254
10184TIP3   OH251966   0.741   4.285  14.134  0.2403  0.0291 -0.5557
10184TIP3    H151967   0.709   4.347  14.199  1.6493 -0.5349  0.7314
10184TIP3    H251968   0.777   4.340  14.065  2.0885  0.7080  0.8749
10185TIP3   OH251969   5.686   6.644   4.592 -0.1201 -0.5083  0.2083
10185TIP3    H151970   5.631   6.597   4.655 -0.3078 -1.5851 -0.7127
10185TIP3    H251971   5.775   6.633   4.626 -0.4025  1.0851  1.6061
10186TIP3   OH251972   0.839   3.440   3.112  0.4682 -0.5540 -0.4228
10186TIP3    H151973   0.791   3.362   3.084 -0.5050  0.0531 -0.4791
10186TIP3    H251974   0.774   3.510   3.112  1.2184  0.1651  0.0970
10187TIP3   OH251975   5.295   2.718   2.258  0.3509  0.1076  0.0070
10187TIP3    H151976   5.331   2.725   2.170  1.0038 -0.1847  0.2447
10187TIP3    H251977   5.303   2.625   2.280  0.1424  0.1706  0.3516
10188TIP3   OH251978   1.778   5.563  16.682  0.4260 -0.3299  0.0947
10188TIP3    H151979   1.814   5.513  16.755  0.3733  0.6299  0.7932
10188TIP3    H251980   1.852   5.613  16.648  0.2256  0.0146  0.1602
10189TIP3   OH251981   4.254   4.975   0.399  0.3576  0.3142  0.4376
10189TIP3    H151982   4.213   4.900   0.442 -1.7427  0.8634 -0.4543
10189TIP3    H251983   4.340   4.943   0.371 -0.7946 -2.0604 -0.6767
10190TIP3   OH251984   1.872   5.062   5.822  0.3058 -0.0907 -0.0036
10190TIP3    H151985   1.932   5.043   5.751  0.9800 -1.3221  0.8637
10190TIP3    H251986   1.832   4.978   5.843  1.7633 -0.2318  2.5205
10191TIP3   OH251987   3.206   5.685   4.180  0.3957 -0.1428 -0.4734
10191TIP3    H151988   3.256   5.765   4.195 -1.8148  1.5754 -1.7048
10191TIP3    H251989   3.186   5.653   4.269  0.9947  0.8839  0.0506
10192TIP3   OH251990   2.044   3.990  14.846  0.2190 -0.1421  0.8383
10192TIP3    H151991   2.096   4.043  14.906  0.6978 -0.1578  0.4390
10192TIP3    H251992   1.966   3.966  14.897  0.6960 -0.2915  1.5118
10193TIP3   OH251993   3.807   2.303   3.316  0.1245  0.6518 -0.3375
10193TIP3    H151994   3.824   2.312   3.222  0.6813  1.8973 -0.1415
10193TIP3    H251995   3.853   2.223   3.341  0.6964  0.7668 -0.9735
10194TIP3   OH251996   3.224   0.258  17.350 -0.2117  0.0013 -0.1667
10194TIP3    H151997   3.174   0.232  17.427 -0.2444 -1.6636 -0.7020
10194TIP3    H251998   3.161   0.302  17.293 -0.2333  1.0469  0.6330
10195TIP3   OH251999   4.689   0.963   0.879  0.2547  0.5745  0.4160
10195TIP3    H152000   4.635   1.033   0.841  1.8693  1.6358 -0.0134
10195TIP3    H252001   4.644   0.940   0.961 -0.7893  1.4773  0.1208
10196TIP3   OH252002   1.046   1.537  11.240 -0.3766  0.0391 -0.1928
10196TIP3    H152003   0.967   1.572  11.281 -0.5323 -1.3251  0.7611
10196TIP3    H252004   1.018   1.508  11.154 -0.7783  0.1233 -0.0895
10197TIP3   OH252005   6.623   3.381  12.817  0.2823  0.4956 -0.5066
10197TIP3    H152006   6.676   3.420  12.747  1.3898 -0.3462 -0.1722
10197TIP3    H252007   6.613   3.290  12.791 -0.4353  0.4876 -0.2136
10198TIP3   OH252008   0.107   1.359  12.576 -0.2778  0.7957  0.1978
10198TIP3    H152009   0.099   1.281  12.521 -0.0814  0.4166  0.6954
10198TIP3    H252010   0.131   1.429  12.515  0.0408  0.3612 -0.1865
10199TIP3   OH252011   1.899   2.399   1.267  0.3136  1.2046 -0.5253
10199TIP3    H152012   1.916   2.480   1.316  0.8365  1.1974 -0.6946
10199TIP3    H252013   1.809   2.376   1.290 -0.3271  2.5755 -1.5151
10200TIP3   OH252014   6.018   3.512   3.237  0.1967  0.2424 -0.6660
10200TIP3    H152015   6.076   3.576   3.196  1.0641  0.3510  0.6735
10200TIP3    H252016   6.066   3.430   3.233  0.1485  0.1855 -0.1935
10201TIP3   OH252017   4.916   2.540  10.958  0.4045 -0.2167  0.2277
10201TIP3    H152018   4.983   2.597  10.996  0.4852  1.8185 -2.6326
10201TIP3    H252019   4.961   2.497  10.884 -0.7869 -0.7570 -0.2087
10202TIP3   OH252020   1.411   6.425  15.788  0.6911 -0.0830  0.4987
10202TIP3    H152021   1.408   6.392  15.878  0.6261 -1.0312  0.1554
10202TIP3    H252022   1.320   6.422  15.759  0.6844  0.4116  0.4607
10203TIP3   OH252023   4.125   1.728  12.112 -0.0107 -0.2407  0.0626
10203TIP3    H152024   4.196   1.765  12.059 -2.8151  0.7488 -3.3544
10203TIP3    H252025   4.057   1.795  12.111 -1.6839 -1.7960  1.8059
10204TIP3   OH252026   1.094   6.284   2.332 -0.9388  0.1649  0.5958
10204TIP3    H152027   1.147   6.287   2.252  0.6005 -0.6731  1.5367
10204TIP3    H252028   1.016   6.335   2.311  0.4181  1.8066 -0.7362
10205TIP3   OH252029   6.026   5.042  13.601 -0.1471  0.0259  0.3125
10205TIP3    H152030   5.979   5.066  13.681 -1.4353  1.9598 -0.9550
10205TIP3    H252031   6.111   5.087  13.609  1.1952 -2.5308  2.0553
10206TIP3   OH252032   5.633   0.985   5.118 -0.0600  0.2670  0.5329
10206TIP3    H152033   5.553   0.948   5.081 -0.6394  0.3335  1.6747
10206TIP3    H252034   5.641   0.944   5.205  0.4855  1.1565  0.9225
10207TIP3   OH252035   0.003   5.937  12.485  0.1784 -0.2073 -0.1432
10207TIP3    H152036   0.045   5.915  12.402  0.8170  0.7093 -0.0692
10207TIP3    H252037   0.073   5.929  12.550 -0.2080 -0.4678  0.2456
10208TIP3   OH252038   5.779   1.572   4.489 -0.1448  0.1327  0.0045
10208TIP3    H152039   5.819   1.576   4.576  1.7477 -0.3860 -0.7944
10208TIP3    H252040   5.803   1.655   4.448  0.4821 -0.3616 -0.6353
10209TIP3   OH252041   1.109   3.241   2.199  0.3691 -1.1540  0.1041
10209TIP3    H152042   1.092   3.331   2.227 -0.2129 -0.6878 -1.6396
10209TIP3    H252043   1.204   3.231   2.204  0.4144 -0.5240  0.5289
10210TIP3   OH252044   2.670   1.965  14.798 -0.2167 -0.6387 -0.1480
10210TIP3    H152045   2.712   2.022  14.734 -0.2361  0.5346  0.8331
10210TIP3    H252046   2.670   1.879  14.757  2.2170 -0.4952 -0.6326
10211TIP3   OH252047   1.077   0.292  16.076  0.0560  0.5255  0.3785
10211TIP3    H152048   1.025   0.257  16.004  1.0573  3.0770 -1.7420
10211TIP3    H252049   1.156   0.238  16.078  0.1633  0.6231 -0.7100
10212TIP3   OH252050   1.029   5.147  16.186 -0.0976 -0.0139  0.1723
10212TIP3    H152051   1.072   5.232  16.192  0.3873 -0.2202 -0.2549
10212TIP3    H252052   0.944   5.165  16.146  0.4600  0.1382 -0.9913
10213TIP3   OH252053   5.601   1.404  11.822  0.0887  0.0469 -0.0129
10213TIP3    H152054   5.653   1.404  11.902 -0.9567 -0.0949  0.6805
10213TIP3    H252055   5.564   1.491  11.816  0.3314  0.1245 -0.4659
10214TIP3   OH252056   2.992   5.461  13.230  0.5043  0.4152 -0.5225
10214TIP3    H152057   2.929   5.425  13.167 -1.3523  1.6822  0.5009
10214TIP3    H252058   3.004   5.552  13.203  0.6305  0.6372  0.2502
10215TIP3   OH252059   6.668   3.416  15.789  0.4909 -0.1950 -0.0269
10215TIP3    H152060   6.635   3.344  15.843  1.0727 -0.4265  0.0292
10215TIP3    H252061   6.736   3.457  15.843 -0.7050  1.2176  0.4685
10216TIP3   OH252062   2.374   3.683  17.019  0.9057  0.3101 -0.0873
10216TIP3    H152063   2.324   3.682  16.938 -0.4901 -1.1664  0.7259
10216TIP3    H252064   2.429   3.605  17.015  0.1901 -0.2518  0.7422
10217TIP3   OH252065   2.887   5.251   2.749  0.4306  0.2417  0.3204
10217TIP3    H152066   2.915   5.339   2.774  1.6884 -0.1652  0.4179
10217TIP3    H252067   2.805   5.264   2.702 -0.8731  1.2207  2.6857
10218TIP3   OH252068   1.663   0.715  14.781  0.0953  0.0892 -0.0182
10218TIP3    H152069   1.658   0.621  14.763 -0.1453 -0.4514  2.5038
10218TIP3    H252070   1.683   0.721  14.874 -0.8670  2.5477  0.1131
10219TIP3   OH252071   0.116   1.285   1.224  0.7023  0.6239 -0.2677
10219TIP3    H152072   0.029   1.261   1.255  1.2616  0.3893  1.1674
10219TIP3    H252073   0.137   1.367   1.269  1.5582  0.2431  0.0535
10220TIP3   OH252074   5.939   0.559   4.013  0.4202  0.1613 -0.4467
10220TIP3    H152075   5.902   0.477   3.977  1.6290  0.0403 -1.4837
10220TIP3    H252076   5.910   0.626   3.951 -0.6401  0.5657  0.4497
10221TIP3   OH252077   5.024   4.094  10.872  0.0220  0.2693 -0.6674
10221TIP3    H152078   4.972   4.165  10.836 -0.2391 -0.3619 -1.5644
10221TIP3    H252079   5.038   4.035  10.798  3.6689  1.3334 -1.0536
10222TIP3   OH252080   2.712   3.045   6.357 -0.0294  0.6907  0.0207
10222TIP3    H152081   2.731   2.964   6.309 -1.5627  0.3469 -0.0510
10222TIP3    H252082   2.722   3.022   6.449 -1.1273  0.2248  0.0307
10223TIP3   OH252083   3.129   5.173  12.390  0.8956 -0.6896 -0.3129
10223TIP3    H152084   3.147   5.239  12.458 -0.5396  0.0085 -0.5779
10223TIP3    H252085   3.069   5.217  12.330  0.8103 -1.8820 -1.1240
10224TIP3   OH252086   0.611   1.800  16.985  0.7436 -0.4149 -0.2404
10224TIP3    H152087   0.627   1.858  17.060  1.2734 -1.4046  0.4266
10224TIP3    H252088   0.683   1.736  16.989  1.2697  0.0161 -2.0969
10225TIP3   OH252089   4.821   5.352   0.156 -0.9244 -0.4317  0.2869
10225TIP3    H152090   4.837   5.443   0.179  1.1277 -0.8448  0.6575
10225TIP3    H252091   4.822   5.351   0.060 -0.6678 -0.1018  0.2832
10226TIP3   OH252092   0.148   5.731  15.406  0.0182  0.1884 -0.1051
10226TIP3    H152093   0.224   5.732  15.349  0.7163  1.1710  0.8129
10226TIP3    H252094   0.148   5.644  15.444 -0.4497 -0.4832 -1.5489
10227TIP3   OH252095   0.738   5.150  12.852 -0.1165  0.5050 -0.5099
10227TIP3    H152096   0.752   5.080  12.915 -0.8763 -0.7500 -1.6837
10227TIP3    H252097   0.822   5.196  12.848  1.4406 -2.2075 -1.8965
10228TIP3   OH252098   1.599   5.413  13.724  0.1965  0.0538 -0.3831
10228TIP3    H152099   1.528   5.436  13.784  0.5549  0.8045 -0.2345
10228TIP3    H252100   1.606   5.318  13.731  0.0226  0.0923  0.5350
10229TIP3   OH252101   5.615   1.017   3.036  0.5270 -0.8843  0.2558
10229TIP3    H152102   5.594   0.968   2.956  0.2153  0.0690 -0.2696
10229TIP3    H252103   5.700   1.056   3.018  0.7145 -1.1209  0.6200
10230TIP3   OH252104   1.786   5.991  16.537  0.1755  0.0399  0.3194
10230TIP3    H152105   1.819   5.994  16.627 -1.3348 -0.6560  0.9365
10230TIP3    H252106   1.823   6.069  16.495  0.2117  0.8645  1.8036
10231TIP3   OH252107   6.314   5.272  16.409  0.2330  0.5106 -0.3397
10231TIP3    H152108   6.240   5.253  16.350 -0.7081  2.7456  0.0364
10231TIP3    H252109   6.275   5.321  16.481  1.6655 -0.6753  1.3217
10232TIP3   OH252110   5.457   4.166   5.102  0.5547 -0.2998  0.1100
10232TIP3    H152111   5.377   4.203   5.138 -0.9356 -2.7855 -0.3482
10232TIP3    H252112   5.521   4.175   5.172 -0.0775  1.7519  0.4950
10233TIP3   OH252113   3.790   1.570  13.955 -0.1331 -0.6668  0.2847
10233TIP3    H152114   3.715   1.629  13.966  0.2164 -0.0675 -0.4534
10233TIP3    H252115   3.803   1.564  13.860  0.2236 -1.4545  0.3672
10234TIP3   OH252116   1.696   4.680   1.277  0.1179 -0.9505 -0.5942
10234TIP3    H152117   1.676   4.663   1.369  0.1995 -0.5299 -0.4951
10234TIP3    H252118   1.745   4.603   1.248  0.6768 -0.7827 -0.0981
10235TIP3   OH252119   6.489   2.415  14.059  0.3515  0.4453 -0.5997
10235TIP3    H152120   6.411   2.449  14.014  1.3676  2.6173 -0.8592
10235TIP3    H252121   6.494   2.324  14.032 -1.4259  0.5771 -1.5368
10236TIP3   OH252122   0.427   5.480   0.543  0.1554  0.4576 -0.4994
10236TIP3    H152123   0.448   5.389   0.563  2.4782  0.5583 -2.1475
10236TIP3    H252124   0.426   5.524   0.628  0.4680 -0.8050  0.1787
10237TIP3   OH252125   3.782   5.691  11.468  0.5634  0.6454 -0.2516
10237TIP3    H152126   3.772   5.732  11.382 -0.5557 -2.1817 -1.5534
10237TIP3    H252127   3.694   5.687  11.504  0.8819  0.8144  0.5842
10238TIP3   OH252128   5.108   4.221  13.018  0.0363 -0.0828 -0.3959
10238TIP3    H152129   5.185   4.212  12.961  0.6970 -0.5286  0.5377
10238TIP3    H252130   5.080   4.312  13.006  1.8897  0.6846  0.6644
10239TIP3   OH252131   4.188   0.534   5.622  0.0683 -0.1393 -0.2112
10239TIP3    H152132   4.208   0.609   5.567 -0.3273  0.7154  0.7855
10239TIP3    H252133   4.189   0.459   5.562  0.8100  0.6039 -1.1526
10240TIP3   OH252134   0.169   4.116  15.356 -0.4453  0.1121  0.4042
10240TIP3    H152135   0.155   4.160  15.440 -0.4270  0.8181  0.0427
10240TIP3    H252136   0.105   4.044  15.355 -0.2078 -0.1143  1.1638
10241TIP3   OH252137   3.952   2.421   4.845 -0.4072  0.3564  0.2836
10241TIP3    H152138   4.002   2.462   4.916  1.2035 -2.5373  0.9610
10241TIP3    H252139   3.999   2.446   4.766 -0.1259  0.7050  0.5539
10242TIP3   OH252140   5.703   0.292  13.800 -0.0453 -0.3128 -0.1262
10242TIP3    H152141   5.632   0.347  13.834  1.2708  0.5272  1.4417
10242TIP3    H252142   5.688   0.288  13.706 -1.2393  1.2060 -0.0397
10243TIP3   OH252143   2.654   1.014  16.506  0.3282  0.1876 -0.1362
10243TIP3    H152144   2.560   1.027  16.513 -0.2316 -2.6756 -1.3526
10243TIP3    H252145   2.691   1.076  16.570 -2.1797  2.6742 -0.8872
10244TIP3   OH252146   4.105   2.422   1.323 -0.2260  0.0450  0.2927
10244TIP3    H152147   4.159   2.432   1.401 -0.1621  0.9946  0.1481
10244TIP3    H252148   4.048   2.500   1.324 -1.8246 -1.0804  0.6164
10245TIP3   OH252149   4.859   1.029  12.652  0.0918  0.1313 -0.5905
10245TIP3    H152150   4.933   1.028  12.712  0.0278  0.0537 -0.5117
10245TIP3    H252151   4.800   0.961  12.685 -0.0240  0.2068 -0.6376
10246TIP3   OH252152   5.946   6.221  14.241 -0.6216 -0.1909  0.5478
10246TIP3    H152153   6.040   6.204  14.252 -0.3068  1.4529  0.6228
10246TIP3    H252154   5.917   6.252  14.327 -0.2292  3.4934 -0.4627
10247TIP3   OH252155   2.226   4.180   2.837 -0.2691  0.3068 -0.2116
10247TIP3    H152156   2.191   4.125   2.767 -1.4119 -4.0885  3.3488
10247TIP3    H252157   2.151   4.230   2.869  0.1036  1.7804 -1.5096
10248TIP3   OH252158   3.010   1.036  12.122 -0.4403 -0.0701 -0.3208
10248TIP3    H152159   2.933   0.979  12.115  1.0542 -2.0228 -1.9834
10248TIP3    H252160   3.079   0.990  12.074  1.9260  1.3862  1.4506
10249TIP3   OH252161   0.135   3.492  11.941 -0.5191  0.0852  0.1701
10249TIP3    H152162   0.216   3.497  11.991  0.1064  0.4473 -0.8529
10249TIP3    H252163   0.125   3.398  11.921 -0.0369  0.1072 -0.1964
10250TIP3   OH252164   2.602   2.767   6.318 -0.1541 -0.3788  0.2980
10250TIP3    H152165   2.694   2.785   6.299 -0.5939  1.2690 -0.4388
10250TIP3    H252166   2.570   2.722   6.240  0.0705 -1.2002  0.6658
10251TIP3   OH252167   5.758   1.754   1.696 -0.7528 -0.0470 -0.3685
10251TIP3    H152168   5.817   1.820   1.661 -2.5304  1.0498 -1.5060
10251TIP3    H252169   5.713   1.718   1.619 -0.0061 -2.4795  0.2296
10252TIP3   OH252170   6.743   5.900   5.338 -0.0212  0.8020  0.4178
10252TIP3    H152171   6.751   5.814   5.296  1.1491  1.6945 -1.3129
10252TIP3    H252172   6.649   5.913   5.349 -0.2334 -0.5251  0.3421
10253TIP3   OH252173   3.958   4.601  12.392 -0.1220  0.4616  0.0959
10253TIP3    H152174   3.871   4.640  12.387 -0.0118  1.1073  2.3719
10253TIP3    H252175   4.017   4.672  12.369 -0.1511  0.0255 -1.4385
10254TIP3   OH252176   3.329   5.020   2.865  0.1555 -0.2115 -0.1215
10254TIP3    H152177   3.341   4.974   2.949  0.8365 -0.0773 -0.1400
10254TIP3    H252178   3.245   5.065   2.875  0.6603  0.5625  0.8507
10255TIP3   OH252179   0.204   5.823   6.088  0.4371  0.7185  0.4986
10255TIP3    H152180   0.217   5.748   6.030  1.2880  2.6151 -1.9215
10255TIP3    H252181   0.277   5.818   6.150 -0.1768 -1.0434  1.1355
10256TIP3   OH252182   3.351   0.265   2.055  0.0989  0.1371  0.0618
10256TIP3    H152183   3.354   0.329   1.984  0.9025 -1.5749 -1.5350
10256TIP3    H252184   3.283   0.204   2.030 -0.9255  0.5267  1.7614
10257TIP3   OH252185   4.454   1.485  13.821 -0.3306 -0.4612  0.4738
10257TIP3    H152186   4.427   1.401  13.783 -1.0720 -0.6597  1.3919
10257TIP3    H252187   4.372   1.535  13.828 -0.0032  0.0619  0.5958
10258TIP3   OH252188   1.803   5.154  16.838  0.0988 -0.1810 -0.0626
10258TIP3    H152189   1.826   5.206  16.761 -0.2896 -1.1687 -0.8745
10258TIP3    H252190   1.770   5.072  16.802 -0.4894 -0.5030  1.1599
10259TIP3   OH252191   4.998   5.236  16.934  0.3272 -0.4633  0.1357
10259TIP3    H152192   4.915   5.204  16.968  0.5730 -1.0137  0.2352
10259TIP3    H252193   4.990   5.224  16.839 -0.2893  0.9058 -0.0011
10260TIP3   OH252194   2.254   1.446  11.590 -0.7187 -0.2866  0.3165
10260TIP3    H152195   2.218   1.474  11.507  2.3631 -1.6710 -1.6831
10260TIP3    H252196   2.205   1.367  11.612  0.1626 -1.4759 -1.7070
10261TIP3   OH252197   6.039   2.620  17.395  0.3954 -0.4018 -1.0178
10261TIP3    H152198   5.958   2.602  17.348  1.1712 -1.5056 -1.9744
10261TIP3    H252199   6.029   2.574  17.479 -0.1222 -0.1952 -0.9656
10262TIP3   OH252200   1.460   6.251   5.172 -0.1058 -0.1782  0.3562
10262TIP3    H152201   1.550   6.218   5.181  0.5396  1.0943 -0.9522
10262TIP3    H252202   1.467   6.321   5.107 -2.1690 -0.4286 -0.1895
10263TIP3   OH252203   3.546   3.314   2.604 -0.6393 -0.0708 -0.8016
10263TIP3    H152204   3.476   3.378   2.587 -0.8289  0.3616  1.3732
10263TIP3    H252205   3.625   3.357   2.572 -0.7499  1.3334  0.7023
10264TIP3   OH252206   3.435   6.165   6.653  0.0252  0.1199  0.7440
10264TIP3    H152207   3.509   6.169   6.593  0.2313 -1.6032  0.8435
10264TIP3    H252208   3.473   6.138   6.737 -0.7400 -1.1245  0.7116
10265TIP3   OH252209   4.103   0.732   5.095  0.4261  0.1948 -0.3936
10265TIP3    H152210   4.047   0.691   5.029  1.6176  0.2785 -1.5126
10265TIP3    H252211   4.076   0.824   5.096 -0.1921  0.0123 -0.1154
10266TIP3   OH252212   2.669   1.922  13.656 -0.1607 -0.3051 -0.0451
10266TIP3    H152213   2.714   1.970  13.587 -0.8739  0.5224  0.0483
10266TIP3    H252214   2.690   1.970  13.736  0.8624 -1.3982  0.3653
10267TIP3   OH252215   0.264   4.184   3.729  0.3244  0.0303 -0.3533
10267TIP3    H152216   0.307   4.112   3.682  0.5480  0.6468 -1.1005
10267TIP3    H252217   0.255   4.151   3.819  0.7927 -0.7725 -0.5889
10268TIP3   OH252218   1.757   3.094  14.809  0.1934  0.0063 -0.2427
10268TIP3    H152219   1.684   3.051  14.854  1.5711 -1.6012  0.5241
10268TIP3    H252220   1.742   3.187  14.824 -0.6218 -0.3872  1.6179
10269TIP3   OH252221   0.016   5.479   0.324 -0.1986  0.0144  0.1587
10269TIP3    H152222   0.093   5.512   0.369 -1.1136  0.1601  1.6964
10269TIP3    H252223   0.014   5.527   0.241  0.8945  0.6241  0.4686
10270TIP3   OH252224   2.747   0.918   2.203 -0.0674 -0.4705 -0.2595
10270TIP3    H152225   2.709   0.842   2.158  1.4435  0.1543 -2.7882
10270TIP3    H252226   2.703   0.993   2.163 -0.5370  0.0788  1.2240
10271TIP3   OH252227   4.093   0.718   3.211 -0.1395 -0.0627 -0.1189
10271TIP3    H152228   4.106   0.778   3.285  0.8652  0.1235 -0.4311
10271TIP3    H252229   4.108   0.631   3.247  0.4134  0.0325 -0.1193
10272TIP3   OH252230   3.712   2.705   0.956  0.4788 -0.5933  0.1218
10272TIP3    H152231   3.766   2.645   1.006  0.6573 -1.0233 -0.5744
10272TIP3    H252232   3.735   2.688   0.865 -0.8454 -0.8075 -0.1985
10273TIP3   OH252233   4.821   2.912   2.365 -0.6339  0.2125 -0.1052
10273TIP3    H152234   4.842   2.998   2.401 -0.8074 -0.1345  0.8638
10273TIP3    H252235   4.747   2.881   2.417  1.1101 -1.6744  1.4563
10274TIP3   OH252236   6.195   1.709  15.146  0.2668 -0.4164  0.4592
10274TIP3    H152237   6.200   1.786  15.088  1.6390  0.1548  1.2785
10274TIP3    H252238   6.275   1.660  15.127 -0.1381 -1.1499  0.6230
10275TIP3   OH252239   4.855   1.464   6.281 -0.1943  0.0990  0.4244
10275TIP3    H152240   4.937   1.424   6.310 -0.7774 -1.7090 -0.2797
10275TIP3    H252241   4.814   1.496   6.362  0.2293 -0.9281  1.0747
10276TIP3   OH252242   2.340   2.351  14.858 -0.6475 -0.5209  0.0948
10276TIP3    H152243   2.254   2.377  14.826 -1.8297 -0.2822  3.1245
10276TIP3    H252244   2.322   2.279  14.919  1.4843 -1.4066 -0.2109
10277TIP3   OH252245   0.212   0.828  15.794  0.9510  0.5787 -0.0289
10277TIP3    H152246   0.294   0.855  15.836  1.7589 -4.3732  2.3980
10277TIP3    H252247   0.159   0.793  15.866 -1.2244 -0.7845 -2.1426
10278TIP3   OH252248   0.701   0.401   2.731  1.0213  0.1309  0.3880
10278TIP3    H152249   0.704   0.366   2.820  2.3047  1.5289  0.9249
10278TIP3    H252250   0.690   0.495   2.742 -1.4507  0.0971 -1.0042
10279TIP3   OH252251   6.561   3.151   3.599  0.2514 -0.5926 -0.0392
10279TIP3    H152252   6.579   3.236   3.558 -0.3172 -0.3713  0.1578
10279TIP3    H252253   6.632   3.139   3.661  1.5387 -1.2701 -1.5933
10280TIP3   OH252254   4.669   5.057  14.084 -0.1336  0.0368 -0.0522
10280TIP3    H152255   4.603   5.125  14.072 -1.2315 -0.9358  0.2547
10280TIP3    H252256   4.642   5.011  14.163  1.0405 -0.2549  0.1955
10281TIP3   OH252257   4.654   4.752  12.721  0.7246 -0.1274  0.1555
10281TIP3    H152258   4.609   4.714  12.645  1.4716 -0.8760  0.0778
10281TIP3    H252259   4.602   4.830  12.743 -0.1087 -0.4908 -0.4631
10282TIP3   OH252260   5.457   6.618  13.701  0.2499 -0.0134  0.2059
10282TIP3    H152261   5.489   6.640  13.788 -1.7703  2.5880  0.4145
10282TIP3    H252262   5.366   6.590  13.715 -1.0341  3.0389 -1.1765
10283TIP3   OH252263   2.774   1.581   0.330  0.9197 -0.0336 -0.0773
10283TIP3    H152264   2.786   1.633   0.409  1.2018  1.8567 -1.3038
10283TIP3    H252265   2.693   1.614   0.291 -0.2434 -2.2249  0.3154
10284TIP3   OH252266   3.796   0.690  15.091 -0.3723 -0.2745  0.2758
10284TIP3    H152267   3.703   0.700  15.111 -0.3924  1.4599 -0.5434
10284TIP3    H252268   3.839   0.697  15.176 -0.8600  1.0071  0.4336
10285TIP3   OH252269   6.303   4.361   0.341  0.1320  0.0493  0.3139
10285TIP3    H152270   6.252   4.355   0.421 -0.3280  2.1644  0.2355
10285TIP3    H252271   6.248   4.411   0.281  0.9413 -0.5095 -0.9415
10286TIP3   OH252272   4.511   4.399  13.256 -0.1810  0.7611 -0.5167
10286TIP3    H152273   4.429   4.437  13.226 -0.7192 -0.3495 -0.4946
10286TIP3    H252274   4.506   4.307  13.232 -0.5471 -0.1775  2.6489
10287TIP3   OH252275   0.341   3.218  12.265 -0.2966  0.0664  0.0566
10287TIP3    H152276   0.435   3.223  12.245 -0.3843  0.9084 -0.1539
10287TIP3    H252277   0.334   3.143  12.324  0.4690 -0.1773 -0.1384
10288TIP3   OH252278   4.723   0.929  16.650 -0.3646  0.3722  0.0191
10288TIP3    H152279   4.818   0.939  16.658 -0.2532  1.7892 -2.1080
10288TIP3    H252280   4.692   0.918  16.739  1.8871 -1.3856  0.7016
10289TIP3   OH252281   2.899   5.100  14.696  0.2038  0.0191 -0.5829
10289TIP3    H152282   2.865   5.010  14.693  0.5440 -0.1414  0.0150
10289TIP3    H252283   2.877   5.137  14.611  1.2429 -1.0704 -1.3675
10290TIP3   OH252284   3.757   1.239   1.432 -0.4739  0.1365 -0.0800
10290TIP3    H152285   3.731   1.197   1.514 -2.0514 -2.7358 -1.8786
10290TIP3    H252286   3.736   1.331   1.444 -1.7333 -0.3947  2.3328
10291TIP3   OH252287   2.868   3.972   3.595  0.2983  0.0311  0.0255
10291TIP3    H152288   2.837   3.979   3.686  0.9939  0.1886  0.2512
10291TIP3    H252289   2.874   3.878   3.579 -1.1937 -0.0318 -0.3358
10292TIP3   OH252290   0.336   1.032   2.211  0.3053  0.0285  0.1343
10292TIP3    H152291   0.331   0.938   2.193 -1.7943 -0.2946  1.9922
10292TIP3    H252292   0.256   1.068   2.172  1.6364  1.3277 -1.5987
10293TIP3   OH252293   6.251   3.452  11.300 -0.4292 -0.3263 -0.2201
10293TIP3    H152294   6.168   3.407  11.282 -2.0298  2.0423  0.7376
10293TIP3    H252295   6.240   3.539  11.260  1.0001  0.5513  1.1680
10294TIP3   OH252296   0.348   4.795  16.700  0.5081 -0.8424 -0.3647
10294TIP3    H152297   0.393   4.745  16.768 -0.3967  1.2704  1.9192
10294TIP3    H252298   0.342   4.884  16.734 -3.4029 -0.4682 -1.4396
10295TIP3   OH252299   5.653   2.167   6.736  0.1701 -0.0527 -0.3562
10295TIP3    H152300   5.644   2.072   6.741 -0.5588  0.0993  1.9427
10295TIP3    H252301   5.731   2.180   6.681  1.5518 -2.0526  0.9836
10296TIP3   OH252302   2.438   6.220  15.144 -0.1375 -0.5833 -0.2801
10296TIP3    H152303   2.510   6.241  15.084 -0.9503 -0.2432 -1.1731
10296TIP3    H252304   2.440   6.125  15.153  0.4255 -0.5742 -0.2882
10297TIP3   OH252305   4.731   5.383  17.065 -0.3128  0.4839  0.0362
10297TIP3    H152306   4.648   5.379  17.113 -0.9204 -1.0574 -1.0572
10297TIP3    H252307   4.798   5.371  17.131 -0.7331  3.9534  1.3128
10298TIP3   OH252308   2.598   3.224  16.068  0.1915 -0.3133  0.0075
10298TIP3    H152309   2.577   3.294  16.131  2.6388 -1.6217  2.5519
10298TIP3    H252310   2.552   3.147  16.101  0.6902 -0.7995 -0.4125
10299TIP3   OH252311   1.669   2.662   2.966  0.2405 -0.2365 -0.0262
10299TIP3    H152312   1.650   2.735   2.907 -0.9157 -0.4737  0.0269
10299TIP3    H252313   1.760   2.675   2.993 -0.8496  3.0974  2.6535
10300TIP3   OH252314   3.282   2.251   0.738  0.5716  0.7822  0.5039
10300TIP3    H152315   3.364   2.291   0.707 -0.7087  2.0520 -1.5035
10300TIP3    H252316   3.223   2.326   0.752 -0.2681 -0.1085  1.8824
10301TIP3   OH252317   5.404   5.483  15.558  0.1370 -0.1644 -0.1708
10301TIP3    H152318   5.382   5.458  15.648  0.3895  1.6565  0.4449
10301TIP3    H252319   5.346   5.556  15.539  1.3427  0.6599 -0.7962
10302TIP3   OH252320   2.621   6.003  12.948 -0.3076  0.2693  0.3762
10302TIP3    H152321   2.602   5.915  12.980 -1.5653  0.5717  0.5306
10302TIP3    H252322   2.554   6.058  12.988  0.4959  1.3130  0.3228
10303TIP3   OH252323   2.685   3.927  16.855 -0.0280  0.2433  0.4975
10303TIP3    H152324   2.602   3.972  16.839  0.0195  0.3921  0.6622
10303TIP3    H252325   2.690   3.919  16.950  1.4896  2.8362  0.7233
10304TIP3   OH252326   2.388   2.164  16.834 -0.5639  0.0264 -0.2373
10304TIP3    H152327   2.468   2.216  16.828 -0.1540 -0.7163 -1.5405
10304TIP3    H252328   2.409   2.081  16.792 -1.3862 -1.0130  1.2726
10305TIP3   OH252329   6.064   4.227   3.968 -0.1515 -0.5397  0.6907
10305TIP3    H152330   6.106   4.150   4.005 -0.9776 -1.1832  0.3320
10305TIP3    H252331   6.066   4.213   3.874  0.4175  0.2724  0.5727
10306TIP3   OH252332   2.690   4.789  14.294 -0.0366 -0.5721 -0.2847
10306TIP3    H152333   2.742   4.856  14.250  1.1478 -1.0129  0.4114
10306TIP3    H252334   2.658   4.733  14.224  2.0537 -1.4252 -0.6019
10307TIP3   OH252335   0.140   5.034  17.072 -0.0826  0.2121 -0.2752
10307TIP3    H152336   0.130   4.948  17.113  0.3608 -0.4833 -1.5824
10307TIP3    H252337   0.051   5.069  17.068 -0.1351  0.3625  1.3520
10308TIP3   OH252338   0.554   3.481  11.678  0.7939  0.6385 -0.1260
10308TIP3    H152339   0.614   3.543  11.636  0.4659  2.3153  1.7285
10308TIP3    H252340   0.494   3.455  11.609  1.1588  2.1504 -1.0407
10309TIP3   OH252341   1.924   1.923  12.006  0.0583  0.2774  0.1997
10309TIP3    H152342   1.978   1.965  11.939 -1.9678 -1.0619 -2.4586
10309TIP3    H252343   1.968   1.841  12.024  1.5208  1.3675  1.9016
10310TIP3   OH252344   2.642   6.508   2.599  0.6147 -0.2242  0.2892
10310TIP3    H152345   2.615   6.578   2.541 -1.7849  0.0680  1.6317
10310TIP3    H252346   2.702   6.550   2.661 -0.8114  0.7163  1.0949
10311TIP3   OH252347   4.880   0.546  16.675 -0.2809 -0.1131 -0.0636
10311TIP3    H152348   4.809   0.537  16.612 -0.8743  0.4714  0.5039
10311TIP3    H252349   4.837   0.574  16.756  0.5966  0.3127  0.2713
10312TIP3   OH252350   2.756   5.387   4.724 -0.1525 -0.3136  0.2760
10312TIP3    H152351   2.826   5.386   4.660  0.1489 -0.4668  0.6037
10312TIP3    H252352   2.677   5.365   4.674 -0.1916  1.1040 -0.3434
10313TIP3   OH252353   4.303   1.650  16.865 -0.8756  0.2308 -0.2134
10313TIP3    H152354   4.388   1.609  16.848 -0.9289  0.2119 -0.4351
10313TIP3    H252355   4.277   1.688  16.781 -1.7052 -0.9194 -0.5092
10314TIP3   OH252356   3.458   0.689  11.599  0.2818 -0.2265 -0.2562
10314TIP3    H152357   3.521   0.631  11.557  0.3741 -0.4964  0.2513
10314TIP3    H252358   3.507   0.734  11.667 -0.2279 -1.0063  0.6635
10315TIP3   OH252359   5.161   1.108  16.517  0.4654 -0.3410  0.1613
10315TIP3    H152360   5.101   1.120  16.443  0.0556 -0.4156  0.4780
10315TIP3    H252361   5.204   1.193  16.526  2.1177 -0.9324 -1.5220
10316TIP3   OH252362   2.363   6.428   2.588 -0.1925 -0.2555  0.2914
10316TIP3    H152363   2.455   6.452   2.575 -0.7058  0.4896 -2.7203
10316TIP3    H252364   2.359   6.335   2.566 -0.0476 -0.4723  1.1632
10317TIP3   OH252365   0.912   6.239  16.344 -0.1229 -0.1688 -0.1604
10317TIP3    H152366   0.997   6.208  16.375 -0.2642 -1.2071 -0.7793
10317TIP3    H252367   0.904   6.203  16.256 -1.5696 -0.8199  0.2057
10318TIP3   OH252368   5.400   6.359   5.493 -0.2900 -0.2046  0.1001
10318TIP3    H152369   5.444   6.301   5.430 -0.6083 -0.2527 -0.0789
10318TIP3    H252370   5.406   6.312   5.576 -0.5175 -0.4830 -0.0383
10319TIP3   OH252371   6.746   5.903  13.439  0.4702 -0.0203 -0.3280
10319TIP3    H152372   6.722   5.826  13.490 -0.2962  0.9879  0.9050
10319TIP3    H252373   6.841   5.905  13.442  0.4558  0.4451  1.8458
10320TIP3   OH252374   2.574   6.228   5.263  0.2033  0.3785  0.2051
10320TIP3    H152375   2.668   6.209   5.273 -0.0086  0.2354  2.3263
10320TIP3    H252376   2.571   6.316   5.225  1.1641 -0.4458 -1.9450
10321TIP3   OH252377   0.924   0.234   3.786 -0.6402 -0.5413  0.4689
10321TIP3    H152378   0.848   0.178   3.771 -0.4935  0.0356 -3.7763
10321TIP3    H252379   0.989   0.204   3.722 -0.3791  3.9307 -1.7565
10322TIP3   OH252380   1.169   1.429  11.457  0.1009 -0.2225 -0.2625
10322TIP3    H152381   1.142   1.453  11.368  1.4935 -0.3816 -0.7455
10322TIP3    H252382   1.260   1.400  11.448 -0.1037 -1.3915  1.0276
10323TIP3   OH252383   3.606   2.827   5.131 -0.2067  0.5553  0.0073
10323TIP3    H152384   3.686   2.837   5.080  0.1414 -0.3884  0.3495
10323TIP3    H252385   3.540   2.874   5.081  0.7674  2.2916  0.2634
10324TIP3   OH252386   4.634   2.798   2.539 -0.2113 -0.7839 -0.3810
10324TIP3    H152387   4.606   2.727   2.481  1.1691 -0.9313 -0.9306
10324TIP3    H252388   4.561   2.811   2.599 -0.8532 -2.0518 -0.8425
10325TIP3   OH252389   5.894   5.546  17.003  0.0587 -0.5920  0.6063
10325TIP3    H152390   5.826   5.506  17.057 -1.8317 -0.7148 -1.6933
10325TIP3    H252391   5.941   5.472  16.964  0.4499 -0.5109  0.9132
10326TIP3   OH252392   6.608   1.136   4.796  0.3554 -0.1500  0.2281
10326TIP3    H152393   6.626   1.150   4.704  0.6498  2.6710  0.6134
10326TIP3    H252394   6.688   1.097   4.831 -0.2779 -2.6529 -0.8873
10327TIP3   OH252395   0.691   5.541   2.858  0.5007  0.2161  0.0983
10327TIP3    H152396   0.753   5.474   2.830  1.2698  1.1371 -0.4399
10327TIP3    H252397   0.676   5.595   2.780 -3.2280 -1.6067 -0.6942
10328TIP3   OH252398   3.528   2.723   1.216  0.6724  0.3262  0.2808
10328TIP3    H152399   3.569   2.722   1.129  1.8901 -1.3161  0.8373
10328TIP3    H252400   3.597   2.695   1.276 -0.7893 -0.8529  1.4853
10329TIP3   OH252401   3.600   2.026   0.249  0.4091  0.3326  0.0272
10329TIP3    H152402   3.625   1.933   0.244 -0.7828  0.0520 -2.9803
10329TIP3    H252403   3.504   2.025   0.239 -0.1314  1.7753  3.6185
10330TIP3   OH252404   3.306   0.137  11.305  0.2738  0.7158 -0.4672
10330TIP3    H152405   3.331   0.190  11.381  0.2844  1.6593 -1.1082
10330TIP3    H252406   3.341   0.186  11.230 -2.4979  1.5140 -1.3412
10331TIP3   OH252407   1.819   1.123  11.622 -0.5195  0.0162  0.6399
10331TIP3    H152408   1.878   1.048  11.609 -0.8969 -0.1092 -0.4408
10331TIP3    H252409   1.842   1.156  11.709  0.5597 -0.5501  0.5944
10332TIP3   OH252410   5.226   2.243  14.548  0.0405  0.3364  0.0982
10332TIP3    H152411   5.260   2.186  14.480  0.1468  1.5642 -0.9107
10332TIP3    H252412   5.169   2.187  14.600 -0.7935 -0.4129 -1.5619
10333TIP3   OH252413   4.388   6.043  11.553 -0.2205  0.1625 -0.7505
10333TIP3    H152414   4.333   6.122  11.549 -0.8193 -0.1698  0.3898
10333TIP3    H252415   4.342   5.980  11.498 -0.2623  0.3003 -0.8756
10334TIP3   OH252416   2.589   4.718   1.731 -0.0318 -0.3487  0.2355
10334TIP3    H152417   2.550   4.643   1.777 -0.8480  0.0214  0.1643
10334TIP3    H252418   2.570   4.793   1.788  0.3634 -0.1174  0.0691
10335TIP3   OH252419   3.110   2.287   5.061  0.6298  0.0057 -0.0516
10335TIP3    H152420   3.144   2.330   4.983 -0.4722 -1.3032 -1.3182
10335TIP3    H252421   3.021   2.323   5.071  0.6593 -0.0460  0.4317
10336TIP3   OH252422   6.393   1.153  15.645 -0.7108 -0.1762 -0.3572
10336TIP3    H152423   6.437   1.139  15.561  0.6580 -0.6298  0.4067
10336TIP3    H252424   6.451   1.113  15.709  0.4623  3.7893  1.3125
10337TIP3   OH252425   4.938   4.913   6.139  0.4227  0.0892  0.2827
10337TIP3    H152426   5.029   4.887   6.127 -0.4250 -3.7617  0.7157
10337TIP3    H252427   4.893   4.876   6.062 -1.1323 -0.8679  1.5716
10338TIP3   OH252428   2.109   2.616  12.143  0.1541 -0.3537 -0.0756
10338TIP3    H152429   2.108   2.553  12.215  2.4234  0.1748  0.5094
10338TIP3    H252430   2.104   2.563  12.064 -2.9054 -0.9280  0.3608
10339TIP3   OH252431   6.546   0.692  16.138  0.2409 -0.0857  0.1405
10339TIP3    H152432   6.471   0.747  16.161 -0.7604 -1.1159 -0.5640
10339TIP3    H252433   6.512   0.603  16.140  1.4321 -0.5741 -0.2827
10340TIP3   OH252434   2.949   1.624  16.714 -0.1884 -0.1019 -0.0530
10340TIP3    H152435   2.956   1.543  16.765  1.0017  0.2654  0.3906
10340TIP3    H252436   3.024   1.677  16.742 -0.9473  1.1674 -0.3360
10341TIP3   OH252437   5.186   1.621   3.712  0.4473  0.0457  0.1961
10341TIP3    H152438   5.169   1.653   3.624 -1.8203 -1.8902 -0.1604
10341TIP3    H252439   5.100   1.595   3.746  1.3968 -0.3253  2.5592
10342TIP3   OH252440   0.457   1.967   2.929 -0.2937  0.1825 -0.2983
10342TIP3    H152441   0.540   1.967   2.977 -0.1423 -1.1599 -0.5154
10342TIP3    H252442   0.405   1.898   2.970 -0.1863 -0.9648 -1.9690
10343TIP3   OH252443   3.460   5.925  16.269  0.5764  0.0695 -0.1871
10343TIP3    H152444   3.505   5.845  16.296  1.0104  0.3368 -0.1258
10343TIP3    H252445   3.367   5.902  16.273  0.6872 -0.3286  0.1537
10344TIP3   OH252446   1.282   3.042   1.077  0.0981 -0.3932  0.2279
10344TIP3    H152447   1.211   2.993   1.119  0.9899 -1.0467  1.0032
10344TIP3    H252448   1.278   3.015   0.985 -2.1623  1.3870 -0.3039
10345TIP3   OH252449   6.725   2.658   4.577  0.4597  0.1682 -0.5357
10345TIP3    H152450   6.654   2.716   4.605  0.6896 -0.2884  1.1465
10345TIP3    H252451   6.686   2.600   4.512 -0.5203  0.3868 -0.1481
10346TIP3   OH252452   0.146   6.475  12.093  0.1747 -0.3299  0.2144
10346TIP3    H152453   0.124   6.449  12.003  0.4724 -0.4947  0.1886
10346TIP3    H252454   0.172   6.393  12.136  0.9742 -0.1052  0.1763
10347TIP3   OH252455   1.474   2.482   5.231 -0.2777  0.4963 -0.4721
10347TIP3    H152456   1.436   2.502   5.146  0.1758  2.6194 -0.2544
10347TIP3    H252457   1.512   2.565   5.260  2.0039 -0.8206  0.5853
10348TIP3   OH252458   6.449   3.900  15.040 -0.3274  0.0279  0.0400
10348TIP3    H152459   6.449   3.840  14.966 -1.0555 -1.5984  1.2945
10348TIP3    H252460   6.364   3.887  15.082  0.5737 -0.1127  1.9220
10349TIP3   OH252461   4.278   0.466  13.835 -0.3966 -0.3734  0.3138
10349TIP3    H152462   4.203   0.410  13.814  0.5039 -1.8798  0.9540
10349TIP3    H252463   4.335   0.460  13.759 -0.5119  0.0419  0.1956
10350TIP3   OH252464   4.898   4.143  15.397 -0.1290  0.2677 -0.1054
10350TIP3    H152465   4.891   4.234  15.369 -0.3323  0.4397  0.4848
10350TIP3    H252466   4.818   4.127  15.446 -0.8861 -0.7293 -1.5663
10351TIP3   OH252467   4.672   0.218  16.984  0.1074 -0.3225 -0.0501
10351TIP3    H152468   4.598   0.234  16.925  1.4387 -0.8566 -1.9491
10351TIP3    H252469   4.697   0.127  16.968  1.7454  0.1181 -0.1339
10352TIP3   OH252470   4.846   6.108  11.776  0.2288 -0.4160 -0.1804
10352TIP3    H152471   4.844   6.184  11.719 -1.6598 -0.4528 -0.1959
10352TIP3    H252472   4.805   6.137  11.857  2.4040 -0.5176  1.0399
10353TIP3   OH252473   1.195   0.912   2.353  0.4691  0.3600  0.0276
10353TIP3    H152474   1.146   0.938   2.275  1.4947 -1.2613 -1.2275
10353TIP3    H252475   1.136   0.854   2.401  0.3152  0.2915 -0.2469
10354TIP3   OH252476   5.388   2.476  11.815 -0.0697 -0.6589  0.0306
10354TIP3    H152477   5.479   2.494  11.835 -0.0170 -0.2976 -0.5178
10354TIP3    H252478   5.368   2.532  11.739 -0.8940 -0.3261  0.4768
10355TIP3   OH252479   1.984   2.439   4.619 -0.0376  0.3166  0.0093
10355TIP3    H152480   1.989   2.455   4.713  0.6051  0.7381 -0.0888
10355TIP3    H252481   2.074   2.453   4.588  0.5592 -3.1089 -0.1522
10356TIP3   OH252482   5.123   2.344  12.197 -0.2081  0.0480  0.7242
10356TIP3    H152483   5.190   2.292  12.242  1.1792 -0.4961 -1.8249
10356TIP3    H252484   5.134   2.324  12.104 -2.9015  1.1721  0.0561
10357TIP3   OH252485   2.033   0.273   3.969  1.0211 -0.0427 -0.1517
10357TIP3    H152486   1.997   0.198   3.921 -0.3970  0.2383  0.4257
10357TIP3    H252487   2.042   0.241   4.059  0.5427  0.4417  0.0683
10358TIP3   OH252488   5.207   2.541   1.391 -0.0727 -0.2961 -0.1422
10358TIP3    H152489   5.222   2.466   1.333 -1.1830 -0.4850 -0.2072
10358TIP3    H252490   5.116   2.567   1.374 -0.3672 -0.2394  1.3621
10359TIP3   OH252491   0.058   2.905  11.749  0.5520 -0.2604  0.3212
10359TIP3    H152492   0.142   2.938  11.780  0.2400  1.7422 -0.8035
10359TIP3    H252493   0.067   2.900  11.654 -0.6478  0.2286  0.1569
10360TIP3   OH252494   0.552   4.040  14.625  0.0085  0.6463  0.0021
10360TIP3    H152495   0.572   4.133  14.618  1.0549  0.5323  1.1445
10360TIP3    H252496   0.572   4.005  14.539  0.8281  1.2702 -0.0720
10361TIP3   OH252497   1.960   1.186  11.875 -0.2925  0.3982 -0.4815
10361TIP3    H152498   2.026   1.141  11.928 -1.5338 -0.0688  0.7278
10361TIP3    H252499   2.001   1.269  11.851  2.0475 -1.2245 -2.7288
10362TIP3   OH252500   0.652   0.634   1.483  0.3950 -0.5301 -0.0637
10362TIP3    H152501   0.701   0.625   1.401 -0.4171 -0.4358 -0.5637
10362TIP3    H252502   0.619   0.724   1.482  1.0100 -0.2789  0.7320
10363TIP3   OH252503   5.441   1.085  12.377  0.1224 -0.0554 -0.5299
10363TIP3    H152504   5.470   1.018  12.315  1.8993 -1.5280  1.7178
10363TIP3    H252505   5.353   1.058  12.402 -0.0347 -0.2837 -1.3077
10364TIP3   OH252506   4.508   0.638  17.247 -0.5262  0.5128 -0.2965
10364TIP3    H152507   4.578   0.584  17.285  0.0096  0.5365 -1.2047
10364TIP3    H252508   4.463   0.676  17.322  0.0845  0.0442  0.3202
10365TIP3   OH252509   1.002   2.491  15.782 -0.5669 -0.3623  0.1528
10365TIP3    H152510   1.036   2.447  15.859 -1.7348 -0.0582  0.8602
10365TIP3    H252511   1.076   2.542  15.749 -0.3064  0.2262  1.5965
10366TIP3   OH252512   1.369   1.829  15.060 -0.0906 -0.2802 -0.2425
10366TIP3    H152513   1.298   1.774  15.093  0.1966 -0.7274 -0.3541
10366TIP3    H252514   1.325   1.900  15.015 -0.4950  0.2190  0.8879
10367TIP3   OH252515   5.502   5.588   2.622  0.5414  0.2207 -0.3057
10367TIP3    H152516   5.541   5.511   2.580  1.0389  1.1799 -1.7074
10367TIP3    H252517   5.541   5.591   2.709  1.1865 -0.6097 -0.5542
10368TIP3   OH252518   1.583   4.890  11.932  0.3274 -0.5455 -0.1313
10368TIP3    H152519   1.530   4.814  11.954  2.1297 -1.5019  1.0810
10368TIP3    H252520   1.607   4.877  11.840 -1.5871 -0.0170 -0.7464
10369TIP3   OH252521   1.762   3.073  12.388 -0.0098  0.3843 -0.2584
10369TIP3    H152522   1.717   3.007  12.336 -0.6593  1.2541 -0.8089
10369TIP3    H252523   1.821   3.116  12.327  1.1315 -0.3135  0.3149
10370TIP3   OH252524   3.114   6.177   1.813 -0.1018  0.0825  0.6213
10370TIP3    H152525   3.043   6.149   1.755  0.2223 -1.7632  1.0367
10370TIP3    H252526   3.184   6.203   1.753 -0.7596  0.9685  0.2117
10371TIP3   OH252527   0.221   4.518  12.140 -0.1398  0.1592  0.1468
10371TIP3    H152528   0.271   4.469  12.074  0.9972 -1.1856  1.9065
10371TIP3    H252529   0.165   4.452  12.181 -0.5187  0.8804  0.8052
10372TIP3   OH252530   2.373   3.635   0.493  0.0396  0.6828 -0.2168
10372TIP3    H152531   2.280   3.616   0.500  0.2366 -1.1849 -1.7685
10372TIP3    H252532   2.396   3.680   0.575 -1.6944 -1.0186  1.2678
10373TIP3   OH252533   1.073   3.299  13.150  0.1568  0.2238 -0.2830
10373TIP3    H152534   1.039   3.211  13.134  0.6807 -0.0409  0.0476
10373TIP3    H252535   1.161   3.285  13.184  0.6874  0.9220 -1.3410
10374TIP3   OH252536   0.433   3.588  17.199  0.1422  0.1673  0.0041
10374TIP3    H152537   0.381   3.605  17.278 -0.2349  0.7653 -0.3686
10374TIP3    H252538   0.373   3.606  17.126  0.8357  0.7906 -0.4317
10375TIP3   OH252539   5.361   1.837   5.404  0.3443  0.6910  0.2738
10375TIP3    H152540   5.295   1.889   5.358  0.3795 -0.9651 -1.8143
10375TIP3    H252541   5.437   1.838   5.346  0.3808 -1.5313  0.1913
10376TIP3   OH252542   4.987   3.662  15.424 -0.3648 -0.0273 -0.2703
10376TIP3    H152543   5.037   3.739  15.398  0.9303 -0.2089  1.5472
10376TIP3    H252544   5.010   3.596  15.359 -0.1076  0.5965 -0.8267
10377TIP3   OH252545   2.932   3.114  14.084  0.4109 -0.5657  0.4353
10377TIP3    H152546   3.006   3.059  14.113  0.4674 -0.5036  0.4083
10377TIP3    H252547   2.895   3.149  14.165  0.2629 -0.7881  0.4648
10378TIP3   OH252548   3.753   5.789  12.173 -0.1112  0.3069 -0.0052
10378TIP3    H152549   3.667   5.787  12.130 -0.0482  0.1781 -0.1244
10378TIP3    H252550   3.813   5.824  12.107  0.4236 -2.0049 -0.8090
10379TIP3   OH252551   1.152   3.407   1.879  0.0569  0.5527 -0.2874
10379TIP3    H152552   1.157   3.312   1.881 -1.2492  0.4785  1.0455
10379TIP3    H252553   1.182   3.434   1.967 -2.9256  1.1229  0.6557
10380TIP3   OH252554   0.876   5.960   4.038  0.2448 -0.2519  0.5754
10380TIP3    H152555   0.849   6.024   3.972  0.0281 -2.2818 -1.4489
10380TIP3    H252556   0.962   5.991   4.067 -0.9302  2.3121  1.6420
10381TIP3   OH252557   3.302   6.619  17.058  0.2213 -0.3430 -0.4058
10381TIP3    H152558   3.242   6.545  17.065  0.0183 -0.1411  0.0381
10381TIP3    H252559   3.275   6.666  16.979 -0.6528  0.1386  0.1657
10382TIP3   OH252560   5.044   1.498   0.887  0.2665 -0.4973  0.0356
10382TIP3    H152561   5.033   1.576   0.941  0.9657  0.0711 -0.6041
10382TIP3    H252562   5.128   1.511   0.843  0.8044 -2.0116  0.5457
10383TIP3   OH252563   4.338   0.184  12.672 -0.1297  0.0321 -0.1135
10383TIP3    H152564   4.426   0.220  12.663 -0.6406  1.2519 -0.4011
10383TIP3    H252565   4.284   0.237  12.613 -0.8179 -1.6176 -1.0249
10384TIP3   OH252566   3.953   4.981   5.019  0.2093  0.3977 -0.2402
10384TIP3    H152567   3.915   4.986   4.931  1.9502 -1.2397 -1.1694
10384TIP3    H252568   3.904   4.912   5.063  1.0973 -0.7340 -0.9496
10385TIP3   OH252569   6.397   0.336   4.490 -0.3468 -0.1154 -0.0348
10385TIP3    H152570   6.369   0.304   4.576  0.2167  0.7976  0.5030
10385TIP3    H252571   6.370   0.427   4.488  1.2796  0.3976 -0.0603
10386TIP3   OH252572   0.021   3.465  13.766  0.2441  0.4271  0.2579
10386TIP3    H152573  -0.029   3.393  13.803 -0.7005  0.1688 -1.4072
10386TIP3    H252574   0.062   3.427  13.688 -1.3163  1.9429 -1.3994
10387TIP3   OH252575   1.969   3.488  15.925  0.2854  0.1359 -0.2555
10387TIP3    H152576   1.905   3.433  15.970 -1.9379  1.5127 -1.5302
10387TIP3    H252577   1.973   3.452  15.836  0.0597  1.0035 -0.6280
10388TIP3   OH252578   3.602   6.436  11.761 -0.0180  0.1068  0.2085
10388TIP3    H152579   3.666   6.493  11.719 -0.8415  0.7628 -0.1978
10388TIP3    H252580   3.637   6.420  11.848  0.3808  0.9978  0.2232
10389TIP3   OH252581   1.470   3.418  17.423  0.0444  0.8827  0.1071
10389TIP3    H152582   1.534   3.377  17.365 -2.8454 -1.3088 -1.7980
10389TIP3    H252583   1.487   3.378  17.509 -0.2177 -1.5400 -0.8864
10390TIP3   OH252584   3.765   1.461  12.919  0.2297  0.3984  0.5880
10390TIP3    H152585   3.854   1.438  12.889 -0.2946  0.6061 -1.2814
10390TIP3    H252586   3.709   1.393  12.880 -0.5151  0.7042  1.1231
10391TIP3   OH252587   6.362   2.134   4.551  0.7718 -0.1975 -0.9277
10391TIP3    H152588   6.329   2.076   4.619  2.1111  0.3713  0.2558
10391TIP3    H252589   6.316   2.106   4.471 -2.1564  0.2530  0.4627
10392TIP3   OH252590   3.979   3.026  12.937  0.1049 -0.2198  0.2612
10392TIP3    H152591   3.912   3.093  12.941 -1.0757 -1.3206 -0.3327
10392TIP3    H252592   3.974   2.980  13.021 -0.4439 -0.7963 -0.0750
10393TIP3   OH252593   0.672   1.889  15.836  0.1192 -0.3502 -0.5355
10393TIP3    H152594   0.743   1.940  15.796  0.6382 -0.6330  0.0195
10393TIP3    H252595   0.715   1.837  15.903 -0.8792  0.9252  1.1832
10394TIP3   OH252596   1.100   4.587   0.421  0.1789  0.4679  0.4157
10394TIP3    H152597   1.154   4.582   0.342 -2.4287  2.1047 -1.6350
10394TIP3    H252598   1.019   4.543   0.397 -0.7611  1.1862  2.1316
10395TIP3   OH252599   1.105   5.453   4.047 -0.0710  0.4290  0.1048
10395TIP3    H152600   1.065   5.531   4.008 -0.5626 -0.3763 -1.0423
10395TIP3    H252601   1.031   5.398   4.072  0.2772  0.2070  0.6640
10396TIP3   OH252602   5.703   6.141   6.106 -0.4511  0.1210 -0.0141
10396TIP3    H152603   5.683   6.234   6.096  0.6175  0.3702  0.1129
10396TIP3    H252604   5.673   6.119   6.194 -1.1856  0.2080 -0.2336
10397TIP3   OH252605   2.649   1.454   2.005  0.2405 -0.1074  0.3111
10397TIP3    H152606   2.575   1.427   1.950  0.8777  1.8149 -1.6087
10397TIP3    H252607   2.650   1.549   1.998  3.1628 -0.0914 -0.0875
10398TIP3   OH252608   5.068   6.561  11.875 -0.1741  0.1394  0.2942
10398TIP3    H152609   5.057   6.515  11.792  0.6433  0.3094  0.0829
10398TIP3    H252610   5.088   6.651  11.851 -0.4842  0.3136  0.6841
10399TIP3   OH252611   2.365   3.912   4.856 -0.4077 -0.7111  0.2178
10399TIP3    H152612   2.277   3.950   4.863  0.9478  2.6653  0.7991
10399TIP3    H252613   2.386   3.883   4.945 -0.3098  0.1523  0.4914
10400TIP3   OH252614   5.055   6.166  16.245 -0.1328 -0.1291  0.1996
10400TIP3    H152615   5.003   6.246  16.252 -3.0358 -1.7549 -0.7299
10400TIP3    H252616   5.142   6.195  16.217 -0.9087  2.7042  0.4544
10401TIP3   OH252617   3.383   0.028   5.639  0.4659  0.1166 -0.1211
10401TIP3    H152618   3.433   0.070   5.569  0.6613 -1.2444 -0.8428
10401TIP3    H252619   3.446   0.021   5.711  0.6064  0.5122 -0.1998
10402TIP3   OH252620   0.620   1.025  13.254 -0.2048 -0.8011 -0.4273
10402TIP3    H152621   0.561   1.090  13.216  0.9905  0.2378 -0.5749
10402TIP3    H252622   0.562   0.954  13.283 -1.5013  0.1403 -0.6171
10403TIP3   OH252623   4.420   5.689   1.406  0.2832 -0.0846 -0.0413
10403TIP3    H152624   4.460   5.605   1.383 -0.3298 -1.2774  2.8562
10403TIP3    H252625   4.330   5.683   1.374  0.9689  0.6324 -2.2431
10404TIP3   OH252626   2.245   1.695   6.165  0.0969 -0.3667  0.2351
10404TIP3    H152627   2.330   1.676   6.126 -0.7574 -1.6467 -1.0821
10404TIP3    H252628   2.241   1.639   6.243 -0.1442 -1.4987 -0.5656
10405TIP3   OH252629   3.916   5.902  11.981 -0.1152  0.9160  0.4148
10405TIP3    H152630   3.856   5.883  11.908  0.7591  0.6025 -0.2414
10405TIP3    H252631   3.991   5.845  11.965  0.8612  2.1203  0.5744
10406TIP3   OH252632   4.423   2.055   5.154  0.2974  0.4165  0.3075
10406TIP3    H152633   4.356   2.004   5.109  1.0434  1.2189 -1.8166
10406TIP3    H252634   4.490   1.991   5.179 -0.2191 -0.0692  0.4523
10407TIP3   OH252635   4.612   5.268  15.396 -0.2116 -0.0772  0.6085
10407TIP3    H152636   4.664   5.270  15.476 -0.4619 -0.7180  0.7941
10407TIP3    H252637   4.540   5.207  15.415 -2.0336  2.0390  0.9650
10408TIP3   OH252638   5.829   4.261  12.865 -0.2412 -0.4164  0.0668
10408TIP3    H152639   5.737   4.252  12.889 -0.3133 -0.7521 -0.3116
10408TIP3    H252640   5.829   4.253  12.769  0.0742  0.5168 -0.0269
10409TIP3   OH252641   3.592   1.984  14.864 -0.6353 -0.0056  0.4839
10409TIP3    H152642   3.600   2.073  14.899  0.9074 -0.2269  0.7945
10409TIP3    H252643   3.538   1.938  14.928  0.2640  0.2004  1.4316
10410TIP3   OH252644   3.007   3.756   7.002 -0.2711 -0.0074 -0.0397
10410TIP3    H152645   2.976   3.674   7.039  0.4394 -0.2851 -0.0338
10410TIP3    H252646   2.928   3.809   6.990 -0.6917 -0.5451  0.3084
10411TIP3   OH252647   2.247   6.684  15.962 -0.2238  0.3872  0.4771
10411TIP3    H152648   2.230   6.603  16.009 -0.7783  0.7449  0.9111
10411TIP3    H252649   2.296   6.738  16.023 -1.2631  0.9947  0.8082
10412TIP3   OH252650   0.858   4.437  11.974  0.2695  0.1963  0.0726
10412TIP3    H152651   0.930   4.490  11.940  0.5688 -0.1245  0.1952
10412TIP3    H252652   0.833   4.381  11.901 -1.1893  1.6540 -0.6194
10413TIP3   OH252653   0.034   6.635  12.789 -0.4248  0.6876  0.1135
10413TIP3    H152654  -0.020   6.562  12.760  1.1047 -1.2528  1.8481
10413TIP3    H252655   0.065   6.609  12.876  1.1619  2.8768  0.2863
10414TIP3   OH252656   0.969   6.154  16.087  0.0460 -0.2447  0.1207
10414TIP3    H152657   0.968   6.093  16.013 -0.7679 -0.0762 -0.0145
10414TIP3    H252658   0.977   6.240  16.047  2.6441 -0.3061  0.3680
10415TIP3   OH252659   3.496   6.644   1.439  0.7265  0.0212  0.1869
10415TIP3    H152660   3.492   6.713   1.506  0.4888 -1.2172  1.4852
10415TIP3    H252661   3.424   6.585   1.461 -1.0889  0.9266 -2.7609
10416TIP3   OH252662   6.599   0.237   3.727 -0.0932 -0.7434  0.1326
10416TIP3    H152663   6.646   0.235   3.643 -0.7039  3.5489 -0.5854
10416TIP3    H252664   6.506   0.242   3.702 -0.2324  1.6798  0.8722
10417TIP3   OH252665   3.050   0.058   0.475 -0.1131  0.1534  0.1614
10417TIP3    H152666   2.992  -0.004   0.519 -0.7717  1.3624  1.0662
10417TIP3    H252667   3.138   0.026   0.494 -0.4483 -0.8851  0.0143
10418TIP3   OH252668   2.262   4.794   3.753  0.0507  0.0376 -0.2285
10418TIP3    H152669   2.257   4.874   3.805  1.0625 -0.4928  0.7327
10418TIP3    H252670   2.356   4.778   3.742 -0.0807 -1.5878  0.5671
10419TIP3   OH252671   4.418   2.660   6.329  0.2042 -0.3597  0.2632
10419TIP3    H152672   4.473   2.584   6.350 -0.5208 -0.3542  2.3505
10419TIP3    H252673   4.469   2.735   6.358  0.5857 -0.0692 -1.0892
10420TIP3   OH252674   4.711   1.064   1.438  0.8176  0.3640  0.0094
10420TIP3    H152675   4.754   1.109   1.364  1.0682 -0.3121 -0.2610
10420TIP3    H252676   4.634   1.023   1.399  0.0432  1.3467  0.4449
10421TIP3   OH252677   5.513   1.468  14.617 -0.5416  0.0950  0.3036
10421TIP3    H152678   5.449   1.402  14.645  0.0580  0.0188  1.5186
10421TIP3    H252679   5.517   1.530  14.689 -0.8527  1.3093 -0.6897
10422TIP3   OH252680   3.769   1.246  13.861  0.0454  0.5305 -0.9191
10422TIP3    H152681   3.843   1.200  13.900 -0.2254 -0.1305 -1.1671
10422TIP3    H252682   3.759   1.325  13.914  0.2518  0.0929 -0.2124
10423TIP3   OH252683   5.860   1.693  12.392 -0.2674 -0.4014 -0.2150
10423TIP3    H152684   5.774   1.662  12.362 -0.6346  0.3585  0.0302
10423TIP3    H252685   5.902   1.614  12.427 -0.3824 -1.0177 -1.4052
10424TIP3   OH252686   0.987   3.189  13.702  0.0199  0.1995  0.3276
10424TIP3    H152687   0.965   3.098  13.681  1.8111 -0.2222  0.1767
10424TIP3    H252688   1.008   3.228  13.617  3.8090 -0.5561  0.7665
10425TIP3   OH252689   6.488   2.489   0.352  0.0791  0.0826 -0.1736
10425TIP3    H152690   6.525   2.577   0.351  2.0182 -0.5176 -4.3661
10425TIP3    H252691   6.395   2.501   0.335  0.1661  1.3298  0.1729
10426TIP3   OH252692   5.054   4.766   2.617 -0.5399  0.1322 -0.2044
10426TIP3    H152693   5.080   4.845   2.569  0.2662 -0.1895 -0.3055
10426TIP3    H252694   5.021   4.707   2.549  0.8082 -0.4084 -0.4109
10427TIP3   OH252695   4.137   4.661   5.042  0.4621 -0.2454 -0.7535
10427TIP3    H152696   4.160   4.746   5.007 -0.2350 -0.1038 -0.8970
10427TIP3    H252697   4.169   4.662   5.132 -0.9100  0.7938 -0.2300
10428TIP3   OH252698   4.554   3.721   1.591 -0.2115 -0.2604 -0.5296
10428TIP3    H152699   4.594   3.635   1.577 -0.4856 -0.4633 -0.0707
10428TIP3    H252700   4.465   3.712   1.555 -0.7030 -0.5895  0.7286
10429TIP3   OH252701   2.668   2.430   4.564 -0.1481 -0.5424  0.3588
10429TIP3    H152702   2.579   2.454   4.590 -0.3855 -0.2914 -0.6417
10429TIP3    H252703   2.656   2.363   4.497  0.3544  0.4491 -0.7678
10430TIP3   OH252704   3.183   5.247  11.436 -0.3604 -0.2092 -0.3281
10430TIP3    H152705   3.235   5.327  11.444 -0.0939 -0.2877 -1.1963
10430TIP3    H252706   3.092   5.276  11.444 -0.2048 -0.1178  1.5840
10431TIP3   OH252707   0.474   1.144   1.973 -0.2737  0.2005 -0.0290
10431TIP3    H152708   0.424   1.101   2.043 -2.5497 -0.1904 -1.7739
10431TIP3    H252709   0.414   1.209   1.937  0.8035  0.3404 -1.6870
10432TIP3   OH252710   5.461   5.052  11.792  0.1162  0.1581 -0.2195
10432TIP3    H152711   5.441   4.962  11.816 -0.3458  0.8014  2.0339
10432TIP3    H252712   5.376   5.095  11.785  0.3106  0.3694 -1.6711
10433TIP3   OH252713   4.827   3.928   0.378 -0.4092  0.5327 -0.4221
10433TIP3    H152714   4.871   4.010   0.355 -0.8857  1.8562  2.9242
10433TIP3    H252715   4.735   3.943   0.358 -0.5528  0.9930  0.5447
10434TIP3   OH252716   5.968   2.445   3.253  0.4263  0.1857 -0.7946
10434TIP3    H152717   5.989   2.375   3.314 -0.9463 -0.1585 -0.6942
10434TIP3    H252718   5.995   2.525   3.299  0.2611 -0.1337 -0.1274
10435TIP3   OH252719   0.063   5.788   4.544  0.5737 -0.5769  0.0557
10435TIP3    H152720   0.077   5.862   4.485  1.3402 -0.6120  0.1838
10435TIP3    H252721   0.003   5.822   4.610 -1.0518 -0.8243 -1.2466
10436TIP3   OH252722   1.604   2.070   4.598  0.8370 -0.0591  0.7394
10436TIP3    H152723   1.692   2.047   4.569  1.0335  1.6981 -0.1755
10436TIP3    H252724   1.609   2.163   4.619 -0.7056 -0.0182  1.0643
10437TIP3   OH252725   4.932   4.197   0.035  0.5402  0.0385  0.2798
10437TIP3    H152726   5.013   4.161  -0.002  0.6030 -0.6460  1.0483
10437TIP3    H252727   4.875   4.120   0.045 -0.3250  0.5605 -0.5487
10438TIP3   OH252728   6.335   5.837  15.329 -0.3817 -0.5254 -0.0955
10438TIP3    H152729   6.358   5.909  15.270 -2.1656  2.3945  2.4171
10438TIP3    H252730   6.417   5.814  15.372 -0.0421  1.5528  0.5024
10439TIP3   OH252731   0.811   1.569   0.689 -0.0582 -0.0159  0.7868
10439TIP3    H152732   0.809   1.474   0.700  0.2580  0.1322  2.3586
10439TIP3    H252733   0.867   1.600   0.760  0.2467  1.3161 -0.0061
10440TIP3   OH252734   1.496   5.336   6.098  0.1150  0.5666 -0.3110
10440TIP3    H152735   1.572   5.286   6.070 -0.7896 -1.0339 -0.0626
10440TIP3    H252736   1.469   5.385   6.020  1.2354  0.9518 -0.4628
10441TIP3   OH252737   4.978   5.299  13.721  0.0242 -0.2761  0.1115
10441TIP3    H152738   5.012   5.344  13.798 -0.2545  0.3014 -0.1014
10441TIP3    H252739   4.892   5.266  13.748 -0.6689  1.0797 -0.3471
10442TIP3   OH252740   5.177   0.718  12.119  0.3616  0.6882 -0.1847
10442TIP3    H152741   5.130   0.635  12.116 -0.2080  0.9722 -3.4320
10442TIP3    H252742   5.110   0.782  12.143  0.2198  0.5057 -0.0904
10443TIP3   OH252743   6.412   1.624   1.163 -0.0690 -0.2146  0.4110
10443TIP3    H152744   6.391   1.542   1.208  0.4996  0.2423  1.5583
10443TIP3    H252745   6.479   1.664   1.217  2.0152 -0.4661 -1.8335
10444TIP3   OH252746   2.670   3.957  11.310  0.7259 -0.3585 -0.0347
10444TIP3    H152747   2.757   3.998  11.319 -0.4310  2.5047 -0.8474
10444TIP3    H252748   2.670   3.921  11.222  0.4810  1.3350 -0.7602
10445TIP3   OH252749   1.374   1.231   1.296 -0.2606 -0.7100  0.7343
10445TIP3    H152750   1.368   1.312   1.347  0.2581  0.1501 -0.5418
10445TIP3    H252751   1.395   1.164   1.362 -0.7780  0.1589  1.8221
10446TIP3   OH252752   0.921   3.921   1.597 -0.3101 -0.1772 -0.7007
10446TIP3    H152753   0.828   3.918   1.574 -1.6526  1.1431  3.6735
10446TIP3    H252754   0.932   4.003   1.644  2.7432 -0.9578  0.1648
10447TIP3   OH252755   5.324   6.614   5.513  0.2963  0.3357 -0.3173
10447TIP3    H152756   5.370   6.530   5.505 -0.1078  0.2606 -2.4689
10447TIP3    H252757   5.388   6.673   5.553  1.3315 -0.4560 -0.7695
10448TIP3   OH252758   4.781   2.724  15.116  0.1815 -0.0941  0.3470
10448TIP3    H152759   4.802   2.635  15.145  1.4274  0.8197  2.5194
10448TIP3    H252760   4.865   2.761  15.090  0.4763  1.6795  3.3516
10449TIP3   OH252761   2.518   0.721   5.118  0.4976  0.5225  0.4770
10449TIP3    H152762   2.474   0.750   5.198  1.7400  1.0020  1.0188
10449TIP3    H252763   2.468   0.760   5.047  0.3667  1.5074  1.0913
10450TIP3   OH252764   0.509   1.983  13.273 -0.4808  0.5796  0.1140
10450TIP3    H152765   0.561   1.926  13.216  0.2310  0.2432  1.0834
10450TIP3    H252766   0.507   2.067  13.226 -0.8344  0.0185 -0.9233
10451TIP3   OH252767   0.339   0.385  14.182  0.0105 -0.0767  0.0548
10451TIP3    H152768   0.422   0.336  14.189  0.0634  0.1038  0.7459
10451TIP3    H252769   0.364   0.476  14.197  0.2586  0.5300 -3.2884
10452TIP3   OH252770   3.814   1.054   5.646  0.1840  0.2987  0.1753
10452TIP3    H152771   3.719   1.046   5.647 -0.0795  2.5821 -0.7920
10452TIP3    H252772   3.846   0.967   5.670 -2.1303 -0.8610 -0.6849
10453TIP3   OH252773   6.001   0.723   2.418  0.0513  1.0949 -0.2686
10453TIP3    H152774   5.987   0.738   2.511  1.6928 -0.7158  0.3332
10453TIP3    H252775   5.994   0.810   2.379 -2.2308  1.6959  1.2614
10454TIP3   OH252776   1.750   1.545  15.836 -0.5897 -0.4646  0.6489
10454TIP3    H152777   1.764   1.610  15.768 -1.1521 -0.7588  0.2445
10454TIP3    H252778   1.795   1.467  15.805 -0.8483 -0.6003  0.6172
10455TIP3   OH252779   1.147   1.746  16.091 -0.1239  0.3659  0.0585
10455TIP3    H152780   1.119   1.655  16.081 -0.2981  0.2997  1.0343
10455TIP3    H252781   1.242   1.743  16.082 -0.2773  0.4061 -1.9911
10456TIP3   OH252782   6.582   5.870  13.730  0.1773 -0.3994  0.0057
10456TIP3    H152783   6.673   5.867  13.760  0.7114 -0.4487 -1.5279
10456TIP3    H252784   6.578   5.807  13.658 -0.5817  0.9190 -1.1711
10457TIP3   OH252785   4.445   0.278   0.100 -0.4625  0.2154 -0.0801
10457TIP3    H152786   4.433   0.277   0.005  2.5119 -1.4953 -0.5676
10457TIP3    H252787   4.540   0.283   0.112 -0.7548  0.5428  2.8418
10458TIP3   OH252788   4.865   3.650   0.339 -0.2631  0.0549  0.3696
10458TIP3    H152789   4.825   3.598   0.409  0.1754 -0.7017  0.0657
10458TIP3    H252790   4.820   3.734   0.344  0.7231  0.5210  2.4985
10459TIP3   OH252791   4.538   5.988   3.008  0.2542  0.1515  0.5031
10459TIP3    H152792   4.615   5.935   2.984 -0.2309 -0.9776  1.3296
10459TIP3    H252793   4.473   5.924   3.035  0.4868  1.1821  4.0643
10460TIP3   OH252794   1.883   1.792   3.717  0.1350 -0.2491  0.2425
10460TIP3    H152795   1.880   1.773   3.810  1.6327  1.4618  0.7036
10460TIP3    H252796   1.906   1.709   3.676 -1.1524 -1.1732  1.2992
10461TIP3   OH252797   4.230   3.776   2.764 -0.1301  0.1282  0.1810
10461TIP3    H152798   4.188   3.797   2.848 -0.0853  0.1793  0.1910
10461TIP3    H252799   4.305   3.720   2.788  1.1156  1.7963  0.3893
10462TIP3   OH252800   5.291   4.203  14.142 -0.2499  0.4674  0.4541
10462TIP3    H152801   5.313   4.224  14.051  0.8888  0.8351  0.7995
10462TIP3    H252802   5.220   4.264  14.164 -0.3084  0.5990 -0.0877
10463TIP3   OH252803   6.186   0.234   5.590  0.1116 -0.3325  0.4563
10463TIP3    H152804   6.105   0.208   5.633 -1.8878  1.6699 -1.8067
10463TIP3    H252805   6.177   0.328   5.574  2.8128 -0.0658 -0.1059
10464TIP3   OH252806   4.731   6.682  12.559  0.1770  0.4053 -0.1753
10464TIP3    H152807   4.742   6.719  12.471 -2.7945 -0.6706 -1.0924
10464TIP3    H252808   4.756   6.590  12.549  3.1122  0.9646  1.0197
10465TIP3   OH252809   3.284   3.457   0.959 -0.0805  0.3938 -0.3943
10465TIP3    H152810   3.322   3.374   0.931 -0.1985  0.5242 -0.9584
10465TIP3    H252811   3.238   3.436   1.040 -0.8627 -0.2863 -0.9954
10466TIP3   OH252812   3.383   2.286  14.100  0.5059 -0.4997  0.0959
10466TIP3    H152813   3.329   2.365  14.110 -0.7006 -1.5116  2.1650
10466TIP3    H252814   3.319   2.217  14.079  1.4992 -1.0277 -1.3276
10467TIP3   OH252815   0.742   4.413   2.260 -0.0811  0.4988  0.0252
10467TIP3    H152816   0.771   4.492   2.307 -2.5903  2.6286 -1.7317
10467TIP3    H252817   0.758   4.433   2.167  1.7969 -2.3050 -0.4094
10468TIP3   OH252818   2.944   3.110  13.047 -0.2926 -0.5405 -0.8796
10468TIP3    H152819   2.952   3.184  13.107 -0.3512 -1.8634  0.8376
10468TIP3    H252820   2.995   3.136  12.970 -0.1536  1.1867 -0.2554
10469TIP3   OH252821   0.693   3.757  12.283 -0.4675 -0.2315 -0.5863
10469TIP3    H152822   0.780   3.770  12.246  0.0894 -2.0970 -0.0632
10469TIP3    H252823   0.691   3.813  12.360  0.5541 -0.6698 -0.2211
10470TIP3   OH252824   1.444   3.196   5.252  0.3900 -0.1178  0.0403
10470TIP3    H152825   1.417   3.287   5.258  0.8363 -0.0898  3.3431
10470TIP3    H252826   1.401   3.164   5.172 -2.8245  1.9804  0.7250
10471TIP3   OH252827   3.196   2.704   3.070  0.0001 -0.4620 -0.0333
10471TIP3    H152828   3.257   2.778   3.074  0.0162 -0.4804  0.0762
10471TIP3    H252829   3.164   2.695   3.160  0.2645 -0.8113  0.0267
10472TIP3   OH252830   5.055   3.830   3.856  0.5654 -0.1362  0.0565
10472TIP3    H152831   4.975   3.782   3.877 -1.0333  1.3768 -2.1847
10472TIP3    H252832   5.036   3.920   3.879  1.0039  0.5039 -1.8689
10473TIP3   OH252833   5.422   6.504   0.616  0.4318  0.0047  0.5259
10473TIP3    H152834   5.513   6.515   0.591  0.2914  0.3961  0.1733
10473TIP3    H252835   5.392   6.592   0.639 -0.4153  0.2491 -1.3001
10474TIP3   OH252836   3.227   1.705  13.279  0.2417  0.1760 -0.2970
10474TIP3    H152837   3.283   1.711  13.201 -0.7355  1.6894 -0.9316
10474TIP3    H252838   3.284   1.668  13.346  1.1007 -1.2258 -1.7151
10475TIP3   OH252839   4.820   3.107  13.368 -0.0180  0.7105  0.3440
10475TIP3    H152840   4.797   3.015  13.355  1.3018  0.7147 -2.9660
10475TIP3    H252841   4.882   3.107  13.441  0.3408 -1.1126  0.0795
10476TIP3   OH252842   0.009   0.331  11.382 -0.6143  0.1784  0.4553
10476TIP3    H152843   0.010   0.241  11.415  1.4277  0.4235  1.2333
10476TIP3    H252844  -0.068   0.335  11.325 -0.5136 -2.1851  0.0369
10477TIP3   OH252845   1.921   1.002   0.409 -0.0537 -0.1317 -0.7238
10477TIP3    H152846   1.870   1.073   0.448  1.1254  0.4955 -0.2595
10477TIP3    H252847   2.012   1.030   0.419  0.4129 -1.4931 -0.9674
10478TIP3   OH252848   2.032   4.162   3.119  0.0052  0.7416 -0.4026
10478TIP3    H152849   1.969   4.192   3.054 -0.3617  1.8152  0.4210
10478TIP3    H252850   2.068   4.081   3.083 -0.0975  1.3773 -1.9903
10479TIP3   OH252851   4.027   1.541   0.247 -0.1562  0.1962 -0.0478
10479TIP3    H152852   4.118   1.542   0.277 -0.5788  1.0125  1.2597
10479TIP3    H252853   4.008   1.448   0.232  0.3391 -0.1670  1.4419
10480TIP3   OH252854   2.414   5.843   4.055  0.4595 -0.3417  0.5121
10480TIP3    H152855   2.455   5.768   4.097  0.7184  0.8224  2.4862
10480TIP3    H252856   2.486   5.905   4.041  0.0836 -0.0428 -0.1463
10481TIP3   OH252857   2.221   5.999   6.702  1.0020  0.6440 -0.4839
10481TIP3    H152858   2.286   6.036   6.761  0.9670 -0.5170  0.3199
10481TIP3    H252859   2.271   5.943   6.642  0.5883 -3.4286  2.5307
10482TIP3   OH252860   2.048   3.628   2.890 -0.0144  0.2740  0.0030
10482TIP3    H152861   1.988   3.611   2.963  0.4716 -1.4418  0.0672
10482TIP3    H252862   1.997   3.681   2.828 -1.3520 -0.4947  0.4016
10483TIP3   OH252863   6.530   0.446   0.069 -0.5615 -0.4001  0.0118
10483TIP3    H152864   6.462   0.463   0.004  0.4873  0.0978 -1.0067
10483TIP3    H252865   6.522   0.353   0.088  1.5558 -1.6595 -3.9396
10484TIP3   OH252866   1.522   5.607   2.773  0.4878 -0.1326 -0.5587
10484TIP3    H152867   1.491   5.542   2.709 -1.8887  0.0659  0.2899
10484TIP3    H252868   1.489   5.690   2.739  0.2104  0.1178  0.2974
10485TIP3   OH252869   3.662   3.215  11.720  0.2036  0.2109 -0.1483
10485TIP3    H152870   3.675   3.162  11.641 -0.2425  0.2413 -0.2469
10485TIP3    H252871   3.586   3.176  11.762  0.5714  0.0574  0.3874
10486TIP3   OH252872   1.775   3.938   3.087  0.0993 -0.3377 -0.0887
10486TIP3    H152873   1.851   3.897   3.128 -0.3993 -1.2706 -0.0704
10486TIP3    H252874   1.811   3.983   3.010  1.0794  1.6553  1.4573
10487TIP3   OH252875   0.993   1.145   5.228  0.6062 -0.4952 -0.1924
10487TIP3    H152876   0.964   1.190   5.148 -0.2508  0.3464  0.5767
10487TIP3    H252877   0.938   1.067   5.232  0.4740 -0.4083 -0.2907
10488TIP3   OH252878   6.672   6.204  16.201 -0.2303  0.7237  0.2109
10488TIP3    H152879   6.580   6.221  16.181 -0.3526  0.2578  0.3784
10488TIP3    H252880   6.672   6.183  16.294 -0.4012 -2.3868 -0.3943
10489TIP3   OH252881   1.704   4.252   1.729  0.1772  0.0395  0.2379
10489TIP3    H152882   1.763   4.205   1.788  1.0720 -0.0883 -0.7271
10489TIP3    H252883   1.756   4.265   1.649 -0.4416  1.6432  0.0667
10490TIP3   OH252884   2.099   3.150  12.600  0.1064 -0.4099 -0.3714
10490TIP3    H152885   2.023   3.205  12.576  0.2145  0.0755  0.3794
10490TIP3    H252886   2.076   3.063  12.568 -1.4942 -0.6371  1.2844
10491TIP3   OH252887   3.893   1.220  16.912  0.0314 -0.9776  0.0456
10491TIP3    H152888   3.961   1.246  16.974 -0.6002  2.5619 -0.4779
10491TIP3    H252889   3.875   1.300  16.862 -1.0910 -3.0394 -3.1766
10492TIP3   OH252890   2.260   5.719   0.185 -0.1903  0.1320 -0.1177
10492TIP3    H152891   2.191   5.772   0.143 -0.9794 -1.6326 -1.1520
10492TIP3    H252892   2.308   5.681   0.112 -0.1421 -1.2001  0.5843
10493TIP3   OH252893   4.804   5.020  15.820 -0.2517 -0.4473 -0.0395
10493TIP3    H152894   4.831   5.071  15.896 -1.3497 -0.5529  0.4400
10493TIP3    H252895   4.870   5.040  15.753 -1.1754  2.4299 -0.2245
10494TIP3   OH252896   1.210   0.313  11.787 -0.0774  0.3795 -0.4966
10494TIP3    H152897   1.249   0.379  11.845 -1.1847  1.1440 -0.6004
10494TIP3    H252898   1.196   0.237  11.844  1.9889 -0.1271 -0.5669
10495TIP3   OH252899   5.458   4.448  13.146  0.1402 -0.0805  0.5674
10495TIP3    H152900   5.438   4.536  13.114 -0.7161 -0.7781 -0.9556
10495TIP3    H252901   5.391   4.431  13.212  0.0799  0.2725  0.6012
10496TIP3   OH252902   4.792   5.781   0.369 -0.3207  0.3416 -0.3549
10496TIP3    H152903   4.838   5.837   0.431 -0.4297  0.6394 -0.5438
10496TIP3    H252904   4.710   5.826   0.351  0.4429  1.1499 -2.0588
10497TIP3   OH252905   2.961   1.569  12.040  0.0609  0.0415 -0.8062
10497TIP3    H152906   2.899   1.558  11.968  0.1306  0.5257 -0.9474
10497TIP3    H252907   2.948   1.492  12.095  1.3377 -1.3371 -2.3137
10498TIP3   OH252908   2.085   3.731   0.510 -0.3339 -0.2457 -0.0067
10498TIP3    H152909   2.024   3.665   0.541  1.4010 -1.6963  0.4964
10498TIP3    H252910   2.066   3.808   0.564 -0.7723 -1.1230  1.1330
10499TIP3   OH252911   3.342   0.462   3.983  0.4460 -0.1067 -0.3884
10499TIP3    H152912   3.410   0.467   3.916 -0.0078 -0.7270 -0.9072
10499TIP3    H252913   3.337   0.369   4.006  0.3172  0.0456  0.2158
10500TIP3   OH252914   2.375   0.762  16.157 -0.3564 -0.9560  0.2692
10500TIP3    H152915   2.416   0.848  16.145 -1.4983 -0.7074 -2.6581
10500TIP3    H252916   2.399   0.713  16.079 -1.4539 -2.5864  0.8939
10501TIP3   OH252917   5.640   6.170  15.289  0.5036  0.1173 -0.1538
10501TIP3    H152918   5.694   6.146  15.364 -0.5459  0.2461  0.6508
10501TIP3    H252919   5.645   6.265  15.286  1.0311  0.0838 -0.6321
10502TIP3   OH252920   5.317   6.540  11.096 -0.0527  0.1104  0.3855
10502TIP3    H152921   5.246   6.493  11.139  1.3668 -0.8981  1.7740
10502TIP3    H252922   5.367   6.471  11.051  0.5356  0.6723  0.1685
10503TIP3   OH252923   0.404   3.044   0.022  0.4504  0.0238  0.6312
10503TIP3    H152924   0.485   2.994   0.029  1.2005  1.2430  0.9756
10503TIP3    H252925   0.432   3.134   0.005 -0.8703  0.2613 -0.5851
10504TIP3   OH252926   0.213   0.698  16.397  0.3384  0.4231  0.0589
10504TIP3    H152927   0.272   0.764  16.432 -0.0288 -0.1581  1.8915
10504TIP3    H252928   0.267   0.619  16.388  0.3864  0.5194 -0.5372
10505TIP3   OH252929   3.543   3.407  13.701 -0.3153 -0.8246 -0.2628
10505TIP3    H152930   3.543   3.490  13.750 -2.5819 -1.3465  0.7372
10505TIP3    H252931   3.565   3.341  13.766 -1.5909 -1.3363 -0.3361
10506TIP3   OH252932   4.889   1.256  11.216 -0.5127  0.1711  0.6401
10506TIP3    H152933   4.979   1.223  11.217 -0.7321 -0.4437  0.9505
10506TIP3    H252934   4.877   1.293  11.129 -0.1650 -0.3452  0.3659
10507TIP3   OH252935   2.783   4.660   4.122 -0.2356  0.3644 -0.0431
10507TIP3    H152936   2.856   4.600   4.137  2.2000  2.8521 -1.1296
10507TIP3    H252937   2.706   4.602   4.113  1.6574 -2.4293  0.3647
10508TIP3   OH252938   4.861   0.405  17.018 -0.3267  0.7017 -0.6158
10508TIP3    H152939   4.793   0.338  17.014  0.5340 -0.1838 -0.8226
10508TIP3    H252940   4.920   0.384  16.945 -0.2483  1.9289 -0.9295
10509TIP3   OH252941   3.398   3.044  13.159  0.1210  0.1442 -0.0277
10509TIP3    H152942   3.462   3.097  13.207 -0.5124  0.2775  0.6798
10509TIP3    H252943   3.330   3.024  13.223  1.6006 -3.8628  0.6113
10510TIP3   OH252944   0.178   3.729  13.226  0.2544  0.0158 -0.0648
10510TIP3    H152945   0.272   3.723  13.244  0.0875 -2.1321  0.3288
10510TIP3    H252946   0.173   3.746  13.131  1.0867 -3.3375 -0.8304
10511TIP3   OH252947   2.758   5.717   2.992 -0.2174 -0.2009  0.1553
10511TIP3    H152948   2.781   5.776   3.063  1.0437 -0.8182  0.2788
10511TIP3    H252949   2.672   5.747   2.963 -0.7404  0.0904  1.9032
10512TIP3   OH252950   5.745   6.129   5.603 -0.1452 -0.3581 -0.1034
10512TIP3    H152951   5.793   6.133   5.685 -0.3169 -0.1310 -0.0133
10512TIP3    H252952   5.667   6.182   5.618  1.2402  2.1825 -1.3736
10513TIP3   OH252953   3.905   0.559  13.650 -0.2003  0.3225 -0.4059
10513TIP3    H152954   3.934   0.620  13.717 -0.5249 -0.3710  0.3851
10513TIP3    H252955   3.984   0.536  13.601 -0.2163  2.0700 -1.3272
10514TIP3   OH252956   0.605   4.983   3.144  0.5747  0.5569  0.1653
10514TIP3    H152957   0.511   4.986   3.165 -0.4467 -1.0057 -3.4017
10514TIP3    H252958   0.646   4.953   3.225 -2.2654 -0.6600  1.3058
10515TIP3   OH252959   3.368   3.634  12.396  0.4414 -0.2233 -0.0534
10515TIP3    H152960   3.437   3.579  12.432  0.1952 -1.3161 -1.1851
10515TIP3    H252961   3.332   3.584  12.323 -2.7415 -0.4658  1.5035
10516TIP3   OH252962   2.796   0.329   3.138  0.1336  0.1237 -0.0672
10516TIP3    H152963   2.715   0.307   3.093 -0.1711 -0.5864  0.8083
10516TIP3    H252964   2.769   0.356   3.226  0.8463 -0.3652  0.3176
10517TIP3   OH252965   3.202   2.171   3.847  0.4258 -0.1719  0.0688
10517TIP3    H152966   3.207   2.147   3.755  0.2350  0.7252 -0.1829
10517TIP3    H252967   3.197   2.266   3.847  2.7916  0.0119  1.1147
10518TIP3   OH252968   3.104   5.662   3.245 -0.5633  0.1655 -0.3361
10518TIP3    H152969   3.098   5.591   3.181 -0.5267 -0.4583  0.3325
10518TIP3    H252970   3.165   5.629   3.311  0.7299  1.4699 -0.8221
10519TIP3   OH252971   0.897   6.097  11.133  0.3273 -0.5785  0.1673
10519TIP3    H152972   0.802   6.095  11.131  0.2982  0.5433 -0.6508
10519TIP3    H252973   0.919   6.115  11.225 -0.3184  0.8136  0.0813
10520TIP3   OH252974   2.587   5.357   0.399  0.0192  0.7320 -0.1966
10520TIP3    H152975   2.545   5.443   0.390 -2.6962 -0.4656  0.2176
10520TIP3    H252976   2.559   5.308   0.322  3.3184  0.7823 -1.5965
10521TIP3   OH252977   2.377   2.736   1.151  0.2653  0.2369 -0.2855
10521TIP3    H152978   2.375   2.827   1.181  0.1543 -0.2517  1.2878
10521TIP3    H252979   2.286   2.716   1.128  0.3690  0.6480 -1.0966
10522TIP3   OH252980   1.111   4.031  14.811 -0.3444 -0.5946  0.5105
10522TIP3    H152981   1.102   4.082  14.730 -0.0142  0.4241  1.0992
10522TIP3    H252982   1.132   3.943  14.781 -1.9073 -0.6496 -0.5742
10523TIP3   OH252983   5.185   5.024   4.371 -0.2293 -0.2967 -0.5549
10523TIP3    H152984   5.243   5.097   4.349 -1.0113  0.5330  0.0768
10523TIP3    H252985   5.128   5.015   4.295 -1.2268  0.8638  0.0301
10524TIP3   OH252986   4.197   4.438  12.741 -0.2428 -0.0227  0.1736
10524TIP3    H152987   4.208   4.364  12.802  0.5906 -2.1681 -2.3786
10524TIP3    H252988   4.102   4.444  12.729 -0.4610  0.7667  1.9793
10525TIP3   OH252989   4.146   3.162  15.598 -0.5704  0.2538  0.0279
10525TIP3    H152990   4.135   3.185  15.506  1.9608  1.3840 -0.0626
10525TIP3    H252991   4.212   3.094  15.599 -2.0439 -1.2459  0.9347
10526TIP3   OH252992   0.169   5.580  13.970  0.1086  0.1102 -0.4450
10526TIP3    H152993   0.076   5.585  13.948 -0.2285 -3.1782 -0.2376
10526TIP3    H252994   0.209   5.541  13.892  1.3774  1.6467 -0.5943
10527TIP3   OH252995   3.721   5.588  13.149 -0.5032 -0.0174 -0.0703
10527TIP3    H152996   3.767   5.640  13.215 -0.1035  0.8716 -1.0290
10527TIP3    H252997   3.755   5.499  13.161 -0.0850  0.2258  0.5986
10528TIP3   OH252998   2.048   1.578   4.219  0.2464  0.1740 -0.2924
10528TIP3    H152999   2.026   1.594   4.311  2.5588 -0.3922  0.4171
10528TIP3    H253000   2.044   1.665   4.179  0.5060  0.6365  0.6359
10529TIP3   OH253001   3.172   6.401  11.978 -0.3143 -0.3170  0.0047
10529TIP3    H153002   3.199   6.376  11.889  1.9341  0.6776  0.3422
10529TIP3    H253003   3.099   6.462  11.964 -0.4240 -0.6763 -1.1199
10530TIP3   OH253004   1.416   5.148  14.342  0.3121  0.4815  0.1177
10530TIP3    H153005   1.443   5.231  14.380 -0.7816  1.0922 -0.4161
10530TIP3    H253006   1.416   5.162  14.248 -0.0957 -0.0535  0.0280
10531TIP3   OH253007   1.300   3.795  13.946 -0.2782  0.4988 -0.2073
10531TIP3    H153008   1.248   3.785  13.866 -0.5221  1.1322 -0.1364
10531TIP3    H253009   1.329   3.706  13.967 -1.4489  0.1079 -0.1722
10532TIP3   OH253010   2.004   5.884   0.630 -0.1352 -0.5522  0.6086
10532TIP3    H153011   2.024   5.976   0.615  1.2988 -1.3298 -4.0178
10532TIP3    H253012   1.914   5.874   0.599 -0.2231 -0.7359  0.9201
10533TIP3   OH253013   5.817   2.369   2.007  0.5742  0.3763  0.0394
10533TIP3    H153014   5.912   2.373   2.024  1.0040 -0.9057 -1.7674
10533TIP3    H253015   5.805   2.421   1.928 -0.4038  1.2752  0.7575
10534TIP3   OH253016   0.010   3.060  12.820 -0.1785  0.2211 -0.2631
10534TIP3    H153017   0.023   3.110  12.901  0.3632 -0.4725  0.0840
10534TIP3    H253018  -0.081   3.079  12.796 -0.5375 -0.0217  0.8286
10535TIP3   OH253019   6.568   5.240  11.636 -0.1058 -0.3831 -0.6436
10535TIP3    H153020   6.518   5.301  11.583  0.0583 -0.1118 -0.4889
10535TIP3    H253021   6.656   5.243  11.599  0.3447  0.8137  0.4703
10536TIP3   OH253022   2.858   1.384   1.717  0.4860 -0.3108  0.3666
10536TIP3    H153023   2.879   1.473   1.743  0.8265  0.0416 -1.0317
10536TIP3    H253024   2.942   1.338   1.718  0.6788 -0.0404 -0.9590
10537TIP3   OH253025   5.775   2.916  17.152  0.6577 -0.1118  0.0661
10537TIP3    H153026   5.766   2.827  17.119  2.5395  0.4843 -2.3566
10537TIP3    H253027   5.688   2.954  17.142 -0.0742 -1.5255  0.7482
10538TIP3   OH253028   1.304   4.764   4.716 -0.6451 -0.1856 -0.0872
10538TIP3    H153029   1.278   4.724   4.799 -0.2691  2.5213  1.4217
10538TIP3    H253030   1.248   4.841   4.707 -0.7168 -0.4347 -2.4145
10539TIP3   OH253031   1.830   0.701  14.048 -0.2722 -0.4691 -0.2855
10539TIP3    H153032   1.917   0.741  14.049 -0.3798 -0.2196 -0.5915
10539TIP3    H253033   1.837   0.626  14.107 -0.0969  0.0664  0.3872
10540TIP3   OH253034   5.386   5.307  17.049  0.4946  0.0664  0.2299
10540TIP3    H153035   5.361   5.344  16.965  1.3205 -1.0897 -0.5632
10540TIP3    H253036   5.364   5.214  17.041  0.1866  0.0253  1.4534
10541TIP3   OH253037   2.207   5.455  10.935 -0.2226  0.0140 -0.5496
10541TIP3    H153038   2.179   5.400  10.863  1.7155 -2.5268  0.5008
10541TIP3    H253039   2.288   5.416  10.966  0.0669  2.1556  1.7701
10542TIP3   OH253040   5.177   4.954   2.414  0.2027  0.3444 -0.0109
10542TIP3    H153041   5.223   4.870   2.411 -0.6743 -0.1422 -0.1314
10542TIP3    H253042   5.178   4.986   2.324 -3.1755 -1.6308 -0.9409
10543TIP3   OH253043   4.071   3.169   3.110 -0.2402 -0.3291 -0.3457
10543TIP3    H153044   4.083   3.202   3.022 -1.2671 -0.5315 -0.5718
10543TIP3    H253045   4.155   3.184   3.153  0.6231 -1.1684 -1.6559
10544TIP3   OH253046   2.896   4.349   6.342  0.1746 -0.0747 -0.4202
10544TIP3    H153047   2.846   4.275   6.375  0.6020 -0.9470 -1.6309
10544TIP3    H253048   2.843   4.384   6.270  1.2777 -1.0782 -1.7902
10545TIP3   OH253049   4.333   2.666  12.137  0.2818  0.4824 -0.0072
10545TIP3    H153050   4.352   2.751  12.099 -0.2567  0.3250 -0.6442
10545TIP3    H253051   4.318   2.683  12.230  1.7963  0.8467  0.1899
10546TIP3   OH253052   3.976   6.118  12.144 -0.0518  0.6064  0.0358
10546TIP3    H153053   3.922   6.060  12.090 -0.3045  0.4320  0.4685
10546TIP3    H253054   3.945   6.206  12.122  1.7156  0.7740 -2.1617
10547TIP3   OH253055   2.005   6.464   4.602 -0.2425 -0.0620  0.2107
10547TIP3    H153056   2.040   6.437   4.686  3.0821  1.7087 -0.4277
10547TIP3    H253057   2.009   6.386   4.547  1.7041 -0.2233  0.5420
10548TIP3   OH253058   3.636   3.215   1.878 -0.4697  0.0423  0.1200
10548TIP3    H153059   3.607   3.304   1.858 -0.1559  0.0710 -0.1966
10548TIP3    H253060   3.560   3.175   1.921  0.0641  1.1180  2.1800
10549TIP3   OH253061   3.474   4.086   5.241 -0.1883 -0.1048 -0.1210
10549TIP3    H153062   3.397   4.142   5.239 -0.6983 -0.8029 -0.4345
10549TIP3    H253063   3.482   4.058   5.332  0.2688  0.7371  0.1054
10550TIP3   OH253064   6.198   1.463  14.188  0.1470 -0.5025 -0.7922
10550TIP3    H153065   6.167   1.463  14.098 -2.6996  1.6790  0.0572
10550TIP3    H253066   6.150   1.392  14.230 -1.2450  0.7214 -0.2460
10551TIP3   OH253067   5.592   5.786   0.055  0.3396 -0.8589  0.3117
10551TIP3    H153068   5.518   5.730   0.078 -0.3749  0.2142  0.6973
10551TIP3    H253069   5.653   5.776   0.128 -0.9971  0.9288  1.7807
10552TIP3   OH253070   4.310   1.046  16.667 -0.4999 -0.1661  0.2078
10552TIP3    H153071   4.293   1.114  16.732 -0.4654 -0.4870  0.5521
10552TIP3    H253072   4.388   1.077  16.621  0.7847 -0.9662  1.7511
10553TIP3   OH253073   3.675   3.899  16.152 -0.6378  0.3130  0.1119
10553TIP3    H153074   3.651   3.809  16.130  1.7402 -0.2241 -0.5764
10553TIP3    H253075   3.591   3.945  16.161 -1.8778 -1.6067 -1.0129
10554TIP3   OH253076   4.019   0.262  14.556 -0.1898  0.1685 -0.1318
10554TIP3    H153077   4.026   0.326  14.626 -5.5800  0.3833  0.6122
10554TIP3    H253078   3.998   0.313  14.478  1.5767 -0.3975 -1.0389
10555TIP3   OH253079   4.903   0.490  16.253  0.3781 -0.4470  0.0643
10555TIP3    H153080   4.879   0.565  16.307  2.1558  0.1840  0.0555
10555TIP3    H253081   4.980   0.519  16.205  0.4698 -1.9351 -0.7360
10556TIP3   OH253082   3.699   5.732  17.386 -0.0989 -0.1778 -0.3897
10556TIP3    H153083   3.726   5.791  17.456 -1.1167 -1.1012  0.8197
10556TIP3    H253084   3.776   5.725  17.330  1.3884 -0.8515  1.6427
10557TIP3   OH253085   1.693   2.015   3.159  0.0350 -0.0347 -0.2434
10557TIP3    H153086   1.663   2.010   3.250 -0.4894  0.4714 -0.3848
10557TIP3    H253087   1.753   2.090   3.158 -0.8085  0.6618 -0.5368
10558TIP3   OH253088   1.687   2.277   1.608  0.2422  0.1378 -0.0284
10558TIP3    H153089   1.714   2.216   1.539 -0.6624 -0.1795 -0.1059
10558TIP3    H253090   1.697   2.363   1.568 -0.0110 -0.0303 -0.4653
10559TIP3   OH253091   5.772   0.367   2.220 -0.0014 -0.4316  0.0975
10559TIP3    H153092   5.828   0.401   2.150 -0.3433  0.0737  0.0641
10559TIP3    H253093   5.776   0.433   2.289  0.3230 -0.9198  0.5555
10560TIP3   OH253094   5.039   1.778  16.283  0.0507 -0.5502  0.3818
10560TIP3    H153095   4.965   1.742  16.333  1.0301 -0.8069  1.7118
10560TIP3    H253096   5.074   1.847  16.340  2.1788 -1.9200  0.8116
10561TIP3   OH253097   5.029   1.050   3.591  0.1445  0.2025  0.0483
10561TIP3    H153098   5.032   1.143   3.612  2.3221  0.5165 -1.3385
10561TIP3    H253099   5.001   1.008   3.672  0.4399  1.9605  1.1089
10562TIP3   OH253100   2.794   5.685   2.109  0.2550  0.0394  0.1551
10562TIP3    H153101   2.794   5.597   2.070  1.4848  0.8313 -1.7971
10562TIP3    H253102   2.733   5.735   2.055  1.8957  1.1357 -0.7748
10563TIP3   OH253103   2.141   6.296  11.827 -0.1372 -0.0874  0.2098
10563TIP3    H153104   2.085   6.361  11.868  0.0212  0.7151 -0.7946
10563TIP3    H253105   2.081   6.236  11.784 -0.3119 -1.0436  1.7126
10564TIP3   OH253106   3.064   3.077   4.904  0.3661  0.2026  0.1338
10564TIP3    H153107   3.109   3.082   4.820  1.6528 -3.3039  0.4575
10564TIP3    H253108   3.127   3.113   4.967  0.1570  1.0593 -0.1288
10565TIP3   OH253109   5.770   0.948  15.039 -0.7578 -0.1842  0.3247
10565TIP3    H153110   5.813   0.935  15.124  1.6598 -2.2304 -1.0942
10565TIP3    H253111   5.808   1.029  15.006  0.8519 -1.1095 -0.1861
10566TIP3   OH253112   4.842   5.063   3.913 -0.3239  0.4235  0.5720
10566TIP3    H153113   4.908   4.995   3.926  0.6727  1.1871 -0.3292
10566TIP3    H253114   4.855   5.094   3.824 -0.6255  1.9212  1.0111
10567TIP3   OH253115   4.516   3.450   4.874  0.1545 -0.0251 -0.0394
10567TIP3    H153116   4.597   3.501   4.868  1.3865 -2.0372 -2.9210
10567TIP3    H253117   4.510   3.425   4.966  2.1995  1.1077  0.4655
10568TIP3   OH253118   1.667   2.691  14.982  0.0498  0.3291 -0.0272
10568TIP3    H153119   1.613   2.619  15.016  0.3473 -0.4365 -1.0881
10568TIP3    H253120   1.604   2.752  14.944 -0.1377 -0.0842 -0.3923
10569TIP3   OH253121   3.265   2.084   0.490 -0.1875 -0.0303  0.4862
10569TIP3    H153122   3.178   2.117   0.468 -0.5495 -0.5855  1.0391
10569TIP3    H253123   3.302   2.150   0.547 -0.2354  0.2220  0.2276
10570TIP3   OH253124   5.345   6.151   6.193 -0.8695  0.7272  0.0867
10570TIP3    H153125   5.306   6.201   6.121  0.1168 -0.4919 -1.3706
10570TIP3    H253126   5.399   6.214   6.241 -1.6668  1.5968 -0.1416
10571TIP3   OH253127   6.403   5.942  17.058 -0.0282 -0.4372 -0.4375
10571TIP3    H153128   6.480   5.963  17.005 -0.6514 -0.5032 -1.4168
10571TIP3    H253129   6.408   5.847  17.072  1.3613 -0.1104  1.6629
10572TIP3   OH253130   1.701   6.283   2.111  0.3191 -0.0512 -0.0298
10572TIP3    H153131   1.766   6.276   2.181 -0.4611  0.6443  0.7868
10572TIP3    H253132   1.753   6.305   2.033  0.9312  2.9192  1.0612
10573TIP3   OH253133   3.951   6.002   4.806  0.1116  0.8632  0.5229
10573TIP3    H153134   4.044   5.986   4.795  0.8415  4.5560 -0.1341
10573TIP3    H253135   3.919   6.022   4.718 -0.9025  1.2178  0.9571
10574TIP3   OH253136   1.422   4.421   4.235 -0.2301 -0.4602 -0.1331
10574TIP3    H153137   1.474   4.356   4.189  1.2400  0.9535 -0.5481
10574TIP3    H253138   1.367   4.369   4.294  1.0554 -2.0707 -0.2548
10575TIP3   OH253139   0.868   3.038   2.884 -0.5449 -1.0913  0.0192
10575TIP3    H153140   0.921   2.982   2.941  1.7217  1.3353  0.4777
10575TIP3    H253141   0.842   3.111   2.939 -1.1710 -0.3501 -1.2139
10576TIP3   OH253142   1.639   6.389   5.782  0.0234 -0.4909 -0.3123
10576TIP3    H153143   1.671   6.417   5.696  0.1241  0.9076  0.1559
10576TIP3    H253144   1.557   6.344   5.764  0.0933 -0.2962 -1.1475
10577TIP3   OH253145   5.039   5.287   3.417  0.5444  0.0779  0.0139
10577TIP3    H153146   5.092   5.366   3.418  3.5146 -1.7590  0.7075
10577TIP3    H253147   4.991   5.288   3.500  0.1707  1.3314 -0.2006
10578TIP3   OH253148   4.405   3.027   5.147  0.0656  0.3106  0.3691
10578TIP3    H153149   4.375   2.964   5.212 -0.8663  0.9137  0.5414
10578TIP3    H253150   4.499   3.033   5.160  0.2669 -1.4969 -0.0613
10579TIP3   OH253151   3.010   0.221  13.105  0.0310 -0.7304 -0.0541
10579TIP3    H153152   3.008   0.151  13.172 -0.6291 -0.0531  0.6561
10579TIP3    H253153   2.919   0.248  13.097  0.2776  0.0070 -0.3770
10580TIP3   OH253154   3.513   6.440   3.683 -0.2146 -0.5991  0.5024
10580TIP3    H153155   3.467   6.519   3.710  0.1071 -0.5084  0.7905
10580TIP3    H253156   3.576   6.424   3.753 -1.5954 -2.2295  1.4617
10581TIP3   OH253157   4.612   1.686  11.833  0.5942 -0.1264 -0.1177
10581TIP3    H153158   4.662   1.765  11.814  1.0887 -0.3779  0.1314
10581TIP3    H253159   4.525   1.718  11.859  1.4512  0.4593  2.2112
10582TIP3   OH253160   5.532   5.768   5.575 -0.2335  0.7833 -0.3925
10582TIP3    H153161   5.528   5.854   5.534  0.3052  1.0776  0.1470
10582TIP3    H253162   5.540   5.787   5.669  0.3573  0.1532 -0.3064
10583TIP3   OH253163   1.228   0.183   3.992 -0.4618  0.1574 -0.2941
10583TIP3    H153164   1.219   0.106   4.049  1.1803  0.1310 -0.0225
10583TIP3    H253165   1.219   0.258   4.051 -0.6990  0.1670 -0.3390
10584TIP3   OH253166   3.584   5.455  11.270  0.1940 -0.1757 -0.1070
10584TIP3    H153167   3.582   5.445  11.175 -0.8407 -0.8089 -0.0231
10584TIP3    H253168   3.495   5.481  11.294  0.9623  2.2028  0.4785
10585TIP3   OH253169   5.915   6.016  12.787 -0.1048  0.6810 -0.1289
10585TIP3    H153170   5.861   5.986  12.713 -1.7848  0.2298  1.2143
10585TIP3    H253171   5.929   5.937  12.840  0.6934  1.0890  0.2818
10586TIP3   OH253172   1.201   0.331   3.040  0.0805 -0.1046 -0.1908
10586TIP3    H153173   1.200   0.395   3.111  1.2464 -1.0250  0.6881
10586TIP3    H253174   1.199   0.246   3.084 -1.6148 -0.7045 -1.3392
10587TIP3   OH253175   5.598   4.434  13.765  0.0137 -0.3322  0.2926
10587TIP3    H153176   5.628   4.396  13.682  0.3730 -0.6877  0.5818
10587TIP3    H253177   5.676   4.478  13.799 -0.6691  1.7077 -0.5990
10588TIP3   OH253178   5.248   4.107  11.043 -0.5282 -0.0355  0.2320
10588TIP3    H153179   5.194   4.119  10.964 -0.9395  0.0005  0.5130
10588TIP3    H253180   5.336   4.134  11.017 -0.5497 -0.5325 -0.3671
10589TIP3   OH253181   2.673   1.914  15.470 -0.1883 -0.0302 -0.0385
10589TIP3    H153182   2.736   1.971  15.427 -0.3710  0.7076  0.6579
10589TIP3    H253183   2.650   1.849  15.403 -1.2834  1.7172 -1.4396
10590TIP3   OH253184   4.868   3.675  13.547 -0.2843 -0.1643  0.5144
10590TIP3    H153185   4.921   3.749  13.576  0.4887 -0.4025 -0.2482
10590TIP3    H253186   4.882   3.608  13.614 -0.4710  0.1522  0.8699
10591TIP3   OH253187   0.410   5.199   1.089  0.1290  0.0266  0.1978
10591TIP3    H153188   0.445   5.178   1.176  1.4177  0.2174 -0.2475
10591TIP3    H253189   0.383   5.290   1.095 -1.4346 -0.4559  0.8890
10592TIP3   OH253190   6.234   6.555  11.689  0.4807 -0.3193  0.5394
10592TIP3    H153191   6.308   6.540  11.630  0.0363  0.3204 -0.2033
10592TIP3    H253192   6.179   6.619  11.642  0.9710  1.5622  2.3826
10593TIP3   OH253193   2.424   3.177  14.163  0.3090 -0.4092 -0.1096
10593TIP3    H153194   2.377   3.210  14.240 -0.8236 -0.3488 -0.8160
10593TIP3    H253195   2.363   3.116  14.122  0.1005  1.0401 -2.0625
10594TIP3   OH253196   1.862   6.049  16.207 -0.2086  0.1612 -0.1843
10594TIP3    H153197   1.834   5.959  16.222 -1.7761  0.6816  0.2588
10594TIP3    H253198   1.901   6.076  16.290 -2.8368  0.9224  0.9044
10595TIP3   OH253199   3.646   3.179   3.249 -0.4861  0.4612 -0.6454
10595TIP3    H153200   3.646   3.256   3.194 -1.2001  1.7738  1.0839
10595TIP3    H253201   3.707   3.118   3.207  2.2830  3.0267 -0.6198
10596TIP3   OH253202   3.994   6.273   5.144  0.0500  0.0901  0.1853
10596TIP3    H153203   3.968   6.187   5.113  0.3126  0.1745 -0.2732
10596TIP3    H253204   3.950   6.282   5.229 -0.5572 -0.1921 -0.1000
10597TIP3   OH253205   1.875   3.266  16.991 -0.2668  1.3448  0.4602
10597TIP3    H153206   1.944   3.208  16.958 -1.1473  0.2515  0.4736
10597TIP3    H253207   1.921   3.342  17.024  0.9798  0.4019  0.9539
10598TIP3   OH253208   5.322   4.566   6.011 -0.0866 -0.1335 -0.0782
10598TIP3    H153209   5.356   4.508   5.942 -0.7948 -1.4159  0.6174
10598TIP3    H253210   5.232   4.538   6.024 -0.3553  0.9329  0.5135
10599TIP3   OH253211   4.407   1.044  14.804  0.3261  0.1364  0.0400
10599TIP3    H153212   4.492   1.039  14.761  0.3524 -0.2069  0.1263
10599TIP3    H253213   4.353   0.981  14.757  0.4900 -0.5963  0.8043
10600TIP3   OH253214   4.913   3.231  12.507  0.3731 -0.5852 -0.1413
10600TIP3    H153215   4.882   3.265  12.591  1.5296  0.3573 -0.0626
10600TIP3    H253216   4.983   3.171  12.530  1.3611  0.4111 -0.4280
10601TIP3   OH253217   1.144   1.002   6.436  0.3008  0.2268  0.2873
10601TIP3    H153218   1.129   0.910   6.416 -0.1810  0.2025  0.7204
10601TIP3    H253219   1.231   1.004   6.475 -0.1493 -0.2428  1.3823
10602TIP3   OH253220   3.209   1.731   6.267 -0.1597  0.0574  0.4750
10602TIP3    H153221   3.149   1.770   6.331  0.8886  1.3431  0.7236
10602TIP3    H253222   3.187   1.638   6.266 -0.5076  0.0962  2.3575
10603TIP3   OH253223   6.536   0.069  13.531 -0.1688  0.0119 -0.2686
10603TIP3    H153224   6.475   0.108  13.593  2.3144  1.3603  1.4614
10603TIP3    H253225   6.583   0.003  13.581  1.5288  0.7578 -0.7960
10604TIP3   OH253226   4.541   5.078   2.448 -0.4233  0.6695  0.3528
10604TIP3    H153227   4.628   5.075   2.408 -0.2976  0.9854  0.6009
10604TIP3    H253228   4.521   4.987   2.469 -1.3597  0.1795 -2.2994
10605TIP3   OH253229   0.437   5.393  13.531 -0.6176  0.4219 -0.0537
10605TIP3    H153230   0.510   5.335  13.514 -0.0727  1.0695  0.0297
10605TIP3    H253231   0.460   5.475  13.486 -0.7208  1.0310  0.9506
10606TIP3   OH253232   3.682   4.410  16.510  0.4073 -0.6306  0.6505
10606TIP3    H153233   3.744   4.351  16.468  1.1058 -0.3921  1.3283
10606TIP3    H253234   3.618   4.352  16.553  0.0953 -0.8730 -0.1239
10607TIP3   OH253235   0.120   5.760  11.831 -1.0509 -0.5407  0.0105
10607TIP3    H153236   0.101   5.772  11.924 -2.5671 -0.6516 -0.2571
10607TIP3    H253237   0.215   5.747  11.827 -0.8950 -0.0279  1.4764
10608TIP3   OH253238   5.443   3.229   5.551 -0.1788 -0.3525  0.1599
10608TIP3    H153239   5.506   3.187   5.492  1.4637  0.1401  1.4673
10608TIP3    H253240   5.497   3.282   5.610 -1.7880 -0.3021  1.6818
10609TIP3   OH253241   1.399   3.665  14.874 -0.2860  0.4063  0.1409
10609TIP3    H153242   1.351   3.617  14.941 -0.7602  0.6740 -0.0041
10609TIP3    H253243   1.359   3.639  14.791 -0.6630  1.1648  0.0723
10610TIP3   OH253244   4.424   4.814   2.514  0.1589  0.0550  0.4573
10610TIP3    H153245   4.371   4.737   2.492  1.0949 -0.4968  0.0464
10610TIP3    H253246   4.363   4.887   2.506 -0.2064 -0.3879 -1.5200
10611TIP3   OH253247   4.634   0.222  15.227 -0.3505 -0.6309 -0.1325
10611TIP3    H153248   4.564   0.171  15.187  0.4615 -0.7747 -1.4307
10611TIP3    H253249   4.600   0.312  15.229 -1.4269 -1.0358  1.3303
10612TIP3   OH253250   3.416   6.233  13.346  0.0305  0.2195  0.1949
10612TIP3    H153251   3.496   6.214  13.298 -0.9464  0.8329 -1.7940
10612TIP3    H253252   3.430   6.319  13.384  1.0720 -0.5555  1.6743
10613TIP3   OH253253   3.980   0.475  15.668  0.0907 -0.7540  0.4895
10613TIP3    H153254   3.937   0.434  15.593 -0.1630  2.4654 -1.3363
10613TIP3    H253255   4.013   0.402  15.720 -1.3660 -3.1963 -1.7648
10614TIP3   OH253256   5.959   3.906  14.979 -0.1020  0.1983  0.5285
10614TIP3    H153257   6.032   3.929  14.921  0.6530 -0.3031  1.2747
10614TIP3    H253258   5.903   3.850  14.925 -0.0149  0.6792 -0.0854
10615TIP3   OH253259   6.353   0.229   1.511 -0.4367  0.0262  0.7267
10615TIP3    H153260   6.359   0.296   1.580  0.9026  0.2780  0.4037
10615TIP3    H253261   6.444   0.213   1.486 -0.8287 -0.9520 -0.1417
10616TIP3   OH253262   6.685   4.616  13.415 -0.3268 -0.5663 -0.2427
10616TIP3    H153263   6.695   4.616  13.319  3.8786  0.1370 -0.0116
10616TIP3    H253264   6.669   4.524  13.437 -3.6115 -0.4600 -1.6110
10617TIP3   OH253265   3.093   1.352  11.265  0.3513 -0.1046 -0.9031
10617TIP3    H153266   3.104   1.319  11.175 -0.3032 -1.1162 -0.6229
10617TIP3    H253267   3.009   1.317  11.293  0.1746  0.8816 -0.1711
10618TIP3   OH253268   4.650   1.636  16.775 -0.5503 -1.1500  0.1204
10618TIP3    H153269   4.599   1.694  16.832 -0.7694 -1.0278 -0.1976
10618TIP3    H253270   4.692   1.695  16.712 -1.0637 -1.3634 -0.4298
10619TIP3   OH253271   6.613   5.291   4.452 -0.0935 -0.1055  0.2189
10619TIP3    H153272   6.557   5.292   4.530  0.4405 -1.3158  0.6456
10619TIP3    H253273   6.640   5.382   4.440 -0.6977  0.1982  1.0650
10620TIP3   OH253274   6.100   0.379   1.820  0.2523  0.3218 -0.0173
10620TIP3    H153275   6.033   0.406   1.883 -0.2945  0.5929 -0.7114
10620TIP3    H253276   6.158   0.322   1.871 -0.1360  0.5995  0.7562
10621TIP3   OH253277   3.452   4.551  10.455  0.9544 -0.1762 -0.2382
10621TIP3    H153278   3.395   4.628  10.448  0.2483 -0.6498  0.2239
10621TIP3    H253279   3.506   4.554  10.376  1.1853  0.9900 -0.0606
10622TIP3   OH253280   5.207   0.240  16.408  0.7301 -0.0208 -0.1471
10622TIP3    H153281   5.217   0.255  16.314  2.3707 -0.2692 -0.0412
10622TIP3    H253282   5.272   0.173  16.429 -0.3321 -0.7280  0.9909
10623TIP3   OH253283   2.354   5.155   0.971  0.0464 -0.7558 -0.3845
10623TIP3    H153284   2.446   5.129   0.961 -0.0869 -1.5046  0.3110
10623TIP3    H253285   2.319   5.095   1.037 -0.1070  1.5859  1.7867
10624TIP3   OH253286   5.397   0.054  12.249  0.6161  0.7111 -0.1170
10624TIP3    H153287   5.310   0.025  12.275  0.4452  2.1078  0.9490
10624TIP3    H253288   5.416   0.003  12.169 -0.6470 -0.4867  0.3065
10625TIP3   OH253289   3.456   1.165  12.766  0.1642 -0.1745 -0.7747
10625TIP3    H153290   3.484   1.256  12.754 -3.0452  1.2503  1.1657
10625TIP3    H253291   3.443   1.156  12.861 -1.2362 -2.0735 -1.0850
10626TIP3   OH253292   2.673   3.962   1.549 -0.3825 -0.2598  0.6576
10626TIP3    H153293   2.736   4.027   1.518 -0.8547 -0.7751 -1.5813
10626TIP3    H253294   2.727   3.888   1.579  0.1049  0.0201  0.4853
10627TIP3   OH253295   3.101   1.932   5.969  1.2450  0.7763 -0.3466
10627TIP3    H153296   3.116   1.943   6.063  0.1441  0.1104 -0.0772
10627TIP3    H253297   3.119   2.018   5.932  0.7826  1.3011  0.6054
10628TIP3   OH253298   6.195   4.054   5.181  0.3741 -0.2459 -0.5205
10628TIP3    H153299   6.136   3.982   5.159  0.1550 -0.2720  0.1244
10628TIP3    H253300   6.251   4.064   5.105 -0.3113 -0.3781 -1.0498
10629TIP3   OH253301   1.733   1.631  16.102  0.0498 -1.0822  0.3601
10629TIP3    H153302   1.798   1.688  16.061 -0.5997 -0.8814 -0.4111
10629TIP3    H253303   1.720   1.559  16.039 -1.2387 -0.5703 -0.0054
10630TIP3   OH253304   0.553   5.817  11.672  0.2019  0.6690  0.0332
10630TIP3    H153305   0.589   5.729  11.659  3.5829  1.3560  3.0104
10630TIP3    H253306   0.495   5.808  11.748 -1.2501  0.6564 -1.0522
10631TIP3   OH253307   5.779   2.970   0.181  0.0724  0.2121  0.2212
10631TIP3    H153308   5.824   3.052   0.159  0.2594  0.2203  0.6158
10631TIP3    H253309   5.726   2.951   0.105 -0.9214  1.3438  0.5925
10632TIP3   OH253310   2.885   3.702   1.147 -0.6181  0.3734 -0.8381
10632TIP3    H153311   2.832   3.676   1.223 -1.7260  1.8738 -1.0615
10632TIP3    H253312   2.882   3.626   1.089  1.3060 -1.3203  1.0913
10633TIP3   OH253313   1.064   6.581   1.803  0.1686  0.1702  0.1986
10633TIP3    H153314   1.058   6.593   1.898 -1.0248 -0.3138  0.2119
10633TIP3    H253315   1.156   6.561   1.787  0.1986 -0.8053  1.3936
10634TIP3   OH253316   1.952   4.153  17.231  0.2152  0.0404  0.2271
10634TIP3    H153317   1.913   4.213  17.295  1.6042  0.8364  0.3617
10634TIP3    H253318   2.039   4.189  17.215  0.1520 -0.5456 -1.5933
10635TIP3   OH253319   3.653   3.371   3.744  0.0456 -0.0968  0.5215
10635TIP3    H153320   3.671   3.391   3.652 -0.4553 -0.2305  0.3950
10635TIP3    H253321   3.676   3.452   3.790 -0.9567  0.4303  0.1256
10636TIP3   OH253322   5.317   0.195  15.611 -0.2741  0.8669 -0.4358
10636TIP3    H153323   5.252   0.216  15.678 -0.6224  1.7618 -1.0367
10636TIP3    H253324   5.292   0.248  15.536 -0.9093 -1.3541 -1.8907
10637TIP3   OH253325   1.387   1.300   0.313 -0.0904  0.0197  0.6712
10637TIP3    H153326   1.297   1.286   0.282  0.0485 -0.6466  0.5461
10637TIP3    H253327   1.437   1.230   0.271  0.5672  0.6389  0.4109
10638TIP3   OH253328   5.504   2.652  14.100 -0.3142  0.3108  0.8881
10638TIP3    H153329   5.417   2.658  14.140 -0.2418  0.9820  0.9499
10638TIP3    H253330   5.557   2.607  14.165 -0.4132  0.6308  1.1930
10639TIP3   OH253331   6.025   5.362  14.319  1.0040  0.1361 -0.3040
10639TIP3    H153332   5.945   5.403  14.350  0.9267 -0.4561  0.2837
10639TIP3    H253333   6.064   5.428  14.260  0.3058  0.5855 -0.2738
10640TIP3   OH253334   5.089   3.180  13.527 -0.2805 -0.0751 -0.1589
10640TIP3    H153335   5.099   3.267  13.566 -1.5271 -0.1415  0.3627
10640TIP3    H253336   5.174   3.161  13.488  0.4045  0.8416  0.8363
10641TIP3   OH253337   1.369   1.369  12.346  0.5781  0.2306  0.6611
10641TIP3    H153338   1.340   1.279  12.364  1.7573 -0.4331 -0.6024
10641TIP3    H253339   1.399   1.401  12.431 -1.2703  0.0206  1.4613
10642TIP3   OH253340   3.647   1.355   3.594 -0.0248 -0.0781  0.4853
10642TIP3    H153341   3.702   1.276   3.594  0.2855  0.1025 -0.9130
10642TIP3    H253342   3.619   1.365   3.685  2.0759 -0.3223  1.2303
10643TIP3   OH253343   3.810   5.652  12.884 -0.3993 -0.5025  0.1121
10643TIP3    H153344   3.792   5.642  12.978 -2.1572  1.4337  0.0655
10643TIP3    H253345   3.887   5.709  12.881  0.3282 -1.4582  0.3614
10644TIP3   OH253346   4.890   0.792   0.768  0.0163  0.6287 -0.1270
10644TIP3    H153347   4.800   0.815   0.789 -0.7964 -1.3693 -1.0776
10644TIP3    H253348   4.933   0.782   0.853 -1.2091 -0.3149  0.4143
10645TIP3   OH253349   5.656   2.610  16.775 -0.1320  0.4539 -0.1236
10645TIP3    H153350   5.692   2.695  16.801  1.0906 -0.1735  0.2774
10645TIP3    H253351   5.616   2.627  16.690  0.3139  1.3806 -0.1653
10646TIP3   OH253352   3.432   5.737  13.176  0.4216 -0.3462  0.5666
10646TIP3    H153353   3.395   5.654  13.206  0.3404 -0.6557 -0.3577
10646TIP3    H253354   3.513   5.713  13.132 -0.6337 -0.1978 -1.5712
10647TIP3   OH253355   1.862   2.254   3.206  0.0638 -0.0179  0.8571
10647TIP3    H153356   1.800   2.321   3.178  0.5414 -0.1422 -0.5683
10647TIP3    H253357   1.948   2.290   3.185  0.3130 -1.2956 -0.5502
10648TIP3   OH253358   1.535   4.549   6.579  0.3347 -0.2267  0.1160
10648TIP3    H153359   1.475   4.542   6.506  1.4370  0.2113 -0.8611
10648TIP3    H253360   1.496   4.495   6.648 -0.8030 -0.5019 -0.7247
10649TIP3   OH253361   5.388   0.059   6.210  0.6159 -0.4216  0.0548
10649TIP3    H153362   5.426   0.061   6.298  0.5156  1.0023  0.0926
10649TIP3    H253363   5.377   0.151   6.187 -2.1954 -0.7552 -0.2444
10650TIP3   OH253364   3.830   0.528  16.635  0.3018  0.2402 -0.3947
10650TIP3    H153365   3.759   0.494  16.582 -0.0224  1.4032 -0.7346
10650TIP3    H253366   3.827   0.623  16.621  1.4216  0.3789  0.1959
10651TIP3   OH253367   0.866   5.361  16.996 -0.0262 -0.4803  0.4776
10651TIP3    H153368   0.902   5.305  16.927 -2.1032 -1.1282 -0.1453
10651TIP3    H253369   0.782   5.321  17.019 -2.1384  2.8015 -0.7085
10652TIP3   OH253370   1.087   2.505  14.597 -0.0470  0.1284 -0.3514
10652TIP3    H153371   1.036   2.585  14.612  1.3337  1.0022 -0.2144
10652TIP3    H253372   1.042   2.438  14.650  0.2953  1.4038  1.6543
10653TIP3   OH253373   5.719   4.037  11.535 -0.6054  0.3481  0.0407
10653TIP3    H153374   5.772   4.114  11.514  1.8653 -0.9314  1.1303
10653TIP3    H253375   5.723   3.983  11.456 -0.7270  0.4856 -0.0600
10654TIP3   OH253376   2.713   4.787  12.091  0.6577 -0.1344  0.0269
10654TIP3    H153377   2.722   4.853  12.160 -2.6914  0.2535  0.2413
10654TIP3    H253378   2.641   4.731  12.120  0.3125 -1.0276 -2.3487
10655TIP3   OH253379   0.467   1.965  11.360 -0.4552 -0.0265  0.3056
10655TIP3    H153380   0.435   2.035  11.302 -1.0295 -0.2068  0.3983
10655TIP3    H253381   0.426   1.885  11.326 -1.6332  0.0036  1.5566
10656TIP3   OH253382   3.227   3.610  16.408  0.0518 -0.0920  0.4100
10656TIP3    H153383   3.298   3.575  16.354  0.7099 -1.0028  1.8158
10656TIP3    H253384   3.268   3.629  16.492 -0.8189  1.8405  0.4560
10657TIP3   OH253385   0.018   3.268  17.144 -0.3127 -0.7406  0.3039
10657TIP3    H153386   0.080   3.272  17.071  0.2466 -1.1920  0.7443
10657TIP3    H253387   0.028   3.179  17.179 -0.0043 -0.2800  1.4203
10658TIP3   OH253388   3.758   3.550  16.905  0.1015  0.1546  0.4635
10658TIP3    H153389   3.754   3.586  16.993  0.7444  1.0044  0.1612
10658TIP3    H253390   3.839   3.498  16.904 -0.0481 -0.0806  0.4545
10659TIP3   OH253391   6.306   1.346   0.427 -0.2746 -0.6396  0.2486
10659TIP3    H153392   6.393   1.359   0.389 -1.6626  1.5707 -2.5232
10659TIP3    H253393   6.252   1.314   0.355 -2.2214 -0.0282  1.3528
10660TIP3   OH253394   3.154   6.592  15.877  0.3450  0.4627 -0.5482
10660TIP3    H153395   3.191   6.664  15.929  0.3482 -0.7757  1.2628
10660TIP3    H253396   3.078   6.563  15.927  0.7317 -1.2042 -0.8566
10661TIP3   OH253397   3.751   0.753   5.224 -0.8543 -0.4635 -1.0501
10661TIP3    H153398   3.746   0.848   5.213 -0.4025 -0.1061  1.3155
10661TIP3    H253399   3.716   0.717   5.142 -2.8931  1.7451 -1.2489
10662TIP3   OH253400   2.621   6.483  13.460  0.4360 -0.2216  0.1825
10662TIP3    H153401   2.551   6.425  13.431  0.0843 -0.3351  1.2283
10662TIP3    H253402   2.699   6.453  13.412 -0.4297  0.6347 -1.8846
10663TIP3   OH253403   5.247   5.777   5.070  0.0486  0.2739  0.5411
10663TIP3    H153404   5.317   5.755   5.008 -0.8431  0.3664 -0.5470
10663TIP3    H253405   5.242   5.702   5.129  0.9966  0.2319  0.5747
10664TIP3   OH253406   2.568   2.135   2.878  0.4140 -0.1137 -0.1767
10664TIP3    H153407   2.615   2.074   2.935 -1.2523  1.2873  2.9428
10664TIP3    H253408   2.484   2.092   2.862  0.5310 -0.0934 -0.8944
10665TIP3   OH253409   0.390   5.921  14.661 -0.2190  0.2957  0.2927
10665TIP3    H153410   0.481   5.946  14.649 -0.1488 -0.2697 -0.4360
10665TIP3    H253411   0.382   5.901  14.754  0.5904 -0.3703  0.2305
10666TIP3   OH253412   0.656   0.218   1.545 -0.3139  0.0054 -1.0656
10666TIP3    H153413   0.698   0.231   1.459 -0.9092  0.3102 -1.3212
10666TIP3    H253414   0.636   0.125   1.547 -0.9308  0.1176 -1.5679
10667TIP3   OH253415   6.034   4.638  12.629  0.0448  0.3038  0.3379
10667TIP3    H153416   6.093   4.611  12.699  0.0729 -1.3378 -0.2833
10667TIP3    H253417   5.946   4.622  12.664  0.0766 -2.2430 -0.5973
10668TIP3   OH253418   0.954   0.749   4.616  0.1119  0.2538 -0.5060
10668TIP3    H153419   0.994   0.677   4.666 -0.4904  0.1855 -0.1160
10668TIP3    H253420   1.016   0.821   4.626 -0.9779  0.9447  2.2035
10669TIP3   OH253421   1.215   4.193   4.194 -0.5801  0.4740  0.3833
10669TIP3    H153422   1.149   4.130   4.164 -0.5785  0.7107 -0.1231
10669TIP3    H253423   1.285   4.186   4.129 -1.2672  2.1391 -0.5831
10670TIP3   OH253424   3.528   2.468   0.845 -0.3482  0.3140  0.1305
10670TIP3    H153425   3.580   2.424   0.912 -1.0826 -2.0298 -0.7181
10670TIP3    H253426   3.437   2.454   0.872 -0.6344  2.7736  0.6480
10671TIP3   OH253427   1.507   4.972  15.473 -0.3092  0.6226 -0.1415
10671TIP3    H153428   1.592   5.000  15.438 -0.1420 -2.8198 -2.9994
10671TIP3    H253429   1.523   4.884  15.507 -2.8582 -0.6370 -1.8674
10672TIP3   OH253430   0.742   6.252   5.816  0.0710 -0.0759  0.0386
10672TIP3    H153431   0.674   6.312   5.786  1.2203  1.1096 -0.2750
10672TIP3    H253432   0.750   6.270   5.910 -0.1528 -0.3385  0.1103
10673TIP3   OH253433   2.241   1.222  16.128 -0.5545 -0.4626  0.6612
10673TIP3    H153434   2.324   1.197  16.169 -0.5507 -1.5606  0.0236
10673TIP3    H253435   2.250   1.316  16.111  0.9401 -0.7243 -0.2203
10674TIP3   OH253436   4.915   4.656   4.021 -0.1509  0.0480  0.1597
10674TIP3    H153437   4.944   4.689   4.106  0.6000 -0.3277  0.0563
10674TIP3    H253438   4.913   4.561   4.030  0.1742 -0.0119 -0.3051
10675TIP3   OH253439   2.799   3.217   2.427  0.0795 -0.1172 -0.8537
10675TIP3    H153440   2.731   3.262   2.378  0.4147  2.3095  0.7462
10675TIP3    H253441   2.839   3.285   2.481  0.8572 -2.2676  1.4979
10676TIP3   OH253442   1.974   2.413   2.865  0.4238 -0.1626  0.0505
10676TIP3    H153443   1.937   2.492   2.826  0.9797  0.1765  0.1966
10676TIP3    H253444   2.019   2.369   2.792 -1.8327 -1.5668 -0.5754
10677TIP3   OH253445   3.319   2.105   2.091  0.6982 -0.2285 -0.4186
10677TIP3    H153446   3.245   2.078   2.037  1.5339 -3.2399 -0.2492
10677TIP3    H253447   3.280   2.132   2.174 -0.2652 -0.6476 -0.7219
10678TIP3   OH253448   6.363   1.982   4.005 -0.1978 -0.2238  0.0737
10678TIP3    H153449   6.299   1.992   3.934 -2.0098 -0.7327  1.5548
10678TIP3    H253450   6.403   1.897   3.989  0.8704  0.5238 -1.4229
10679TIP3   OH253451   5.540   2.653  13.653  0.1539  0.3915 -0.0832
10679TIP3    H153452   5.528   2.714  13.726  0.3851 -1.4722  1.5964
10679TIP3    H253453   5.456   2.609  13.644  0.3034  0.1963 -0.5723
10680TIP3   OH253454   2.550   3.280   2.928 -0.3000 -0.4573  0.5899
10680TIP3    H153455   2.464   3.242   2.939 -0.5351 -0.1849 -0.1820
10680TIP3    H253456   2.609   3.206   2.918 -0.4465 -0.6433  1.1231
10681TIP3   OH253457   0.551   4.825  12.033  0.1358  0.3375 -0.2917
10681TIP3    H153458   0.587   4.913  12.045  1.2133 -0.2490  1.1517
10681TIP3    H253459   0.473   4.822  12.089  0.4813  0.1899  0.1950
10682TIP3   OH253460   5.057   6.150  13.978 -0.0495  0.5148 -0.5221
10682TIP3    H153461   5.009   6.211  14.035  1.3192  0.8987  0.2732
10682TIP3    H253462   5.144   6.189  13.970  0.5239 -0.7901 -0.9019
10683TIP3   OH253463   1.642   2.801  15.988 -0.2167 -0.5018  0.0186
10683TIP3    H153464   1.732   2.823  15.964 -0.4806  0.7181  0.0343
10683TIP3    H253465   1.632   2.837  16.077 -0.4461 -1.4367  0.3775
10684TIP3   OH253466   3.366   5.021   3.639  0.4555  0.2079 -0.5765
10684TIP3    H153467   3.275   5.048   3.636  0.2012 -0.4788  0.4897
10684TIP3    H253468   3.410   5.086   3.694  0.6830  0.7105 -1.3387
10685TIP3   OH253469   0.327   5.129  13.096 -0.0258 -0.1603  0.3546
10685TIP3    H153470   0.253   5.076  13.125  0.5263 -0.8501  0.5237
10685TIP3    H253471   0.388   5.066  13.058  1.4206  0.0904  2.1100
10686TIP3   OH253472   2.542   5.645  13.532  0.2124  0.8571 -0.0493
10686TIP3    H153473   2.539   5.740  13.520  0.4415  0.8272 -0.3767
10686TIP3    H253474   2.452   5.616  13.521  0.1325  1.0438  0.1130
10687TIP3   OH253475   3.892   2.317   0.377  0.3377 -0.0984  0.2185
10687TIP3    H153476   3.968   2.289   0.327 -0.5541 -1.1341 -0.6108
10687TIP3    H253477   3.875   2.406   0.347  1.3733  0.2504  0.6258
10688TIP3   OH253478   3.789   5.058   1.365 -0.5310 -0.7799 -0.2598
10688TIP3    H153479   3.715   5.021   1.318  0.1442 -3.1683  0.4167
10688TIP3    H253480   3.866   5.029   1.316  0.0924 -1.6135  1.1551
10689TIP3   OH253481   2.018   5.710  16.223  0.2133  0.3706  0.0049
10689TIP3    H153482   1.938   5.741  16.267 -0.0043 -1.1717  0.7528
10689TIP3    H253483   2.086   5.769  16.255 -0.7451  2.4126 -1.4851
10690TIP3   OH253484   5.988   6.497   4.355 -0.3032  0.5368  0.4972
10690TIP3    H153485   5.971   6.585   4.321  1.0146  0.3874 -0.6013
10690TIP3    H253486   5.982   6.507   4.450  0.2605  1.9110  0.4044
10691TIP3   OH253487   4.906   5.208  14.041  0.7903 -0.1813  0.5818
10691TIP3    H153488   4.925   5.248  14.126 -1.3137 -0.0598  1.0326
10691TIP3    H253489   4.827   5.156  14.055  0.9190 -0.8907 -1.0894
10692TIP3   OH253490   1.020   4.502   2.948 -0.1970 -0.1235 -0.0196
10692TIP3    H153491   0.967   4.432   2.909  0.0763  0.8927 -2.4513
10692TIP3    H253492   0.956   4.560   2.988 -0.6342 -0.5840 -0.0363
10693TIP3   OH253493   0.500   2.041   0.282 -0.0991  0.0192  0.1517
10693TIP3    H153494   0.566   1.972   0.280 -1.2068 -1.0568 -1.4742
10693TIP3    H253495   0.532   2.106   0.219 -0.8589 -0.8050 -1.1209
10694TIP3   OH253496   2.020   2.894  12.431 -0.3990  0.0932 -0.2421
10694TIP3    H153497   1.998   2.803  12.453 -0.4158  0.3334  0.8236
10694TIP3    H253498   1.941   2.943  12.451 -0.0189  0.4910  0.3230
10695TIP3   OH253499   2.077   5.625   4.664  0.3141  0.3048  0.4377
10695TIP3    H153500   2.075   5.713   4.700 -0.7703 -0.1222  1.4871
10695TIP3    H253501   2.108   5.570   4.736 -0.5726 -0.3742  0.3220
10696TIP3   OH253502   3.160   5.212   0.965 -0.4738  0.9562  0.4468
10696TIP3    H153503   3.104   5.286   0.990 -0.2526  0.6717  1.8105
10696TIP3    H253504   3.108   5.135   0.987 -0.4413  0.6891 -0.3787
10697TIP3   OH253505   0.526   2.872  11.470  0.2563  0.4703  0.4902
10697TIP3    H153506   0.536   2.911  11.557 -0.4017  0.7606  0.4392
10697TIP3    H253507   0.615   2.847  11.445  0.6881  1.8385  0.5619
10698TIP3   OH253508   2.973   0.371  14.416  0.1776  0.0420 -0.3901
10698TIP3    H153509   2.999   0.310  14.347  0.2217  0.2983 -0.6039
10698TIP3    H253510   2.920   0.319  14.476 -0.0960 -0.1194 -0.7668
10699TIP3   OH253511   6.419   3.044  13.991  0.1906 -0.0748 -0.3008
10699TIP3    H153512   6.385   3.057  14.079 -0.5602  0.4920 -0.6540
10699TIP3    H253513   6.450   2.954  13.989  0.1637 -0.1054  0.5199
10700TIP3   OH253514   1.226   3.450  13.640  0.0095  0.0302  0.2728
10700TIP3    H153515   1.294   3.470  13.704 -0.0924  0.6233  0.2061
10700TIP3    H253516   1.273   3.417  13.563  0.1526 -0.3920  0.5401
10701TIP3   OH253517   0.349   5.133  13.779 -0.3743  0.3800 -0.1361
10701TIP3    H153518   0.433   5.169  13.749  0.0908 -1.5783 -1.4421
10701TIP3    H253519   0.316   5.197  13.841  2.1725  1.1628  0.5626
10702TIP3   OH253520   5.331   1.033  15.394  0.4939  0.1911  0.4803
10702TIP3    H153521   5.405   1.016  15.335  0.0449 -0.9078  0.2108
10702TIP3    H253522   5.371   1.063  15.475  1.1055  2.5832 -0.6042
10703TIP3   OH253523   0.393   2.651   4.060 -0.0176 -0.0719  0.6225
10703TIP3    H153524   0.443   2.576   4.093  2.2007  1.7460  1.6319
10703TIP3    H253525   0.321   2.611   4.011  0.1037 -2.8840  2.4581
10704TIP3   OH253526   4.658   1.484  15.625  0.2624  0.0342  0.8903
10704TIP3    H153527   4.594   1.449  15.563  0.5737  0.5512  0.2623
10704TIP3    H253528   4.663   1.577  15.604  1.9529 -0.1613  0.2420
10705TIP3   OH253529   4.066   5.277   1.338  0.1620  0.0906  0.1765
10705TIP3    H153530   4.053   5.369   1.359  0.8473  0.5675 -1.3515
10705TIP3    H253531   4.112   5.241   1.414  0.4694  1.1569  0.5092
10706TIP3   OH253532   5.332   1.794   3.861  0.4898 -0.0951 -0.3282
10706TIP3    H153533   5.285   1.769   3.940  2.9944 -1.0075  0.9605
10706TIP3    H253534   5.312   1.725   3.798  0.5229 -0.7547  0.3774
10707TIP3   OH253535   1.359   1.965  13.334  0.5294  0.4156 -0.1528
10707TIP3    H153536   1.415   2.002  13.402  0.6383  0.9894 -0.5520
10707TIP3    H253537   1.417   1.951  13.260  0.1294  1.1218 -0.6090
10708TIP3   OH253538   3.300   5.969   5.493  0.2788  0.1628 -0.0561
10708TIP3    H153539   3.223   6.002   5.447  0.3837  1.2585  0.5280
10708TIP3    H253540   3.302   6.016   5.576  1.1099 -0.4606  0.3016
10709TIP3   OH253541   2.660   0.639  16.814 -0.2963  0.2804  0.1934
10709TIP3    H153542   2.680   0.602  16.728 -0.5333 -0.1143  0.3058
10709TIP3    H253543   2.643   0.563  16.869  2.1522  0.3665  1.2101
10710TIP3   OH253544   0.650   4.746   3.332 -0.1673 -0.1925  0.6369
10710TIP3    H153545   0.577   4.749   3.394 -1.9597 -0.3627 -1.3783
10710TIP3    H253546   0.613   4.710   3.252  2.5342 -1.8280  0.0022
10711TIP3   OH253547   2.351   4.427  12.611  0.2451  0.0704 -0.1593
10711TIP3    H153548   2.327   4.431  12.703 -2.3550 -1.3152 -0.6754
10711TIP3    H253549   2.347   4.517  12.581 -2.1840  0.2208  0.4038
10712TIP3   OH253550   6.124   4.526   0.226 -0.3307  0.1944  0.4696
10712TIP3    H153551   6.049   4.582   0.247 -0.3417 -0.1079  1.2812
10712TIP3    H253552   6.088   4.459   0.168 -1.3078 -1.3884  2.7290
10713TIP3   OH253553   2.303   2.801   2.597 -1.2289 -0.4503 -0.1428
10713TIP3    H153554   2.379   2.781   2.543 -0.2831  0.0309  0.9666
10713TIP3    H253555   2.290   2.895   2.586 -1.5542 -0.4954 -0.1696
10714TIP3   OH253556   1.778   1.103   0.677 -0.4816 -0.2237 -0.0702
10714TIP3    H153557   1.737   1.139   0.756 -0.0717 -1.1672  0.5861
10714TIP3    H253558   1.774   1.008   0.689  0.6481 -0.3530 -0.6345
10715TIP3   OH253559   3.123   6.695  14.542 -0.2446 -0.3550 -0.0552
10715TIP3    H153560   3.079   6.677  14.625  0.1604  0.4137  0.3320
10715TIP3    H253561   3.216   6.680  14.561 -0.2145 -0.8558 -0.5613
10716TIP3   OH253562   6.731   0.284   0.406  0.1439 -0.0348  0.2392
10716TIP3    H153563   6.696   0.365   0.368  0.1101  0.6272  1.5963
10716TIP3    H253564   6.825   0.301   0.415  0.1835 -0.2638  0.2456
10717TIP3   OH253565   5.434   5.143   4.492 -0.8526 -0.6548  0.1475
10717TIP3    H153566   5.415   5.176   4.580 -2.2692  0.5860 -0.5700
10717TIP3    H253567   5.457   5.051   4.505  0.1985 -0.1854  1.9313
10718TIP3   OH253568   1.375   0.021  16.229  0.1972  0.4864  0.1667
10718TIP3    H153569   1.406   0.022  16.319  1.3678  2.5833 -0.1884
10718TIP3    H253570   1.382   0.112  16.201  0.1196 -0.1662 -2.1399
10719TIP3   OH253571   3.593   1.860   5.360  0.5707 -0.2224  1.0167
10719TIP3    H153572   3.555   1.930   5.308  0.4952 -1.0432 -0.0622
10719TIP3    H253573   3.677   1.895   5.389  0.8899  0.0348 -0.1685
10720TIP3   OH253574   6.202   0.215  13.946  0.2110 -0.3422  0.0685
10720TIP3    H153575   6.238   0.277  14.009  0.0105  0.8915 -1.0016
10720TIP3    H253576   6.107   0.218  13.961  0.2049 -0.4147  0.0446
10721TIP3   OH253577   2.495   4.580   4.538 -0.0921 -0.8460 -0.4859
10721TIP3    H153578   2.437   4.508   4.513 -0.3856 -0.5263 -0.7305
10721TIP3    H253579   2.518   4.623   4.456 -0.3982 -0.2980 -0.2941
10722TIP3   OH253580   2.495   0.482  15.438  0.3096  0.3435  0.4117
10722TIP3    H153581   2.528   0.392  15.431 -1.3091 -0.3358  0.9655
10722TIP3    H253582   2.468   0.504  15.349 -0.6472 -0.2904  0.5319
10723TIP3   OH253583   4.013   1.403  11.413  0.3636  0.1570 -0.1529
10723TIP3    H153584   4.068   1.457  11.355 -2.4677  2.4524 -0.9484
10723TIP3    H253585   3.981   1.333  11.357  1.1791 -0.2482 -0.1218
10724TIP3   OH253586   5.724   2.846  13.551 -0.6547 -0.0196 -0.3381
10724TIP3    H153587   5.673   2.905  13.495 -0.5498 -0.3378 -0.7736
10724TIP3    H253588   5.668   2.770  13.564 -0.9470  0.3449  0.5562
10725TIP3   OH253589   1.575   3.841   4.049 -0.2306 -0.3471  0.0217
10725TIP3    H153590   1.653   3.787   4.063 -0.3300 -0.4054  0.3611
10725TIP3    H253591   1.609   3.927   4.027 -0.0698 -0.4769 -0.2385
10726TIP3   OH253592   2.970   0.657   1.723  0.0676  0.4391 -0.8500
10726TIP3    H153593   2.950   0.570   1.689 -1.7447  0.4439  0.1300
10726TIP3    H253594   3.022   0.640   1.801 -2.9872 -0.0128  1.2468
10727TIP3   OH253595   2.840   2.034  16.745 -0.0329  0.2364 -0.2968
10727TIP3    H153596   2.923   2.079  16.734  1.1698 -1.5926  0.7999
10727TIP3    H253597   2.802   2.031  16.657  2.6069 -1.7271 -1.4804
10728TIP3   OH253598   1.191   4.329   0.644 -0.1165 -0.0266  0.1637
10728TIP3    H153599   1.167   4.239   0.622  0.9963 -0.2022 -0.3875
10728TIP3    H253600   1.107   4.376   0.647 -0.6279 -0.8632 -0.5172
10729TIP3   OH253601   0.537   0.956   0.357  0.1081  0.2080  0.1178
10729TIP3    H153602   0.516   0.866   0.332 -1.6390  0.8835 -1.0020
10729TIP3    H253603   0.579   0.993   0.279 -1.8918  1.2053 -0.5379
10730TIP3   OH253604   2.202   4.580  13.083  0.7321 -0.1362 -0.0091
10730TIP3    H153605   2.256   4.559  13.007 -0.4749 -0.1931 -0.8774
10730TIP3    H253606   2.121   4.532  13.069 -0.8425  2.4444 -0.3725
10731TIP3   OH253607   1.415   1.331   2.345  0.3575 -0.3589 -0.0155
10731TIP3    H153608   1.360   1.281   2.404  1.5066 -0.3714  1.0940
10731TIP3    H253609   1.412   1.421   2.379  0.5662 -0.2506 -0.2746
10732TIP3   OH253610   0.609   4.484  15.149  0.7350  0.3125 -0.2666
10732TIP3    H153611   0.616   4.573  15.113  0.3708  0.2889 -0.3910
10732TIP3    H253612   0.614   4.427  15.073 -0.7644  0.2862 -0.3678
10733TIP3   OH253613   3.976   3.971  14.018  0.0437  0.5237 -0.4403
10733TIP3    H153614   3.904   3.968  14.081  1.5319 -0.5460  1.3118
10733TIP3    H253615   3.948   4.035  13.952 -1.8516  1.2096  0.9519
10734TIP3   OH253616   4.524   3.692   5.185 -0.7523 -0.4387  0.4161
10734TIP3    H153617   4.476   3.755   5.132 -1.2871 -0.1722  1.1896
10734TIP3    H253618   4.459   3.658   5.246 -0.4644 -1.7220  0.0426
10735TIP3   OH253619   6.060   3.303  13.872 -0.4090  0.1771 -1.3100
10735TIP3    H153620   5.981   3.268  13.913 -1.6963  1.3138 -2.6801
10735TIP3    H253621   6.097   3.362  13.937 -0.3743 -0.7553 -0.4591
10736TIP3   OH253622   5.837   3.851  11.781 -0.0437 -0.0077 -0.8198
10736TIP3    H153623   5.798   3.792  11.716  0.9335 -0.9020 -0.6314
10736TIP3    H253624   5.808   3.816  11.865  0.0852  0.1207 -0.7223
10737TIP3   OH253625   0.992   6.187   3.389  0.4110 -0.5479  0.0109
10737TIP3    H153626   0.907   6.169   3.429  0.9163 -1.6146  0.6563
10737TIP3    H253627   0.974   6.190   3.295 -0.2237 -1.5394  0.0875
10738TIP3   OH253628   4.875   2.541  12.348  0.1502 -0.1476  0.0758
10738TIP3    H153629   4.822   2.461  12.354 -1.1811  0.7764  1.1715
10738TIP3    H253630   4.829   2.596  12.285  0.0553  0.4679  0.6669
10739TIP3   OH253631   4.404   2.474   2.854  0.3818 -0.0258 -0.1719
10739TIP3    H153632   4.398   2.406   2.921 -0.9658  0.3663  0.1407
10739TIP3    H253633   4.497   2.480   2.834  0.5011 -2.1692 -0.4369
10740TIP3   OH253634   3.541   5.806  14.337 -0.4070  0.8625 -0.1177
10740TIP3    H153635   3.608   5.868  14.365 -0.6234  1.2382 -0.4231
10740TIP3    H253636   3.585   5.722  14.335 -0.1538  0.9711  0.4803
10741TIP3   OH253637   5.560   1.407   5.596  0.1228  0.4795 -0.6167
10741TIP3    H153638   5.642   1.450   5.572  0.6487 -1.3769 -2.4685
10741TIP3    H253639   5.502   1.423   5.521 -0.5761  0.1823 -0.1529
10742TIP3   OH253640   3.118   4.289  13.702 -0.1342  0.9889  0.2192
10742TIP3    H153641   3.138   4.321  13.790  0.2058  0.7987  0.2174
10742TIP3    H253642   3.203   4.259  13.668  0.0032  2.3506 -0.7072
10743TIP3   OH253643   6.320   4.166  12.247  0.0763 -1.1517 -0.1010
10743TIP3    H153644   6.339   4.085  12.201  0.6634 -0.4795 -1.0936
10743TIP3    H253645   6.347   4.235  12.187  0.7375 -0.2251  1.1892
10744TIP3   OH253646   5.950   4.784   5.047  0.4401 -0.7768  0.1259
10744TIP3    H153647   6.005   4.707   5.032  1.7421  0.4383 -1.8026
10744TIP3    H253648   5.862   4.748   5.064  1.4288 -2.7106  1.5412
10745TIP3   OH253649   3.430   5.194  14.509 -0.3958  0.1899 -0.0381
10745TIP3    H153650   3.455   5.171  14.420 -2.3013  0.6434 -0.7381
10745TIP3    H253651   3.347   5.148  14.523 -0.9577  1.4342  0.8872
10746TIP3   OH253652   3.724   2.188   2.973  0.7091  0.3362  0.3241
10746TIP3    H153653   3.815   2.179   2.946  0.3639  0.0190 -0.7878
10746TIP3    H253654   3.696   2.099   2.993  0.4198  0.3260 -0.1098
10747TIP3   OH253655   5.894   5.499   4.942 -0.0042  0.3426 -0.7393
10747TIP3    H153656   5.965   5.550   4.905  0.2294  0.0467 -0.7018
10747TIP3    H253657   5.873   5.542   5.025 -1.5282  1.9064 -1.8597
10748TIP3   OH253658   4.785   0.995  13.842  0.1234 -0.0401  0.0623
10748TIP3    H153659   4.875   0.997  13.873 -0.8512  1.6020  3.1214
10748TIP3    H253660   4.772   1.080  13.801 -0.0426 -0.3449 -0.5437
10749TIP3   OH253661   1.029   1.208   3.600 -0.1589 -0.8637  0.4499
10749TIP3    H153662   1.086   1.155   3.656  2.1561  0.1141 -0.8220
10749TIP3    H253663   1.083   1.284   3.576 -1.8957 -0.0507 -1.1541
10750TIP3   OH253664   2.474   6.001   6.268  0.1621 -0.0915  0.3509
10750TIP3    H153665   2.428   6.002   6.184 -0.2186  0.2054  0.5606
10750TIP3    H253666   2.526   6.081   6.268  0.3877 -0.2391  0.2724
10751TIP3   OH253667   0.326   1.318   4.569  0.0487 -0.0348 -0.8336
10751TIP3    H153668   0.298   1.278   4.651  2.8313 -1.5040 -0.4866
10751TIP3    H253669   0.244   1.346   4.527 -1.5919 -0.8703  1.5614
10752TIP3   OH253670   4.809   6.423   3.840  0.1472 -0.5386 -0.5498
10752TIP3    H153671   4.888   6.420   3.893  1.1362 -1.1366 -1.9874
10752TIP3    H253672   4.737   6.419   3.903  1.2388  0.3864  0.8041
10753TIP3   OH253673   0.095   1.301  13.880  0.5181 -0.1693  0.1661
10753TIP3    H153674   0.040   1.379  13.879  1.2476  0.3769 -1.5558
10753TIP3    H253675   0.103   1.278  13.973 -0.5296  1.2064  0.6269
10754TIP3   OH253676   3.059   2.708  15.399 -0.3546 -0.2879  0.5146
10754TIP3    H153677   2.969   2.725  15.370  0.4067 -0.5727 -2.1867
10754TIP3    H253678   3.098   2.795  15.407  0.0259 -0.2377 -1.4907
10755TIP3   OH253679   5.469   2.155   5.106 -0.1815  0.0074  0.5280
10755TIP3    H153680   5.562   2.164   5.085 -0.0815 -1.0862  0.4315
10755TIP3    H253681   5.441   2.078   5.057 -1.0930  0.2097  0.7129
10756TIP3   OH253682   4.778   4.900   0.488  0.4046 -0.5803  0.5908
10756TIP3    H153683   4.832   4.975   0.513  1.5288 -1.3045  0.3786
10756TIP3    H253684   4.785   4.895   0.393 -0.3943 -0.4181  0.5186
10757TIP3   OH253685   3.146   1.863  16.728 -0.1694 -0.0956 -0.0330
10757TIP3    H153686   3.161   1.956  16.746  0.1880  0.0487 -1.0207
10757TIP3    H253687   3.102   1.862  16.643 -0.5715 -0.8136  0.1768
10758TIP3   OH253688   5.576   1.868   1.123  0.0234 -0.1942 -0.2831
10758TIP3    H153689   5.655   1.880   1.176  0.0834 -0.5258 -0.2959
10758TIP3    H253690   5.602   1.893   1.035 -0.3666  1.3922  0.0300
10759TIP3   OH253691   3.846   0.548   1.570 -0.0672 -0.2225  0.7814
10759TIP3    H153692   3.825   0.577   1.481  1.0992 -1.9585 -0.1203
10759TIP3    H253693   3.934   0.581   1.585  0.1316 -0.7899  0.8811
10760TIP3   OH253694   2.854   0.001  16.849  0.0369 -0.8294 -0.3038
10760TIP3    H153695   2.764  -0.027  16.866 -0.4761  1.0898  0.4916
10760TIP3    H253696   2.907  -0.048  16.911 -0.6227 -1.0246  0.1153
10761TIP3   OH253697   0.678   5.866  12.038 -0.1105 -0.1326 -0.5218
10761TIP3    H153698   0.737   5.877  12.113 -0.0100  2.0385 -0.8690
10761TIP3    H253699   0.695   5.941  11.982 -0.5438 -1.4379 -2.5287
10762TIP3   OH253700   2.076   5.506  11.422  0.1436 -0.1043  0.5060
10762TIP3    H153701   2.128   5.504  11.342 -0.5825  0.8157 -0.0096
10762TIP3    H253702   2.039   5.418  11.429 -1.2069  0.2776 -1.1562
10763TIP3   OH253703   3.677   1.470  10.783 -0.2996  0.2866  0.1662
10763TIP3    H153704   3.736   1.492  10.856  0.7096  0.3179 -0.6289
10763TIP3    H253705   3.729   1.489  10.704 -0.9376 -0.8624 -0.5580
10764TIP3   OH253706   3.345   3.068   1.791 -0.0917 -0.9199 -0.0009
10764TIP3    H153707   3.389   2.984   1.780  1.4065 -0.1076 -0.5365
10764TIP3    H253708   3.296   3.059   1.873  0.5584 -2.1012  0.2747
10765TIP3   OH253709   2.459   5.866   6.665 -0.0014 -0.3742  0.0191
10765TIP3    H153710   2.510   5.800   6.713 -1.7862 -0.2144  2.3081
10765TIP3    H253711   2.519   5.941   6.657  0.1414 -0.0567  2.9296
10766TIP3   OH253712   6.241   0.800  14.966 -0.4546  0.4956  0.3645
10766TIP3    H153713   6.241   0.873  14.903 -0.7859  1.5587  1.5491
10766TIP3    H253714   6.225   0.842  15.051  2.0677 -0.6310  1.4922
10767TIP3   OH253715   1.435   1.021   3.032 -0.3337 -0.4553  0.2119
10767TIP3    H153716   1.401   1.104   2.999  0.3561 -0.0791  0.4535
10767TIP3    H253717   1.419   0.959   2.960 -2.0530 -0.4272  0.5293
10768TIP3   OH253718   5.072   2.316   5.832  0.6888  0.1048  0.3345
10768TIP3    H153719   5.128   2.244   5.804  1.3816  0.9807 -0.5708
10768TIP3    H253720   4.991   2.273   5.861  1.0319 -1.0220 -0.3240
10769TIP3   OH253721   0.557   5.691  16.506 -0.0272  0.5522  0.0250
10769TIP3    H153722   0.634   5.748  16.507 -0.6522  1.4174 -0.0223
10769TIP3    H253723   0.593   5.603  16.516  1.1248  0.7549 -1.7622
10770TIP3   OH253724   5.539   1.452   3.979 -0.2592 -0.2781  0.0905
10770TIP3    H153725   5.491   1.419   3.903 -0.4547 -1.7753  0.8313
10770TIP3    H253726   5.631   1.445   3.954 -0.3332  1.4682 -0.8704
10771TIP3   OH253727   4.403   1.341   2.521 -0.4717 -0.4156  0.1110
10771TIP3    H153728   4.334   1.294   2.569 -0.2167 -0.6388  0.2600
10771TIP3    H253729   4.451   1.389   2.588  0.8739 -1.9645  0.3191
10772TIP3   OH253730   2.774   1.217  16.105 -0.5857  0.0746 -0.3615
10772TIP3    H153731   2.853   1.251  16.149 -0.9520  1.4435 -0.7084
10772TIP3    H253732   2.799   1.130  16.075  0.3041 -0.1164  0.8493
10773TIP3   OH253733   1.736   4.362   0.879 -0.5646 -0.6133  0.5909
10773TIP3    H153734   1.650   4.325   0.859  0.5425 -1.9644 -2.2885
10773TIP3    H253735   1.797   4.293   0.854  1.4161  0.7982  1.3331
10774TIP3   OH253736   4.109   0.519  17.258  0.6587 -0.2373  0.0583
10774TIP3    H153737   4.194   0.487  17.229 -0.4637 -3.7983  0.1457
10774TIP3    H253738   4.046   0.467  17.208 -1.4225  0.5301  1.7248
10775TIP3   OH253739   3.128   6.062  14.437 -0.3259 -0.1179  0.1349
10775TIP3    H153740   3.112   6.119  14.513  1.9412  0.6966  0.0971
10775TIP3    H253741   3.153   6.123  14.367 -2.5680 -0.8399 -1.3770
10776TIP3   OH253742   4.188   0.884   1.115 -0.1886 -0.1017  0.2593
10776TIP3    H153743   4.228   0.967   1.087  1.0419 -0.5038  0.7486
10776TIP3    H253744   4.122   0.866   1.048  0.9052  0.2650 -0.9606
10777TIP3   OH253745   0.492   5.846   0.089 -0.1203  0.6621 -0.1531
10777TIP3    H153746   0.398   5.830   0.082  0.0723 -0.5777 -0.1515
10777TIP3    H253747   0.501   5.906   0.164 -0.8508  0.0839  0.4121
10778TIP3   OH253748   3.408   0.678  12.083 -0.0743 -0.1500 -0.2321
10778TIP3    H153749   3.462   0.599  12.085  1.1015  0.6225  1.7450
10778TIP3    H253750   3.382   0.692  12.174 -2.6853  0.1979 -0.9437
10779TIP3   OH253751   5.111   1.640  14.873  0.0820 -0.2076  0.4407
10779TIP3    H153752   5.025   1.680  14.889  0.1294  0.1255 -0.0831
10779TIP3    H253753   5.127   1.585  14.949 -0.2980  0.2541  0.8646
10780TIP3   OH253754   0.339   1.824   3.830  0.4045  0.9209 -0.3657
10780TIP3    H153755   0.312   1.847   3.919 -1.0410  0.2466 -0.6058
10780TIP3    H253756   0.434   1.832   3.831  0.6898 -1.6070  1.9738
10781TIP3   OH253757   2.313   4.904  16.105  0.2371  0.4565 -0.4813
10781TIP3    H153758   2.379   4.919  16.038 -0.5072  0.3346 -1.2508
10781TIP3    H253759   2.291   4.991  16.137  0.8594  0.4905 -0.1139
10782TIP3   OH253760   0.361   2.164   2.746 -0.5119  0.1556  0.3974
10782TIP3    H153761   0.418   2.204   2.679  1.2294 -0.2635  1.5544
10782TIP3    H253762   0.419   2.103   2.792 -0.9882  2.0780  3.7980
10783TIP3   OH253763   6.207   2.488  11.622 -0.0644  0.3664  0.0740
10783TIP3    H153764   6.173   2.469  11.534 -1.5024  0.0311  0.6831
10783TIP3    H253765   6.185   2.579  11.637 -1.4192 -0.0470  0.7571
10784TIP3   OH253766   3.810   2.873  13.479  0.8892 -0.2399  0.3637
10784TIP3    H153767   3.848   2.873  13.391  0.6495  0.8633  0.2423
10784TIP3    H253768   3.718   2.850  13.465  0.8488 -0.0546  0.3225
10785TIP3   OH253769   2.540   0.100   5.505  0.1980 -0.0724  0.6969
10785TIP3    H153770   2.469   0.094   5.568 -0.4899 -0.9297 -0.1318
10785TIP3    H253771   2.567   0.009   5.490 -0.6548 -0.0514 -1.3243
10786TIP3   OH253772   2.205   6.220   5.865  0.0011 -0.2150 -0.0384
10786TIP3    H153773   2.299   6.232   5.851  0.1094  0.0106  0.8209
10786TIP3    H253774   2.166   6.304   5.840  0.3206  0.6067  2.0220
10787TIP3   OH253775   3.544   6.514   0.928  0.4902 -0.6585  0.8100
10787TIP3    H153776   3.637   6.501   0.912  0.3850 -0.5697  0.0626
10787TIP3    H253777   3.538   6.545   1.018  1.0517 -2.1220  1.3716
10788TIP3   OH253778   2.188   2.245  12.685  0.1414  0.3612 -0.3164
10788TIP3    H153779   2.260   2.208  12.635 -1.8432 -0.7472 -2.5374
10788TIP3    H253780   2.110   2.227  12.632 -1.6141  2.8381  1.2215
10789TIP3   OH253781   3.036   4.933  13.518 -0.1126 -0.1557  0.0817
10789TIP3    H153782   3.092   4.879  13.574  0.9269  0.2562 -0.5292
10789TIP3    H253783   3.096   4.995  13.476 -0.5723 -1.3798 -2.6269
10790TIP3   OH253784   4.866   1.038  16.324 -0.0685 -0.2590 -0.3819
10790TIP3    H153785   4.784   1.030  16.276 -0.7117 -1.5165  0.8340
10790TIP3    H253786   4.929   1.072  16.260 -1.0326 -1.2114 -1.8982
10791TIP3   OH253787   1.454   6.182  13.994 -0.5040 -0.5210 -0.0338
10791TIP3    H153788   1.487   6.269  13.970 -0.9738 -0.6853 -1.3106
10791TIP3    H253789   1.533   6.127  13.997 -0.6015 -1.1567 -4.0995
10792TIP3   OH253790   4.113   0.281   2.711 -0.7497 -0.1851 -0.0883
10792TIP3    H153791   4.027   0.253   2.680 -1.3065  0.9753  0.3656
10792TIP3    H253792   4.120   0.372   2.684  0.6077 -0.4261 -0.6471
10793TIP3   OH253793   4.403   0.711   0.951 -0.3311 -0.0285 -0.4720
10793TIP3    H153794   4.464   0.637   0.946 -1.2048 -0.6858 -2.9107
10793TIP3    H253795   4.317   0.671   0.963 -0.7805  0.5728 -1.5057
10794TIP3   OH253796   3.106   0.262   4.245  0.4708  0.0578 -0.0970
10794TIP3    H153797   3.027   0.303   4.209 -0.1225 -0.3634  0.7042
10794TIP3    H253798   3.085   0.169   4.249  1.5285 -0.2503 -1.1783
10795TIP3   OH253799   3.851   0.898  13.929  0.1601 -0.4335  0.6339
10795TIP3    H153800   3.837   0.987  13.962  1.0417 -0.7290  1.9155
10795TIP3    H253801   3.772   0.850  13.956  0.2322 -0.3196  1.0642
10796TIP3   OH253802   5.216   6.695   2.389 -0.0175  0.0299 -0.4685
10796TIP3    H153803   5.220   6.789   2.371  1.1081 -0.4355 -3.1380
10796TIP3    H253804   5.291   6.678   2.446  1.4592  0.3879 -2.2171
10797TIP3   OH253805   2.120   6.730  13.244  0.2465  0.4001 -0.5319
10797TIP3    H153806   2.079   6.670  13.306 -0.6108  0.1342 -1.3259
10797TIP3    H253807   2.079   6.815  13.262 -1.3535 -0.0187 -1.8562
10798TIP3   OH253808   1.159   5.180   1.120  0.2380  0.4733 -0.0741
10798TIP3    H153809   1.171   5.147   1.032 -0.8693  0.4207 -0.2229
10798TIP3    H253810   1.187   5.271   1.116  2.8642 -0.2512  0.2301
10799TIP3   OH253811   5.913   3.174   3.853  0.1643  0.3057 -0.8863
10799TIP3    H153812   5.936   3.094   3.806 -1.0857 -0.6871  0.1202
10799TIP3    H253813   5.842   3.148   3.912 -0.0035  2.0708 -0.2436
10800TIP3   OH253814   6.617   2.734   1.885 -0.1082 -0.0301 -0.2391
10800TIP3    H153815   6.642   2.661   1.829  1.7448  1.3137 -1.3029
10800TIP3    H253816   6.689   2.742   1.948 -0.1864  0.9730 -0.2576
10801TIP3   OH253817   4.698   4.768   1.268  0.6664  0.2566 -0.4927
10801TIP3    H153818   4.783   4.730   1.245  0.4983 -0.9114  0.6702
10801TIP3    H253819   4.649   4.770   1.186  1.3557 -0.3045 -0.9263
10802TIP3   OH253820   5.286   2.132   3.084 -0.6460  0.0222 -0.3216
10802TIP3    H153821   5.289   2.074   3.008  1.2486 -0.3362 -0.0187
10802TIP3    H253822   5.342   2.206   3.060 -1.4306  0.7651  0.0742
10803TIP3   OH253823   4.993   1.945  16.528 -0.7287  0.1162  0.3985
10803TIP3    H153824   4.977   2.034  16.559 -1.5409  0.6000 -1.3053
10803TIP3    H253825   5.068   1.915  16.580 -0.8652  1.5324  1.4783
10804TIP3   OH253826   3.947   5.180   1.026  0.1854 -0.5256  0.0299
10804TIP3    H153827   4.007   5.219   1.090  0.1753 -0.9772  0.3177
10804TIP3    H253828   4.001   5.116   0.980  0.3947  0.3065 -0.9301
10805TIP3   OH253829   5.502   6.138   2.422 -0.0348  0.1756  0.2680
10805TIP3    H153830   5.535   6.064   2.472  0.4097  0.1794 -0.0158
10805TIP3    H253831   5.479   6.102   2.336 -1.3337  0.0541  0.6376
10806TIP3   OH253832   3.562   1.731  14.017 -0.0512  0.0782 -0.2075
10806TIP3    H153833   3.578   1.737  14.112  0.0260  0.8681 -0.2591
10806TIP3    H253834   3.482   1.782  14.003 -0.4050 -0.5499 -0.4901
10807TIP3   OH253835   3.759   6.668   1.500  0.6026  0.9212 -0.1080
10807TIP3    H153836   3.665   6.659   1.490  0.3139  2.4886  0.9421
10807TIP3    H253837   3.785   6.726   1.427  0.6193  1.1598  0.0863
10808TIP3   OH253838   0.867   4.857  12.072 -0.0971 -0.1159 -0.1178
10808TIP3    H153839   0.834   4.836  12.159 -1.2354 -1.2180 -0.7870
10808TIP3    H253840   0.800   4.914  12.034  0.9895  1.4013  0.1559
10809TIP3   OH253841   3.153   4.751  12.967  0.6259 -0.2982 -0.1082
10809TIP3    H153842   3.173   4.657  12.963  0.7879 -0.2757  0.2260
10809TIP3    H253843   3.154   4.779  12.875  1.8825 -0.3456 -0.1211
10810TIP3   OH253844   4.631   6.454   3.394  0.5044 -0.4748  0.6492
10810TIP3    H153845   4.704   6.482   3.338 -0.7630 -0.5317 -1.1048
10810TIP3    H253846   4.605   6.369   3.360  0.0022 -0.7345  1.6445
10811TIP3   OH253847   0.031   2.033  16.085 -0.9523 -0.0351 -0.3559
10811TIP3    H153848   0.055   1.960  16.142 -1.1159  0.3090  0.1640
10811TIP3    H253849   0.026   1.994  15.997 -3.1404 -1.1490  0.1765
10812TIP3   OH253850   1.360   5.804  16.388 -0.2470 -0.2589  0.4612
10812TIP3    H153851   1.278   5.772  16.425 -1.1528  1.2282 -0.2147
10812TIP3    H253852   1.377   5.886  16.435  0.8325 -0.5171  0.5492
10813TIP3   OH253853   4.800   2.675   5.350  0.2372 -0.2422 -0.1452
10813TIP3    H153854   4.828   2.633   5.269 -2.0477  1.7059 -2.1115
10813TIP3    H253855   4.868   2.739   5.370  0.6768 -0.5455 -0.6742
10814TIP3   OH253856   0.739   3.937  12.543 -0.2432  0.5830 -0.0112
10814TIP3    H153857   0.830   3.924  12.571 -0.9939 -2.0750  1.5199
10814TIP3    H253858   0.700   3.990  12.613 -0.2982  0.1181  0.3214
10815TIP3   OH253859   0.087   5.753   3.652 -0.2988  0.0400 -0.2269
10815TIP3    H153860   0.041   5.670   3.665  0.4504 -0.3530 -0.0007
10815TIP3    H253861   0.084   5.768   3.558  0.5473 -0.8418 -0.4135
10816TIP3   OH253862   0.563   6.698  12.340 -0.2818  0.6431 -0.4074
10816TIP3    H153863   0.608   6.707  12.256 -0.2901  0.9373 -0.3818
10816TIP3    H253864   0.475   6.669  12.318 -0.4528  1.2589 -0.5365
10817TIP3   OH253865   6.726   2.348   4.461  0.5302 -0.3162  0.2984
10817TIP3    H153866   6.819   2.344   4.439  0.2870 -2.2950 -0.5840
10817TIP3    H253867   6.724   2.351   4.556  1.5146 -2.4073  0.4387
10818TIP3   OH253868   6.212   6.072   6.589 -0.2189  0.6009 -0.4025
10818TIP3    H153869   6.122   6.102   6.603 -0.5975 -0.1530 -1.1030
10818TIP3    H253870   6.237   6.033   6.673 -1.6967 -1.9895 -1.0416
10819TIP3   OH253871   3.664   2.376  11.279  0.1727  0.3387  0.4547
10819TIP3    H153872   3.639   2.285  11.295 -1.0326  0.8424  1.6181
10819TIP3    H253873   3.591   2.414  11.231 -0.2734  1.1957  1.7481
10820TIP3   OH253874   3.452   1.421  15.267  0.2023  0.1660  0.0425
10820TIP3    H153875   3.542   1.416  15.233 -0.0750 -1.7303 -0.5579
10820TIP3    H253876   3.461   1.406  15.361  0.5213 -0.1297 -0.0316
10821TIP3   OH253877   2.232   1.406  12.293 -0.3298 -0.5841 -0.3988
10821TIP3    H153878   2.210   1.405  12.386 -0.0926 -0.4027 -0.3399
10821TIP3    H253879   2.224   1.499  12.268 -0.2711 -0.6143 -0.5304
10822TIP3   OH253880   2.070   2.447   4.217  0.2787  0.0371 -0.3753
10822TIP3    H153881   1.992   2.498   4.198  0.1624  0.4370  1.0567
10822TIP3    H253882   2.040   2.380   4.278  1.1028  0.3698  0.4114
10823TIP3   OH253883   5.877   5.167   5.163  0.0880 -0.6584  0.3621
10823TIP3    H153884   5.840   5.079   5.175 -1.4650  0.0545  1.1427
10823TIP3    H253885   5.853   5.191   5.073 -1.4654 -0.1968  0.8643
10824TIP3   OH253886   6.075   2.029  11.542 -0.2597 -0.0229 -0.1494
10824TIP3    H153887   6.017   2.066  11.608 -1.1485 -2.0245  0.2815
10824TIP3    H253888   6.162   2.030  11.583 -0.8560 -1.6015  1.2726
10825TIP3   OH253889   4.239   5.540  14.408  0.2399 -0.3582 -0.4542
10825TIP3    H153890   4.186   5.617  14.388 -0.0088 -0.7897 -1.5461
10825TIP3    H253891   4.179   5.466  14.396  0.8993 -0.8090 -1.0503
10826TIP3   OH253892   2.113   0.955  12.237  0.3107 -0.4304  0.5093
10826TIP3    H153893   2.041   0.894  12.223  1.0149 -1.0182 -0.7242
10826TIP3    H253894   2.126   0.956  12.332 -0.6362 -1.0987  0.6551
10827TIP3   OH253895   6.580   3.941  13.752 -0.2703 -0.3776 -0.3600
10827TIP3    H153896   6.641   4.015  13.750 -1.1943  0.4142 -0.5707
10827TIP3    H253897   6.630   3.869  13.788  0.2127  0.7936  1.4730
10828TIP3   OH253898   2.063   4.933   5.661  1.3569 -0.4265  0.6300
10828TIP3    H153899   2.094   4.844   5.645  1.9859 -0.1492  0.2529
10828TIP3    H253900   2.070   4.976   5.575  2.9964  0.5662  1.2281
10829TIP3   OH253901   2.694   4.028   4.281  1.0593 -1.2741 -0.0790
10829TIP3    H153902   2.713   3.994   4.194 -0.9104 -1.1469 -0.6206
10829TIP3    H253903   2.636   4.103   4.266  3.5518  1.0709  1.1992
10830TIP3   OH253904   5.305   6.610  13.032  0.1648 -0.2926 -0.0769
10830TIP3    H153905   5.279   6.580  13.119  0.3965 -0.5594 -0.0974
10830TIP3    H253906   5.393   6.577  13.021  0.4690  0.4872 -0.0659
10831TIP3   OH253907   2.151   6.699   4.225  0.8984 -0.2669 -0.2365
10831TIP3    H153908   2.228   6.704   4.168  0.9951  2.5212 -0.0315
10831TIP3    H253909   2.184   6.720   4.312 -0.1006  1.6030 -0.2432
10832TIP3   OH253910   2.218   6.139   7.015  0.4883  0.2712 -0.3082
10832TIP3    H153911   2.192   6.051   6.987  1.1207 -0.0995  0.2447
10832TIP3    H253912   2.311   6.145   6.994  0.6871  0.4344  0.5514
10833TIP3   OH253913   0.188   1.338  17.278 -0.3477  0.0547 -0.0414
10833TIP3    H153914   0.180   1.286  17.358  0.8133  0.1797  0.1785
10833TIP3    H253915   0.227   1.421  17.308 -0.4690  0.3310 -0.6468
10834TIP3   OH253916   4.801   4.417  14.016 -0.1601 -0.1935 -0.4930
10834TIP3    H153917   4.804   4.340  14.072 -0.2483 -0.6577 -1.1229
10834TIP3    H253918   4.892   4.446  14.010 -0.1417 -0.1756 -0.1674
10835TIP3   OH253919   5.758   4.445   6.256  0.3696 -0.3835  0.1289
10835TIP3    H153920   5.703   4.524   6.263  0.9747  0.0130  0.6228
10835TIP3    H253921   5.808   4.458   6.176 -2.8190 -2.4694 -2.4498
10836TIP3   OH253922   5.001   0.586  12.782 -0.0257  0.5475 -0.2817
10836TIP3    H153923   4.957   0.608  12.864  0.2762  2.3564 -0.5648
10836TIP3    H253924   4.941   0.525  12.738 -1.4572  1.6110  0.1090
10837TIP3   OH253925   6.351   5.086   6.396 -0.3411 -0.2055  0.0773
10837TIP3    H153926   6.303   5.006   6.376  2.5856 -2.3245  0.9351
10837TIP3    H253927   6.343   5.139   6.316  0.5497 -2.9228 -1.9533
10838TIP3   OH253928   3.052   2.962   2.028 -0.1177 -0.1687 -0.8259
10838TIP3    H153929   3.003   2.966   2.110  1.9019 -1.3035  0.5196
10838TIP3    H253930   3.024   3.040   1.980 -1.9082  0.1367  0.5921
10839TIP3   OH253931   3.584   3.139  15.434 -0.4255  0.0944  0.2488
10839TIP3    H153932   3.491   3.159  15.419 -0.5223  0.9104  1.8131
10839TIP3    H253933   3.600   3.061  15.380 -1.6692  0.7002 -1.0689
10840TIP3   OH253934   1.705   0.712  15.707  0.2888 -0.4252 -0.1206
10840TIP3    H153935   1.788   0.705  15.659 -0.1974 -1.1915 -0.8899
10840TIP3    H253936   1.719   0.782  15.770  0.8528  0.8385 -1.5942
10841TIP3   OH253937   3.306   0.771  16.020 -0.1142 -0.2539 -0.4602
10841TIP3    H153938   3.271   0.683  16.003  1.0955 -0.4855 -1.9544
10841TIP3    H253939   3.399   0.763  16.001  0.0849  1.2659 -0.1975
10842TIP3   OH253940   0.013   3.939   4.727 -0.8732 -0.2726 -0.3141
10842TIP3    H153941  -0.050   3.895   4.671  0.3973 -2.4824 -0.1670
10842TIP3    H253942   0.092   3.885   4.721  0.3659  1.2636  1.0291
10843TIP3   OH253943   5.221   6.583   1.011  0.2588 -0.1496 -0.2691
10843TIP3    H153944   5.294   6.526   0.986 -1.4521 -1.2513 -3.2149
10843TIP3    H253945   5.152   6.522   1.038  0.0861  0.8432  1.7460
10844TIP3   OH253946   2.825   1.215  16.979 -0.1793 -0.1365  0.8789
10844TIP3    H153947   2.731   1.224  16.999 -0.5632 -0.1455 -0.8204
10844TIP3    H253948   2.830   1.135  16.927 -0.0967  2.5628 -3.7992
10845TIP3   OH253949   1.715   5.049   6.764 -0.0782 -0.0658 -0.2407
10845TIP3    H153950   1.678   4.981   6.708 -0.3104 -0.3251  0.2223
10845TIP3    H253951   1.796   5.011   6.798  0.0248  0.0633 -0.3408
10846TIP3   OH253952   0.450   1.046  11.407  0.5462  0.0529 -0.1607
10846TIP3    H153953   0.405   1.081  11.484 -1.4551  0.5299 -1.4588
10846TIP3    H253954   0.501   0.972  11.440  1.2338  1.3726  1.8914
10847TIP3   OH253955   5.123   3.524  10.523  0.3833  0.7414 -0.2057
10847TIP3    H153956   5.110   3.438  10.562 -1.7642  0.8218 -0.6240
10847TIP3    H253957   5.051   3.578  10.558  0.9105  1.9912 -0.9685
10848TIP3   OH253958   0.434   4.713   4.759  0.2288  0.0385  0.0115
10848TIP3    H153959   0.526   4.688   4.768  0.5456  1.0397 -0.3646
10848TIP3    H253960   0.403   4.660   4.685  0.3701 -0.6357  0.4229
10849TIP3   OH253961   4.008   4.525  13.099  0.2373  0.2884  0.1020
10849TIP3    H153962   4.006   4.457  13.031  2.9086  0.9695 -0.7798
10849TIP3    H253963   3.963   4.599  13.059  0.8310  0.3261 -0.5184
10850TIP3   OH253964   1.978   4.851  15.167 -0.3638 -0.0003  0.0124
10850TIP3    H153965   2.023   4.786  15.221  0.9503  1.1061  0.3087
10850TIP3    H253966   2.035   4.928  15.169 -2.5281  1.7122  0.9120
10851TIP3   OH253967   3.788   2.580  14.264 -0.0110 -0.1276  0.1459
10851TIP3    H153968   3.791   2.491  14.229 -1.8840 -0.5365  0.9220
10851TIP3    H253969   3.876   2.594  14.300  1.5402 -0.2349 -3.1832
10852TIP3   OH253970   0.193   3.454   0.368  0.0014  0.1747 -0.6556
10852TIP3    H153971   0.269   3.398   0.378  0.2022  0.3056 -1.3514
10852TIP3    H253972   0.229   3.542   0.356 -0.2780  0.3288 -0.3726
10853TIP3   OH253973   2.189   4.013  13.289 -0.2710 -0.0719  0.3915
10853TIP3    H153974   2.116   4.072  13.268 -0.1282 -1.0157 -3.5424
10853TIP3    H253975   2.267   4.066  13.274 -0.1365 -0.2338  0.5187
10854TIP3   OH253976   6.518   4.429  15.116  0.4404  0.3500  0.0625
10854TIP3    H153977   6.566   4.406  15.196  0.8241  0.1357 -0.2222
10854TIP3    H253978   6.530   4.524  15.107  1.2558  0.2289 -0.2757
10855TIP3   OH253979   2.206   3.171   0.457  0.2540  0.8059 -0.4995
10855TIP3    H153980   2.201   3.259   0.419 -1.7813  0.0359 -2.1816
10855TIP3    H253981   2.120   3.157   0.497  0.7603 -0.2172  0.2824
10856TIP3   OH253982   5.382   2.804   2.024 -0.6933 -0.4796  0.9667
10856TIP3    H153983   5.354   2.892   2.000  0.2657  0.0702  1.7753
10856TIP3    H253984   5.326   2.746   1.972  1.5477  0.5782 -3.0805
10857TIP3   OH253985   3.704   2.028  11.937 -0.4088 -0.2873  0.2830
10857TIP3    H153986   3.788   1.997  11.971 -0.6489  1.3915  2.6282
10857TIP3    H253987   3.717   2.122  11.924 -2.1840  0.2302  1.7998
10858TIP3   OH253988   0.556   1.105  16.443  0.5888  0.2786  0.4755
10858TIP3    H153989   0.532   1.147  16.361 -0.0205 -0.9300  0.0086
10858TIP3    H253990   0.590   1.176  16.498 -1.9521  1.7050  0.3488
10859TIP3   OH253991   1.044   5.845  16.707  0.4153  0.4859 -0.5660
10859TIP3    H153992   1.104   5.774  16.681  0.0450  0.8007 -2.4087
10859TIP3    H253993   1.083   5.880  16.787  1.4126 -0.8389 -0.4251
10860TIP3   OH253994   0.566   4.665   0.804  0.5560 -0.2558  0.4091
10860TIP3    H153995   0.543   4.712   0.724 -1.8636 -0.4498  0.9273
10860TIP3    H253996   0.587   4.576   0.774 -0.1506 -0.2770 -0.0452
10861TIP3   OH253997   5.972   2.921   2.136 -0.1875  0.2087  0.1191
10861TIP3    H153998   5.895   2.973   2.114 -0.5251 -0.6603 -0.8221
10861TIP3    H253999   5.939   2.851   2.192 -0.3119 -0.7932 -1.1466
10862TIP3   OH254000   2.182   3.805  16.140 -0.0600 -0.0226 -0.0903
10862TIP3    H154001   2.257   3.771  16.091  0.8876  1.1675  0.4841
10862TIP3    H254002   2.152   3.880  16.088 -0.5733 -0.2124 -0.0736
10863TIP3   OH254003   2.828   3.755   2.596 -0.3552  0.2758  0.1772
10863TIP3    H154004   2.882   3.747   2.674 -1.5700  0.4627  1.0822
10863TIP3    H254005   2.740   3.774   2.630 -1.1676 -0.8237 -1.1765
10864TIP3   OH254006   0.167   0.371   3.790  0.4202 -0.2266 -0.0570
10864TIP3    H154007   0.150   0.381   3.696  1.5716 -0.4764 -0.3011
10864TIP3    H254008   0.097   0.422   3.832  0.1444  0.2418 -1.0509
10865TIP3   OH254009   0.174   3.586  12.521 -0.6635  0.0128 -0.1645
10865TIP3    H154010   0.158   3.556  12.432  0.8662 -1.6643  0.0577
10865TIP3    H254011   0.141   3.515  12.577 -0.0747  0.2754  0.5355
10866TIP3   OH254012   5.343   4.023  14.640 -0.2339 -0.2912  0.2287
10866TIP3    H154013   5.259   4.015  14.684  0.0614  0.4988  0.9730
10866TIP3    H254014   5.324   4.007  14.548 -1.2671  0.2663  0.3324
10867TIP3   OH254015   1.317   2.338  11.439  0.4143  0.4629  0.1232
10867TIP3    H154016   1.366   2.271  11.486 -1.6142 -0.3512  1.1962
10867TIP3    H254017   1.303   2.407  11.503 -0.3975  0.3829  0.0446
10868TIP3   OH254018   6.397   1.568  17.160 -0.9241 -0.2519  0.4334
10868TIP3    H154019   6.433   1.527  17.081 -2.8474 -0.6767 -0.2803
10868TIP3    H254020   6.472   1.610  17.202  0.0364  0.7154 -2.0653
10869TIP3   OH254021   4.301   6.402  16.810 -0.0703  0.4102 -0.6203
10869TIP3    H154022   4.307   6.340  16.737 -0.4231  0.7471 -0.9390
10869TIP3    H254023   4.287   6.348  16.887 -1.7739  0.1643 -1.0771
10870TIP3   OH254024   0.173   1.176  16.470 -0.1266 -0.5938 -0.1492
10870TIP3    H154025   0.082   1.178  16.500  0.0223 -0.8870  0.3240
10870TIP3    H254026   0.173   1.115  16.397 -0.5491  0.3568 -0.9673
10871TIP3   OH254027   5.086   4.703  14.528  0.1543  0.4326  0.3401
10871TIP3    H154028   5.038   4.688  14.610 -1.7038 -2.0415 -1.0177
10871TIP3    H254029   5.173   4.667  14.544 -0.7021 -1.6188  0.8378
10872TIP3   OH254030   4.244   5.106  13.456 -0.3644 -0.0284  0.2848
10872TIP3    H154031   4.280   5.017  13.463  0.6965  0.3641  0.0630
10872TIP3    H254032   4.270   5.134  13.368 -3.6070 -0.7120 -1.0311
10873TIP3   OH254033   3.545   4.126   3.086 -0.0412 -0.0113 -0.6301
10873TIP3    H154034   3.495   4.104   3.007 -1.8572 -0.7051  0.6398
10873TIP3    H254035   3.480   4.122   3.156  1.5250  0.6144  0.8930
10874TIP3   OH254036   6.600   2.139  17.208 -0.2321  0.6462  0.2808
10874TIP3    H154037   6.661   2.104  17.272 -1.3711 -0.8942  0.5897
10874TIP3    H254038   6.515   2.101  17.232 -1.1334  1.9153 -0.7185
10875TIP3   OH254039   4.391   2.516  17.092  0.0536 -1.0299 -0.4244
10875TIP3    H154040   4.306   2.531  17.133  1.4218 -1.2515  2.8301
10875TIP3    H254041   4.375   2.449  17.026 -2.3950 -0.4273 -0.5514
10876TIP3   OH254042   5.614   2.445  12.485 -0.2079  0.1316 -0.3660
10876TIP3    H154043   5.571   2.504  12.546  2.0397 -0.9902  2.5929
10876TIP3    H254044   5.609   2.359  12.527  1.9345 -0.6134 -1.4370
10877TIP3   OH254045   4.824   2.391  13.049 -0.1154 -0.4009 -0.3006
10877TIP3    H154046   4.828   2.302  13.085 -0.9852 -0.7455 -1.0039
10877TIP3    H254047   4.759   2.436  13.104 -1.3329 -0.8830 -1.3025
10878TIP3   OH254048   0.976   0.855   1.757  0.2523  0.2619 -0.4927
10878TIP3    H154049   1.055   0.907   1.745 -0.6743  2.1682  1.0623
10878TIP3    H254050   0.907   0.919   1.770 -0.9253 -1.3193  1.8965
10879TIP3   OH254051   4.005   2.023   4.596  0.2923  0.5346 -0.3903
10879TIP3    H154052   4.003   2.114   4.626 -0.2859  0.3962 -0.0172
10879TIP3    H254053   3.938   2.019   4.527  1.6479  0.8716 -1.8035
10880TIP3   OH254054   6.271   5.911  10.892  0.2799  0.8248  0.0180
10880TIP3    H154055   6.191   5.963  10.887  0.3587  1.2257  2.0089
10880TIP3    H254056   6.314   5.941  10.972 -0.1152 -2.8809  1.8518
10881TIP3   OH254057   6.437   6.455  12.342 -0.0584  0.2618 -0.2858
10881TIP3    H154058   6.411   6.520  12.408  0.1728  1.2598 -1.1626
10881TIP3    H254059   6.528   6.477  12.321  0.7838 -1.7133  0.9871
10882TIP3   OH254060   4.056   5.752   4.138  0.1490 -0.3842  0.0994
10882TIP3    H154061   4.132   5.718   4.091  0.1086 -0.0799 -0.1899
10882TIP3    H254062   4.044   5.691   4.211 -0.6574 -1.7249 -1.0819
10883TIP3   OH254063   0.397   5.693  17.276  0.2950 -0.0347 -0.6394
10883TIP3    H154064   0.375   5.680  17.368 -0.2130  0.9561 -0.6160
10883TIP3    H254065   0.398   5.788  17.264  1.4626 -0.1166 -1.3959
10884TIP3   OH254066   3.311   4.371   3.261  0.0055  1.1910 -0.1735
10884TIP3    H154067   3.346   4.441   3.205  1.7877  2.1441  2.0017
10884TIP3    H254068   3.261   4.417   3.328  0.5117  0.3162  0.8221
10885TIP3   OH254069   3.228   4.746   1.460 -1.2326  0.0268 -0.2078
10885TIP3    H154070   3.264   4.685   1.524 -0.8322 -1.0193 -1.3844
10885TIP3    H254071   3.281   4.825   1.470 -0.3921 -0.5430 -0.0470
10886TIP3   OH254072   1.539   3.264   1.840 -0.1742 -0.7194 -0.0332
10886TIP3    H154073   1.448   3.234   1.846 -0.9190  1.0364 -1.6704
10886TIP3    H254074   1.573   3.223   1.761  0.4939 -1.3847  0.5827
10887TIP3   OH254075   2.188   6.011   2.804  0.6629  0.2808  0.2872
10887TIP3    H154076   2.134   5.975   2.875 -0.2579  1.4770  0.2363
10887TIP3    H254077   2.124   6.039   2.738  1.5109 -0.9179 -1.0814
10888TIP3   OH254078   6.750   0.556   3.633 -0.3942 -0.2413  0.5596
10888TIP3    H154079   6.713   0.562   3.544 -0.0386 -2.1153  0.2370
10888TIP3    H254080   6.674   0.556   3.690 -0.8089 -1.6969  0.0513
10889TIP3   OH254081   0.558   5.295   4.498  0.2797 -0.0687  0.3701
10889TIP3    H154082   0.576   5.204   4.476 -0.7647 -0.5011  1.2218
10889TIP3    H254083   0.540   5.337   4.414 -2.7972 -1.4743  0.1994
10890TIP3   OH254084   0.272   0.067  14.942  0.6750 -0.0922  0.8638
10890TIP3    H154085   0.313   0.122  15.009  1.7624  0.7925 -0.4591
10890TIP3    H254086   0.238   0.130  14.878  0.4015 -0.9223  0.1793
10891TIP3   OH254087   2.344   4.758  13.228 -0.5082  0.3669  0.3286
10891TIP3    H154088   2.308   4.752  13.316 -0.5336  0.8969  0.3589
10891TIP3    H254089   2.320   4.675  13.186 -3.8153  1.5308 -0.4145
10892TIP3   OH254090   3.500   3.444   6.233  0.3301  0.4823 -0.6467
10892TIP3    H154091   3.546   3.490   6.163 -0.6264  2.0307 -0.3002
10892TIP3    H254092   3.542   3.358   6.236  2.2891  1.3425 -1.2413
10893TIP3   OH254093   6.287   6.528   3.613 -0.1922 -0.0229  0.2166
10893TIP3    H154094   6.335   6.546   3.532  0.3663  1.5968  0.8637
10893TIP3    H254095   6.352   6.543   3.683 -0.6204 -1.5285  0.9832
10894TIP3   OH254096   4.217   1.140   1.838 -0.2639 -0.5177 -0.4748
10894TIP3    H154097   4.182   1.063   1.793 -1.2073  1.2250 -2.9510
10894TIP3    H254098   4.276   1.180   1.774  0.0614  0.9015  0.6760
10895TIP3   OH254099   3.800   2.203   1.856  0.0724  0.0463  0.2704
10895TIP3    H154100   3.846   2.219   1.773  3.4810 -1.2202  1.7154
10895TIP3    H254101   3.795   2.107   1.862  0.3210  0.1038  1.6974
10896TIP3   OH254102   2.174   5.038  15.053  0.0784 -0.0504 -0.1642
10896TIP3    H154103   2.096   5.089  15.032 -0.4977 -1.1379 -0.7911
10896TIP3    H254104   2.179   4.972  14.984  1.7804  0.2218 -0.3332
10897TIP3   OH254105   5.601   5.934  16.419  0.0848 -0.1542  0.5846
10897TIP3    H154106   5.505   5.934  16.416  0.0679  1.8202 -0.5421
10897TIP3    H254107   5.622   5.930  16.512 -1.0149 -2.4389  0.8009
10898TIP3   OH254108   4.940   2.885   5.935 -0.3601 -0.2860  0.0723
10898TIP3    H154109   4.902   2.955   5.989 -0.4170  1.5097 -2.1114
10898TIP3    H254110   4.890   2.889   5.853  0.9277 -1.5999 -0.8195
10899TIP3   OH254111   5.694   0.775  11.741 -0.3004 -0.3965  0.1371
10899TIP3    H154112   5.653   0.689  11.747  1.9478 -1.5240  0.3042
10899TIP3    H254113   5.782   0.758  11.709  0.0104  1.9358 -0.4495
10900TIP3   OH254114   0.811   3.890   1.191 -0.0663  0.1251 -0.2555
10900TIP3    H154115   0.840   3.978   1.214  0.2837 -0.4318  1.5833
10900TIP3    H254116   0.841   3.877   1.101  2.0753  0.9733  0.2916
10901TIP3   OH254117   4.234   6.650   1.955  0.3040 -0.0143 -0.6123
10901TIP3    H154118   4.255   6.694   2.038  0.3120 -0.5627 -0.3143
10901TIP3    H254119   4.139   6.637   1.958  0.0651  1.3762 -1.4111
10902TIP3   OH254120   1.491   2.817  13.944 -0.3040  0.6623 -0.5747
10902TIP3    H154121   1.451   2.731  13.962  1.7776 -0.0683  1.1330
10902TIP3    H254122   1.456   2.874  14.013  0.9911  0.1747  0.5512
10903TIP3   OH254123   5.151   5.880  16.695 -0.4337  0.2901 -0.4241
10903TIP3    H154124   5.129   5.899  16.787  0.1985 -0.3411 -0.1290
10903TIP3    H254125   5.238   5.919  16.683 -0.1134 -0.4240 -0.4764
10904TIP3   OH254126   5.127   2.875   0.557 -0.5723 -0.5620  0.4451
10904TIP3    H154127   5.093   2.787   0.576 -0.7027 -0.7089 -0.4517
10904TIP3    H254128   5.128   2.880   0.462  1.3005 -0.3267  0.4442
10905TIP3   OH254129   5.605   5.333   5.781 -0.5305  0.0393 -0.0577
10905TIP3    H154130   5.541   5.268   5.810 -0.9207  1.0115  1.3642
10905TIP3    H254131   5.563   5.378   5.708 -0.7759 -0.4492 -0.2212
10906TIP3   OH254132   6.741   3.491   4.070 -0.4017  0.0221  0.1164
10906TIP3    H154133   6.759   3.403   4.038 -1.8936 -0.6047  0.8741
10906TIP3    H254134   6.787   3.497   4.154  1.0141  0.5691 -0.6737
10907TIP3   OH254135   1.895   0.337  14.701  0.2286  0.1557 -0.3037
10907TIP3    H154136   1.986   0.345  14.729  0.7299 -0.3795 -1.6826
10907TIP3    H254137   1.867   0.252  14.733  0.2938  0.2178 -0.0831
10908TIP3   OH254138   3.698   5.905   2.292  0.5948  0.1844  0.6412
10908TIP3    H154139   3.681   5.814   2.268 -0.3289  0.2217  1.0773
10908TIP3    H254140   3.616   5.934   2.333  0.5577  1.4704 -0.2617
10909TIP3   OH254141   4.442   6.498  16.008 -0.3225  0.6166  1.1328
10909TIP3    H154142   4.442   6.429  16.074  0.6052 -1.7521 -1.1799
10909TIP3    H254143   4.532   6.530  16.006 -0.2592  0.4237  0.7810
10910TIP3   OH254144   4.366   3.671   4.096 -0.2864  0.0638 -0.1475
10910TIP3    H154145   4.274   3.663   4.072 -0.9401 -0.3771  2.2535
10910TIP3    H254146   4.366   3.719   4.179  1.7715  1.2731 -0.7539
10911TIP3   OH254147   6.587   2.976   5.157 -0.1135 -0.5399  0.4859
10911TIP3    H154148   6.609   2.926   5.235  0.8236  0.5496  0.9414
10911TIP3    H254149   6.670   2.987   5.111 -0.3058  0.5180  0.3566
10912TIP3   OH254150   0.472   4.428   0.199 -0.2121  0.2443  0.1562
10912TIP3    H154151   0.518   4.384   0.127 -0.6257 -2.0178  1.2031
10912TIP3    H254152   0.430   4.357   0.248 -0.0088  1.7185  2.6083
10913TIP3   OH254153   6.182   6.660   0.444 -0.6066  0.4280 -0.2086
10913TIP3    H154154   6.267   6.701   0.463 -1.5888  2.3291  0.2633
10913TIP3    H254155   6.136   6.724   0.390 -1.7183 -0.6271 -0.5524
10914TIP3   OH254156   2.023   4.965   5.343  0.1986  0.0508  0.4687
10914TIP3    H154157   2.090   5.026   5.312 -0.5799  0.8467  0.3255
10914TIP3    H254158   1.944   4.991   5.297 -0.5103 -0.0785  1.5787
10915TIP3   OH254159   4.361   0.751   3.359  0.1805  0.0749  0.0437
10915TIP3    H154160   4.314   0.677   3.399  1.8905 -0.5193  1.0806
10915TIP3    H254161   4.418   0.783   3.429  1.8941  0.2301 -1.3486
10916TIP3   OH254162   4.738   6.461  15.715  0.1550 -0.2882  0.0550
10916TIP3    H154163   4.685   6.385  15.692 -1.1084  0.5906 -0.0396
10916TIP3    H254164   4.697   6.533  15.667  1.2476  0.4803  0.2535
10917TIP3   OH254165   3.637   5.280  13.200 -0.2516 -0.0305  0.0381
10917TIP3    H154166   3.652   5.358  13.254  0.5366 -1.1714  1.5318
10917TIP3    H254167   3.722   5.236  13.198 -1.0150 -1.5664  0.3823
10918TIP3   OH254168   4.449   0.972   1.020  0.1858  0.0858 -0.0598
10918TIP3    H154169   4.434   0.955   1.113 -0.1228 -0.5936 -0.2250
10918TIP3    H254170   4.415   0.894   0.976  0.2604  0.4350 -0.7470
10919TIP3   OH254171   5.777   3.827  12.326 -0.4788 -0.1507  0.2241
10919TIP3    H154172   5.764   3.736  12.353  2.5271 -0.2049  1.8728
10919TIP3    H254173   5.853   3.825  12.268 -1.7608  1.0969 -1.6393
10920TIP3   OH254174   2.041   2.204  16.547 -0.3592  0.1432  0.0877
10920TIP3    H154175   2.044   2.134  16.483 -0.1591  0.7797 -0.6118
10920TIP3    H254176   1.981   2.269  16.510 -1.5232 -0.2082  1.3092
10921TIP3   OH254177   1.342   5.407   1.444 -0.0700  0.1247 -0.0935
10921TIP3    H154178   1.339   5.455   1.362 -1.6467  4.1905  2.0937
10921TIP3    H254179   1.252   5.378   1.459 -0.5506  2.1801  1.5196
10922TIP3   OH254180   0.699   2.252  16.987 -0.6788  0.3505 -0.5263
10922TIP3    H154181   0.712   2.304  16.907 -2.6882 -2.4198 -2.8425
10922TIP3    H254182   0.764   2.182  16.980  0.1652  0.9301  1.1377
10923TIP3   OH254183   1.540   2.545   0.375 -0.1598  0.2930  0.1566
10923TIP3    H154184   1.593   2.614   0.336 -0.1976  1.1638  1.5594
10923TIP3    H254185   1.450   2.565   0.347 -0.0351  0.1740 -0.3304
10924TIP3   OH254186   1.608   3.646  15.654  0.0223 -0.5707  0.0971
10924TIP3    H154187   1.527   3.679  15.691 -0.2297 -0.0300 -0.9002
10924TIP3    H254188   1.673   3.714  15.672 -0.3986  0.3417 -1.5656
10925TIP3   OH254189   3.910   3.790  17.440  0.1538  0.5554  1.1360
10925TIP3    H154190   3.924   3.851  17.368  1.5207  1.3601  2.0311
10925TIP3    H254191   3.817   3.768  17.436 -0.0926  1.7015  0.0300
10926TIP3   OH254192   5.960   3.764  11.509 -0.1049 -0.1576 -0.4516
10926TIP3    H154193   5.877   3.799  11.541  0.5425  1.8380 -0.8588
10926TIP3    H254194   5.934   3.704  11.439 -1.1932  2.4407 -2.4401
10927TIP3   OH254195   1.675   1.763   4.763  0.0207 -0.3984 -0.1332
10927TIP3    H154196   1.751   1.820   4.771  1.8334 -2.8755  2.1713
10927TIP3    H254197   1.710   1.679   4.734 -2.2828 -0.9603 -1.6340
10928TIP3   OH254198   5.668   0.639   3.653 -0.2282 -0.0809  0.2131
10928TIP3    H154199   5.739   0.700   3.674 -1.4610  1.5199 -0.0789
10928TIP3    H254200   5.617   0.684   3.586 -0.3800 -2.0846 -1.0738
10929TIP3   OH254201   2.163   3.130  14.535 -0.0049  0.3273 -0.3684
10929TIP3    H154202   2.075   3.095  14.521  0.4893 -1.8910  1.4388
10929TIP3    H254203   2.152   3.198  14.601 -0.2876 -0.5721  0.5297
10930TIP3   OH254204   4.512   1.809   6.403  0.4849  0.4060  0.1354
10930TIP3    H154205   4.467   1.854   6.331  0.5723 -0.3338 -0.3960
10930TIP3    H254206   4.497   1.716   6.386 -1.4514  0.2241  2.3499
10931TIP3   OH254207   2.367   5.395   4.322  0.5118 -0.0542 -0.1991
10931TIP3    H154208   2.406   5.382   4.236  1.9149 -1.0817  0.5509
10931TIP3    H254209   2.272   5.395   4.306  0.7579  1.4722 -1.9305
10932TIP3   OH254210   3.752   4.469   3.928  0.3648 -0.5228 -0.5270
10932TIP3    H154211   3.788   4.409   3.863  0.3616 -0.5816 -0.4751
10932TIP3    H254212   3.658   4.472   3.908  0.1887 -1.3288  0.0934
10933TIP3   OH254213   5.157   5.089  13.888  0.3773  0.2210  0.0140
10933TIP3    H154214   5.114   5.093  13.803 -2.2738  0.6911  1.2683
10933TIP3    H254215   5.102   5.143  13.945  2.7948  1.0191  1.7667
10934TIP3   OH254216   3.155   1.071  15.468 -0.4871  0.5425 -0.4424
10934TIP3    H154217   3.219   1.003  15.445 -1.4744 -0.1227 -1.3189
10934TIP3    H254218   3.102   1.032  15.538 -0.0454  1.0408  0.1872
10935TIP3   OH254219   0.857   5.266   3.973  0.7636  0.2210  0.0393
10935TIP3    H154220   0.818   5.232   3.893 -1.1656 -1.3251  1.5349
10935TIP3    H254221   0.807   5.345   3.992 -0.9390 -1.0681  1.2678
10936TIP3   OH254222   5.640   6.419  15.442 -0.4810 -0.2591 -0.4285
10936TIP3    H154223   5.557   6.400  15.398 -0.1242 -1.6481 -0.5410
10936TIP3    H254224   5.622   6.497  15.495 -1.9299 -0.7084 -0.2242
10937TIP3   OH254225   2.464   1.431  16.341 -0.1746  0.0959  0.2940
10937TIP3    H154226   2.446   1.492  16.269 -0.7414 -0.9939 -0.5208
10937TIP3    H254227   2.540   1.467  16.385 -0.7532  1.6275  0.1007
10938TIP3   OH254228   1.635   0.125   2.597 -0.4380 -0.7261  0.0491
10938TIP3    H154229   1.589   0.133   2.681  1.0693  0.3181  0.8267
10938TIP3    H254230   1.727   0.115   2.620 -0.1079 -1.6119 -1.4819
10939TIP3   OH254231   4.958   0.297  16.518 -0.2553 -0.4213 -0.0543
10939TIP3    H154232   5.049   0.313  16.492 -0.5158  0.4936 -0.4301
10939TIP3    H254233   4.908   0.367  16.476 -0.9220  0.0641  1.4706
10940TIP3   OH254234   0.509   6.082   4.922  0.1456  0.3793  0.5365
10940TIP3    H154235   0.474   6.098   4.835  2.1756  0.2766 -0.3666
10940TIP3    H254236   0.507   6.168   4.965  1.6167  1.0419 -0.6253
10941TIP3   OH254237   3.962   1.428  15.011 -0.3672  0.0860 -0.6165
10941TIP3    H154238   3.885   1.484  15.013 -0.9348 -0.4157  3.8970
10941TIP3    H254239   4.004   1.442  15.096  4.4827  0.0923 -2.6842
10942TIP3   OH254240   6.428   1.260  13.104 -0.4719 -1.1339  0.0799
10942TIP3    H154241   6.461   1.349  13.114  0.0398 -1.1205 -1.4553
10942TIP3    H254242   6.501   1.204  13.132  0.1481 -1.0772 -1.3382
10943TIP3   OH254243   0.943   3.577  17.185  0.9269  0.0097  0.3233
10943TIP3    H154244   0.957   3.653  17.242  1.2245 -0.8642  1.4524
10943TIP3    H254245   0.848   3.569  17.178  0.8945  0.5820  0.0524
10944TIP3   OH254246   0.191   0.125   4.852  0.1097 -0.3535 -0.4062
10944TIP3    H154247   0.202   0.165   4.766 -0.0314 -0.8978 -0.6810
10944TIP3    H254248   0.280   0.102   4.879  0.4214  1.8040  0.5789
10945TIP3   OH254249   2.630   3.002   2.472 -0.2795 -0.0322  0.3448
10945TIP3    H154250   2.696   3.070   2.462 -0.0302 -0.2321  0.6342
10945TIP3    H254251   2.621   2.965   2.384 -0.3003  0.2659  0.2198
10946TIP3   OH254252   4.226   3.350  11.356  0.0864 -0.3593 -0.2935
10946TIP3    H154253   4.318   3.351  11.328 -0.3910  1.8966 -2.1302
10946TIP3    H254254   4.180   3.307  11.284 -0.8659  3.3735 -2.1532
10947TIP3   OH254255   5.898   4.176   6.059  0.2033 -0.4291 -0.3656
10947TIP3    H154256   5.880   4.114   6.129 -0.2944 -1.8163 -1.6665
10947TIP3    H254257   5.966   4.233   6.094  1.4556 -2.3701  0.5367
10948TIP3   OH254258   6.608   4.882  13.374 -0.7500  0.0877 -0.7796
10948TIP3    H154259   6.639   4.792  13.386 -2.7583 -0.7737 -1.5185
10948TIP3    H254260   6.556   4.900  13.453 -0.2087  0.6817 -0.5517
10949TIP3   OH254261   4.516   4.746  15.358 -0.4041  0.1013 -0.6424
10949TIP3    H154262   4.509   4.770  15.266 -0.2390 -0.2525 -0.7478
10949TIP3    H254263   4.581   4.807  15.394  0.5362 -0.6161 -1.0700
10950TIP3   OH254264   4.823   5.672  10.988 -0.0705  0.2580  0.0641
10950TIP3    H154265   4.822   5.590  10.938 -0.7070  0.8794 -0.9810
10950TIP3    H254266   4.872   5.733  10.933  0.2124  0.6373  0.7303
10951TIP3   OH254267   2.131   2.482  12.852  0.8231  0.3168  0.1324
10951TIP3    H154268   2.163   2.397  12.822  1.6652  0.5685  0.2970
10951TIP3    H254269   2.124   2.536  12.773 -2.6278 -0.7551 -0.4822
10952TIP3   OH254270   1.962   4.320  12.135 -0.7013 -0.0114 -0.1865
10952TIP3    H154271   1.919   4.279  12.060 -3.7025  1.3723  0.6271
10952TIP3    H254272   1.890   4.359  12.186  1.3004  0.1460  2.7950
10953TIP3   OH254273   5.562   2.118  14.253 -0.2403  0.3805 -1.0230
10953TIP3    H154274   5.604   2.040  14.217  0.4436 -0.2126  0.9338
10953TIP3    H254275   5.607   2.133  14.336 -1.7939  1.6101 -0.3568
10954TIP3   OH254276   3.438   3.822   1.585 -0.0806 -0.4358  0.3618
10954TIP3    H154277   3.456   3.742   1.535 -0.4165 -1.1584  1.3666
10954TIP3    H254278   3.462   3.893   1.526 -1.5274 -1.2191 -1.2715
10955TIP3   OH254279   0.944   6.292  14.970  0.4830 -0.3369 -0.0047
10955TIP3    H154280   0.966   6.257  14.884  0.1208  1.5279 -0.8938
10955TIP3    H254281   0.891   6.369  14.953  0.7972  0.3643  1.8745
10956TIP3   OH254282   6.541   0.916  12.055  0.3241  0.2501  0.1542
10956TIP3    H154283   6.605   0.882  11.992  1.0072  1.0389  0.3915
10956TIP3    H254284   6.459   0.922  12.006  0.1953 -1.6247  0.0913
10957TIP3   OH254285   1.130   3.195  12.476 -0.3829  0.3392  0.1317
10957TIP3    H154286   1.116   3.255  12.550  0.3077  0.3581  0.2542
10957TIP3    H254287   1.054   3.208  12.420 -1.6332 -0.7057  1.5209
10958TIP3   OH254288   2.354   6.698  13.102  0.5105  0.6556  0.2522
10958TIP3    H154289   2.293   6.747  13.157  1.6478  2.4805 -0.0123
10958TIP3    H254290   2.321   6.713  13.013  0.2227 -0.0187  0.2433
10959TIP3   OH254291   1.863   1.073   2.012  0.3680 -0.1355 -0.1312
10959TIP3    H154292   1.832   1.045   2.098  1.0484 -0.9934 -0.1455
10959TIP3    H254293   1.803   1.032   1.950 -1.2248  1.9166 -0.0640
10960TIP3   OH254294   5.489   3.855  15.796 -0.6413 -0.3132  0.2683
10960TIP3    H154295   5.540   3.806  15.731 -0.7977 -1.0574  0.6966
10960TIP3    H254296   5.446   3.924  15.746 -0.0407 -0.3142 -0.2663
10961TIP3   OH254297   3.036   2.352  14.237  0.0719  0.0300 -0.0137
10961TIP3    H154298   2.945   2.379  14.222 -0.7817 -1.8252  1.4019
10961TIP3    H254299   3.074   2.425  14.287 -0.5827  0.8659 -0.6946
10962TIP3   OH254300   2.583   3.383   0.305  0.3015 -0.2087  0.4061
10962TIP3    H154301   2.560   3.299   0.345 -2.7438  0.4179  0.2341
10962TIP3    H254302   2.676   3.376   0.286  0.2344 -3.4063  0.7052
10963TIP3   OH254303   2.839   2.214  12.324 -0.1812 -0.0170 -0.5737
10963TIP3    H154304   2.864   2.126  12.353  1.1272  0.9972  1.5921
10963TIP3    H254305   2.800   2.200  12.237  0.3491 -2.6683 -0.4722
10964TIP3   OH254306   4.455   3.990  12.618  0.4225 -0.0572 -0.1458
10964TIP3    H154307   4.474   3.941  12.698 -3.1947 -1.8708 -0.2010
10964TIP3    H254308   4.532   3.975  12.563  1.4946 -1.7512  1.6623
10965TIP3   OH254309   2.376   3.682  16.350 -0.4956 -0.4973 -0.1504
10965TIP3    H154310   2.331   3.718  16.273 -1.5439  2.1534  1.5947
10965TIP3    H254311   2.414   3.757  16.395  2.4549 -2.2436  0.5899
10966TIP3   OH254312   5.697   0.125   5.002 -0.3154  0.1683 -0.5303
10966TIP3    H154313   5.707   0.205   4.950  0.8377 -0.2291 -0.9460
10966TIP3    H254314   5.603   0.122   5.023 -0.9665  0.0322 -3.1044
10967TIP3   OH254315   3.314   1.321   3.529  0.1840  0.4793 -0.3876
10967TIP3    H154316   3.312   1.247   3.470 -0.1214  0.6476 -0.5915
10967TIP3    H254317   3.402   1.358   3.520  0.1762  0.4327 -0.6465
10968TIP3   OH254318   5.375   5.831  16.878  0.0892 -0.1676 -0.9158
10968TIP3    H154319   5.358   5.923  16.859  0.7960  0.3200  0.6683
10968TIP3    H254320   5.422   5.831  16.961  0.0401 -1.9712 -0.8325
10969TIP3   OH254321   0.099   0.975   2.502 -0.0929 -0.2524  0.0247
10969TIP3    H154322   0.015   0.960   2.547 -0.3199 -1.2827 -0.6919
10969TIP3    H254323   0.077   1.034   2.430  0.1820  1.0210  0.9539
10970TIP3   OH254324   2.458   3.086   6.693  0.8560  0.0156 -0.1238
10970TIP3    H154325   2.477   3.090   6.787 -0.4349 -1.6911  0.2828
10970TIP3    H254326   2.505   3.008   6.663 -0.5461 -0.7906 -0.3472
10971TIP3   OH254327   5.573   1.226   5.813 -0.0094  0.8201  0.0333
10971TIP3    H154328   5.568   1.287   5.740  2.0505  0.9967  0.0029
10971TIP3    H254329   5.641   1.164   5.789 -0.6496 -0.2904  0.9690
10972TIP3   OH254330   6.516   3.957   0.588  0.6775 -0.0376 -0.4670
10972TIP3    H154331   6.428   3.941   0.554  0.6030  1.3352 -1.0055
10972TIP3    H254332   6.529   3.891   0.656 -0.7404 -0.2928 -0.4238
10973TIP3   OH254333   1.998   5.956   2.615  0.6835 -0.4399 -0.1920
10973TIP3    H154334   1.964   5.900   2.685  0.9967  0.6946  0.9232
10973TIP3    H254335   2.010   5.898   2.540  0.4579 -1.7220  0.7387
10974TIP3   OH254336   1.140   6.352  14.751  0.2105 -0.2806  0.1955
10974TIP3    H154337   1.147   6.391  14.839  2.4924  2.5285 -1.0590
10974TIP3    H254338   1.224   6.308  14.738  0.2428  0.0654 -0.8564
10975TIP3   OH254339   1.894   2.320   0.991 -0.0009 -0.2329  0.4123
10975TIP3    H154340   1.898   2.367   1.074  0.9081 -1.3396  1.0176
10975TIP3    H254341   1.976   2.342   0.947 -0.2421 -0.0734  0.0388
10976TIP3   OH254342   5.932   5.495  10.709  0.8263  0.5316 -0.0160
10976TIP3    H154343   5.964   5.559  10.773  0.2918  1.2607 -0.4649
10976TIP3    H254344   5.940   5.540  10.625 -0.1434  0.2395 -0.2724
10977TIP3   OH254345   2.182   5.671  12.133  0.1866 -0.1376 -0.0094
10977TIP3    H154346   2.260   5.699  12.181 -0.3394  1.4279 -0.0144
10977TIP3    H254347   2.216   5.629  12.054  1.0523  1.9345 -0.7978
10978TIP3   OH254348   4.652   4.920   0.091 -0.0896 -0.4741  0.0222
10978TIP3    H154349   4.663   4.992   0.028 -0.4816  0.4833  1.0165
10978TIP3    H254350   4.580   4.868   0.055 -2.2619  1.6627  1.0376
10979TIP3   OH254351   0.810   2.403  15.455  0.4706 -0.1171  0.1742
10979TIP3    H154352   0.779   2.445  15.535  2.2001  0.1863  0.7291
10979TIP3    H254353   0.838   2.475  15.399  2.6997 -0.4339  0.8046
10980TIP3   OH254354   1.144   5.604   4.562 -0.2582 -0.2361 -0.4180
10980TIP3    H154355   1.075   5.621   4.498 -2.3946  2.6557  2.3363
10980TIP3    H254356   1.103   5.548   4.628 -0.7875  2.9091  2.1526
10981TIP3   OH254357   4.781   3.706  15.145 -0.3864 -0.3778  0.0147
10981TIP3    H154358   4.727   3.640  15.101 -1.4188 -1.0485  2.1595
10981TIP3    H254359   4.849   3.654  15.189  1.9250  0.4217 -2.3270
10982TIP3   OH254360   2.071   3.306   4.749 -0.2448 -0.3465 -0.4950
10982TIP3    H154361   2.160   3.312   4.713 -0.0319 -0.9890 -0.0998
10982TIP3    H254362   2.059   3.213   4.768 -1.1620 -0.3234 -0.9141
10983TIP3   OH254363   0.771   0.598  14.380  0.0929  0.4659 -0.2706
10983TIP3    H154364   0.770   0.607  14.476  0.4842 -1.2378 -0.0762
10983TIP3    H254365   0.680   0.605  14.354 -0.2418 -0.8750  0.4522
10984TIP3   OH254366   4.389   0.482   4.395 -0.0506  0.1103  0.2056
10984TIP3    H154367   4.412   0.570   4.426 -0.5821  0.4663 -0.3697
10984TIP3    H254368   4.294   0.486   4.381 -0.5012 -1.2712  2.4094
10985TIP3   OH254369   1.846   3.095  15.765  0.4841  0.0239 -0.0936
10985TIP3    H154370   1.762   3.108  15.808  0.4487 -0.0850 -0.1300
10985TIP3    H254371   1.827   3.037  15.691  0.8840 -1.4072  0.8902
10986TIP3   OH254372   3.183   1.351  16.064 -0.4861  0.6808 -0.6696
10986TIP3    H154373   3.225   1.266  16.051 -1.3700  0.0514  0.3661
10986TIP3    H254374   3.190   1.395  15.980 -0.3959 -0.6015 -1.3489
10987TIP3   OH254375   6.303   6.066   6.024  0.6340  0.0186  0.3258
10987TIP3    H154376   6.318   6.160   6.013 -0.7718  0.1136 -1.1899
10987TIP3    H254377   6.365   6.025   5.964  0.6267  0.0244  0.3145
10988TIP3   OH254378   1.703   3.872   2.212  0.2629 -0.5730 -0.0745
10988TIP3    H154379   1.717   3.919   2.294 -1.6619  1.5867 -0.8684
10988TIP3    H254380   1.759   3.795   2.218  1.5551  0.4624  2.4626
10989TIP3   OH254381   4.111   1.726  11.378 -0.1669  0.0777  0.5189
10989TIP3    H154382   4.043   1.701  11.316  0.9558 -0.6488 -0.4838
10989TIP3    H254383   4.080   1.807  11.417 -0.3775  1.2969 -1.9647
10990TIP3   OH254384   2.675   6.301  16.763  0.3862 -0.3073 -0.1848
10990TIP3    H154385   2.766   6.284  16.785  0.0404 -2.0661  0.0595
10990TIP3    H254386   2.629   6.291  16.847 -0.2717 -1.6047 -0.6715
10991TIP3   OH254387   3.001   5.511  12.038  0.1069 -0.0935  0.0378
10991TIP3    H154388   2.913   5.503  12.073  0.8923  0.6427  2.3500
10991TIP3    H254389   3.048   5.436  12.075  0.5562 -0.2638 -0.8626
10992TIP3   OH254390   3.992   5.015  16.468  0.0497 -0.6091 -0.3349
10992TIP3    H154391   4.077   5.011  16.513 -0.2083 -1.9641  0.0682
10992TIP3    H254392   3.965   4.924  16.460 -0.8864 -0.2527 -1.4056
10993TIP3   OH254393   1.836   5.955  11.973  0.2553  0.0453 -0.5114
10993TIP3    H154394   1.854   5.862  11.983  0.4536  0.0943 -0.4100
10993TIP3    H254395   1.794   5.963  11.887 -0.9082 -0.3065 -0.0005
10994TIP3   OH254396   5.585   1.268  16.572 -0.1369  0.8759 -0.4692
10994TIP3    H154397   5.577   1.363  16.580  0.7800  1.0618 -1.5069
10994TIP3    H254398   5.507   1.241  16.524 -0.8743  0.9623  0.6448
10995TIP3   OH254399   3.045   1.883  16.470 -0.2324  0.1254  0.1763
10995TIP3    H154400   3.081   1.875  16.382 -3.0941  0.1223 -1.1327
10995TIP3    H254401   2.951   1.895  16.456 -0.6710  1.1782  3.2221
10996TIP3   OH254402   5.122   0.591  16.102  0.5500  0.1935 -0.2993
10996TIP3    H154403   5.087   0.647  16.032  0.8832 -0.7211 -1.2325
10996TIP3    H254404   5.211   0.624  16.117  0.1396  1.0057  0.3859
10997TIP3   OH254405   1.664   1.757  12.324 -0.3287  0.1472  0.3530
10997TIP3    H154406   1.753   1.789  12.339  0.3367  0.3766 -3.2719
10997TIP3    H254407   1.666   1.665  12.349  0.7116  0.3256  0.9530
10998TIP3   OH254408   0.065   4.101   0.313 -0.7550  0.3946  0.6130
10998TIP3    H154409   0.103   4.014   0.327  0.3327  0.9268  1.0661
10998TIP3    H254410   0.026   4.124   0.397 -0.4313  0.6283  0.7020
10999TIP3   OH254411   6.439   0.891  11.368  0.0233 -0.0024 -0.1391
10999TIP3    H154412   6.454   0.970  11.316 -0.8338 -0.5648 -1.2862
10999TIP3    H254413   6.401   0.829  11.306 -2.6126 -0.1910  1.5100
11000TIP3   OH254414   1.717   6.079  14.031 -0.0406 -0.6198  0.6824
11000TIP3    H154415   1.773   6.006  14.004 -0.0038 -0.2214 -0.3515
11000TIP3    H254416   1.773   6.156  14.026  0.4746 -0.6823  3.5571
11001TIP3   OH254417   5.094   5.273   3.102 -0.2930 -0.4464 -0.2919
11001TIP3    H154418   5.139   5.357   3.098  4.1496 -2.5734 -1.4212
11001TIP3    H254419   5.065   5.266   3.193  0.3162  1.7681  0.1333
11002TIP3   OH254420   2.211   0.968  12.994 -0.4285 -0.1483  0.2684
11002TIP3    H154421   2.291   0.918  12.980 -0.1666  0.6405 -1.2705
11002TIP3    H254422   2.224   1.013  13.077  0.0850 -1.1915  0.7653
11003TIP3   OH254423   6.570   6.340   0.666  0.1543 -0.0831 -0.0872
11003TIP3    H154424   6.568   6.393   0.746 -1.3400 -1.1679  0.6629
11003TIP3    H254425   6.481   6.348   0.631 -0.1246 -1.9967  0.0433
11004TIP3   OH254426   2.662   0.824   0.360  0.1435 -0.5725  0.0433
11004TIP3    H154427   2.586   0.788   0.405 -0.1324 -0.1914 -0.1190
11004TIP3    H254428   2.660   0.783   0.273  0.3819 -0.9075  0.1924
11005TIP3   OH254429   4.346   6.331   4.404  0.2711  0.6093  0.1811
11005TIP3    H154430   4.352   6.315   4.310 -1.0842  1.9118 -0.1712
11005TIP3    H254431   4.313   6.421   4.411 -0.7894  0.1480  1.8676
11006TIP3   OH254432   4.628   6.653   6.334  0.3041  0.3572 -0.4740
11006TIP3    H154433   4.612   6.561   6.357  0.9399 -0.0413 -1.5666
11006TIP3    H254434   4.578   6.703   6.399 -0.6283 -0.7670 -0.2998
11007TIP3   OH254435   6.261   3.041   1.020  0.5641 -0.7581  0.1010
11007TIP3    H154436   6.174   3.061   0.984  1.3861  0.5112 -1.2920
11007TIP3    H254437   6.311   3.122   1.009  1.9374 -1.4554  0.9038
11008TIP3   OH254438   4.519   5.602  16.562  0.5703  0.7318  0.0273
11008TIP3    H154439   4.435   5.556  16.567  0.7286  0.5266  1.2676
11008TIP3    H254440   4.578   5.548  16.615  1.2547  1.3530 -0.0903
11009TIP3   OH254441   5.684   5.844  13.786 -0.7437  0.0038 -0.1081
11009TIP3    H154442   5.601   5.892  13.785 -0.2243  0.9293 -0.5855
11009TIP3    H254443   5.739   5.891  13.723  0.1159 -0.6417  0.1470
11010TIP3   OH254444   6.373   2.797  11.198  0.1752 -0.8819 -0.0174
11010TIP3    H154445   6.369   2.793  11.294 -2.8628  0.7943  0.0600
11010TIP3    H254446   6.428   2.873  11.179 -2.7935  1.6322  0.6695
11011TIP3   OH254447   4.696   3.928  16.551  0.0495 -0.7348 -0.4093
11011TIP3    H154448   4.697   3.844  16.596 -0.1924 -0.8811 -0.6754
11011TIP3    H254449   4.615   3.928  16.501 -0.1729 -0.1590 -0.0661
11012TIP3   OH254450   0.114   5.014   5.487 -0.6300  0.0010  0.7426
11012TIP3    H154451   0.179   4.976   5.545  0.0632  0.0143 -0.0009
11012TIP3    H254452   0.069   4.938   5.448  0.7582 -0.1064 -0.7473
11013TIP3   OH254453   4.872   4.746  12.191  0.0760 -0.2015  0.4508
11013TIP3    H154454   4.878   4.727  12.097  1.6496  1.1622  0.2385
11013TIP3    H254455   4.961   4.772  12.216 -0.8218  1.7825  1.8032
11014TIP3   OH254456   0.722   2.690  14.865 -0.1434  0.6487 -0.3077
11014TIP3    H154457   0.679   2.751  14.806  2.2183  0.7177 -2.1047
11014TIP3    H254458   0.675   2.607  14.855 -2.6400  1.7650  1.2824
11015TIP3   OH254459   6.077   1.960   5.040 -0.1056 -0.0471  0.0502
11015TIP3    H154460   6.127   1.917   5.109  0.4981 -1.6176 -1.2918
11015TIP3    H254461   6.103   2.052   5.046 -0.4955 -0.0347  2.2243
11016TIP3   OH254462   4.569   2.748   0.213  0.2590 -0.3146  0.4220
11016TIP3    H154463   4.588   2.842   0.215 -0.7002 -0.1149  1.7412
11016TIP3    H254464   4.624   2.714   0.143  2.6290  0.7884  1.6244
11017TIP3   OH254465   3.553   3.620  15.266  0.1507 -0.0049 -0.1408
11017TIP3    H154466   3.573   3.611  15.173  1.4498 -0.1359  0.1286
11017TIP3    H254467   3.458   3.623  15.270  0.0789  1.3850 -1.6054
11018TIP3   OH254468   2.120   6.119   3.989 -0.4323 -0.9808 -0.1390
11018TIP3    H154469   2.143   6.093   3.900 -0.9059 -1.4741 -0.1260
11018TIP3    H254470   2.030   6.089   4.000 -0.5901 -0.3646  0.2950
11019TIP3   OH254471   2.776   1.213   4.613 -0.4297 -0.6220  0.2182
11019TIP3    H154472   2.802   1.128   4.578 -2.1201 -0.4603 -1.6298
11019TIP3    H254473   2.809   1.276   4.549  0.1428  0.0804  1.1774
11020TIP3   OH254474   0.630   2.546   5.546  0.1463 -0.0762  0.0326
11020TIP3    H154475   0.714   2.518   5.510  0.3452 -0.1745  0.5659
11020TIP3    H254476   0.624   2.639   5.524  0.4044 -0.0654  0.0022
11021TIP3   OH254477   0.280   0.269  13.927 -0.2327 -0.0159 -0.0078
11021TIP3    H154478   0.228   0.188  13.930  0.7803 -0.7706 -1.2237
11021TIP3    H254479   0.308   0.283  14.017 -1.9353  0.0298  0.5562
11022TIP3   OH254480   6.524   2.420   2.503 -0.6564 -0.2746  0.5365
11022TIP3    H154481   6.565   2.336   2.480 -0.2235  0.3170 -0.9577
11022TIP3    H254482   6.442   2.420   2.455 -0.0630  0.6856 -0.5177
11023TIP3   OH254483   5.173   5.153  16.694 -0.6478 -0.6701  0.7509
11023TIP3    H154484   5.100   5.120  16.641  1.4788 -0.4028 -2.6521
11023TIP3    H254485   5.230   5.077  16.707  0.5232 -0.0079 -0.3915
11024TIP3   OH254486   6.679   0.026  16.667  0.1118 -0.1646 -0.6340
11024TIP3    H154487   6.655  -0.066  16.662 -0.4055 -0.1140  0.5993
11024TIP3    H254488   6.597   0.073  16.655 -0.2362  0.0402  1.9371
11025TIP3   OH254489   1.329   2.606  12.396  0.5826 -0.2945 -0.1121
11025TIP3    H154490   1.236   2.626  12.390  0.6699  0.0565 -0.2991
11025TIP3    H254491   1.337   2.552  12.475  0.4512  0.9645  0.7935
11026TIP3   OH254492   1.950   0.244  13.217  0.2569  0.4573 -0.6497
11026TIP3    H154493   1.890   0.223  13.146  0.2087  0.6291 -0.6589
11026TIP3    H254494   1.914   0.197  13.293  2.8451 -3.7296 -1.6741
11027TIP3   OH254495   4.057   4.203   3.912 -0.2581  0.1690 -0.0192
11027TIP3    H154496   4.115   4.151   3.968  0.2046 -0.1242 -0.7598
11027TIP3    H254497   4.112   4.273   3.878 -0.5951  0.4808  0.0741
11028TIP3   OH254498   5.999   3.384  17.074 -0.3726  0.3483  0.2358
11028TIP3    H154499   5.964   3.383  16.985 -0.5073 -3.2310  0.1995
11028TIP3    H254500   6.094   3.386  17.063 -0.2108 -3.3292 -0.2851
11029TIP3   OH254501   5.217   2.591   5.324  0.3268  0.4484  0.3223
11029TIP3    H154502   5.244   2.584   5.415 -1.0271  0.6849  0.7626
11029TIP3    H254503   5.232   2.503   5.288  1.5630  0.5469  0.5467
11030TIP3   OH254504   0.231   1.171   5.072  0.0351  0.1851 -0.2255
11030TIP3    H154505   0.177   1.247   5.092 -0.7721 -0.4268 -0.0061
11030TIP3    H254506   0.299   1.170   5.139 -1.9836 -1.2223  1.9184
11031TIP3   OH254507   1.561   5.019   2.317  0.0573 -0.0575  0.4136
11031TIP3    H154508   1.638   4.981   2.274  0.2938  1.3250 -0.4764
11031TIP3    H254509   1.490   4.959   2.297  0.9615 -1.6109  1.6491
11032TIP3   OH254510   6.434   2.488  14.734 -0.1117 -0.2172  0.0550
11032TIP3    H154511   6.394   2.465  14.650  0.2530 -0.1919 -0.1275
11032TIP3    H254512   6.465   2.405  14.769  0.8623 -0.0628 -0.4239
11033TIP3   OH254513   0.668   5.844  12.568  0.0787 -0.2375 -0.5028
11033TIP3    H154514   0.741   5.899  12.596  0.8342 -0.7507 -1.4028
11033TIP3    H254515   0.592   5.902  12.569  0.1372 -0.1011  2.0710
11034TIP3   OH254516   4.617   4.778  13.394  0.2546  0.3686  0.1075
11034TIP3    H154517   4.712   4.766  13.383  0.3905 -0.3963  1.8414
11034TIP3    H254518   4.589   4.820  13.312  2.2541  1.6015 -0.0190
11035TIP3   OH254519   5.647   3.052  14.516 -0.3479 -0.4693  0.0089
11035TIP3    H154520   5.680   3.106  14.588  0.3014  0.5827 -1.0495
11035TIP3    H254521   5.690   2.967  14.529 -0.3383 -0.3400  0.9178
11036TIP3   OH254522   4.119   6.362  16.107 -0.5072  0.5813 -0.2150
11036TIP3    H154523   4.089   6.429  16.169 -1.6299  1.0671 -1.2549
11036TIP3    H254524   4.147   6.290  16.163 -0.2511  1.4999  0.9006
11037TIP3   OH254525   4.039   0.884  13.478  0.1952 -0.1260 -0.2604
11037TIP3    H154526   4.052   0.819  13.409  1.6484 -0.5326  0.3464
11037TIP3    H254527   4.127   0.896  13.515 -0.9233 -2.1002  3.4672
11038TIP3   OH254528   4.263   4.805   2.098  0.8052  0.9385 -0.4290
11038TIP3    H154529   4.348   4.801   2.143  1.2714 -1.0996 -1.3642
11038TIP3    H254530   4.209   4.861   2.154  2.6070  1.9193  0.4346
11039TIP3   OH254531   0.701   5.221   1.727  0.1411 -0.4035 -0.3908
11039TIP3    H154532   0.627   5.271   1.762 -0.0820 -1.2987  0.4674
11039TIP3    H254533   0.777   5.255   1.774  0.2828  0.4378 -1.1913
11040TIP3   OH254534   4.890   6.525   0.639 -0.4985  0.4019  0.8097
11040TIP3    H154535   4.981   6.540   0.612 -0.1227  1.9690  2.7444
11040TIP3    H254536   4.890   6.437   0.676 -0.2445 -0.3799 -0.9691
11041TIP3   OH254537   2.819   2.963  15.861 -0.1659  0.1918  0.0827
11041TIP3    H154538   2.733   3.003  15.845 -0.2171  0.0506  0.0062
11041TIP3    H254539   2.845   2.928  15.777 -1.0193 -1.6901  0.5548
11042TIP3   OH254540   6.238   4.072   1.477  0.3557  0.2035 -0.3133
11042TIP3    H154541   6.166   4.016   1.506 -0.9790  1.4450 -1.1160
11042TIP3    H254542   6.284   4.020   1.411 -0.9988  0.1217 -1.2112
11043TIP3   OH254543   2.341   3.601   4.886  0.4948  0.0963 -0.0753
11043TIP3    H154544   2.319   3.602   4.793  1.1836 -0.2820 -0.2478
11043TIP3    H254545   2.341   3.693   4.912 -0.9134  0.1381 -0.1458
11044TIP3   OH254546   3.666   1.378   4.547  0.3777  0.0303  0.3113
11044TIP3    H154547   3.603   1.399   4.478  0.4259  1.8746  0.7648
11044TIP3    H254548   3.746   1.354   4.500  0.3583  1.1023 -0.3203
11045TIP3   OH254549   4.511   1.770  13.259 -0.1253  0.1497 -0.1677
11045TIP3    H154550   4.568   1.742  13.188 -0.3876 -2.5931  0.5728
11045TIP3    H254551   4.425   1.781  13.218  0.2995  1.4631 -0.7580
11046TIP3   OH254552   4.268   2.501   4.835 -0.0601 -0.0570 -0.1194
11046TIP3    H154553   4.316   2.510   4.917  0.7753 -0.1357 -0.5921
11046TIP3    H254554   4.299   2.572   4.780  0.0286 -0.5173 -0.6812
11047TIP3   OH254555   1.295   5.866  12.471 -0.2175  0.8239  0.2139
11047TIP3    H154556   1.339   5.936  12.424 -1.6893  0.8013 -1.3150
11047TIP3    H254557   1.289   5.795  12.407 -1.8847  0.6288  0.5394
11048TIP3   OH254558   2.616   4.518  15.761  0.8823 -0.3652  0.5494
11048TIP3    H154559   2.576   4.433  15.780  1.7886 -0.8318  0.4202
11048TIP3    H254560   2.685   4.526  15.826  1.9702 -0.5530 -0.5405
11049TIP3   OH254561   0.167   0.166  14.354 -0.0179 -0.0998 -0.0418
11049TIP3    H154562   0.160   0.095  14.419 -0.0964  0.7170  0.8734
11049TIP3    H254563   0.222   0.232  14.397 -1.7552  1.3592  0.0444
11050TIP3   OH254564   1.241   1.793   2.178  0.8909 -0.0776  0.2276
11050TIP3    H154565   1.255   1.869   2.121 -1.5181  0.3463  0.1168
11050TIP3    H254566   1.329   1.761   2.196  1.8467  0.8377 -2.2878
11051TIP3   OH254567   0.488   0.517   6.035  0.2113 -0.5627  0.4754
11051TIP3    H154568   0.526   0.594   6.077 -0.9351 -0.7985  2.0093
11051TIP3    H254569   0.513   0.444   6.091  0.5430 -1.2135 -0.4879
11052TIP3   OH254570   3.859   3.422   4.028 -0.2630  0.6906  0.2623
11052TIP3    H154571   3.822   3.509   4.012  0.4523  0.9720  0.0777
11052TIP3    H254572   3.875   3.419   4.122 -0.0571  0.8598  0.2346
11053TIP3   OH254573   3.401   0.307   5.229  0.0330  0.0009 -0.2244
11053TIP3    H154574   3.398   0.301   5.134  0.1709 -1.2773 -0.1612
11053TIP3    H254575   3.323   0.260   5.259 -0.3865  0.9853  0.2880
11054TIP3   OH254576   5.427   2.940   0.622 -0.0032 -0.3848  0.4188
11054TIP3    H154577   5.488   2.867   0.627 -1.1501 -1.4591 -0.7536
11054TIP3    H254578   5.368   2.918   0.551 -0.0886  1.9306 -0.3146
11055TIP3   OH254579   4.489   3.747  11.736 -0.2058 -0.2811  0.0813
11055TIP3    H154580   4.453   3.755  11.648 -1.4374  1.0364  0.6750
11055TIP3    H254581   4.489   3.836  11.771  0.3684 -0.7602  1.3793
11056TIP3   OH254582   5.398   5.778   1.393  0.1626  0.0190 -0.2760
11056TIP3    H154583   5.455   5.805   1.465  0.8550 -0.6884 -0.5370
11056TIP3    H254584   5.431   5.692   1.368 -1.5246 -0.7525  0.0610
11057TIP3   OH254585   1.097   1.254  16.216 -0.6205  0.0373 -0.2637
11057TIP3    H154586   1.021   1.227  16.268 -0.5779  0.0032 -0.2203
11057TIP3    H254587   1.155   1.178  16.216  0.0125  0.4931  0.7844
11058TIP3   OH254588   6.550   6.258  17.076  0.2405 -0.0252 -0.0255
11058TIP3    H154589   6.636   6.238  17.114  0.1222 -1.6446 -0.5307
11058TIP3    H254590   6.564   6.339  17.027  1.4627 -0.2161 -0.0345
11059TIP3   OH254591   2.695   6.471  14.707  0.0135 -0.0663  0.5691
11059TIP3    H154592   2.682   6.564  14.725  1.5714  0.6127 -1.3718
11059TIP3    H254593   2.704   6.467  14.612 -3.3351 -2.7019  0.1817
11060TIP3   OH254594   6.611   5.158   6.157  0.4540  0.1933  0.0990
11060TIP3    H154595   6.680   5.108   6.113  0.2660  2.2053 -2.7184
11060TIP3    H254596   6.543   5.169   6.091 -1.3878  0.6491  1.9525
11061TIP3   OH254597   6.530   4.078  14.620 -0.4737  0.1615 -0.7782
11061TIP3    H154598   6.585   4.146  14.581 -1.5001  1.7110  0.3639
11061TIP3    H254599   6.566   4.066  14.708 -1.5361  0.7417 -0.2439
11062TIP3   OH254600   6.380   4.667   4.044  0.1373 -0.2033  0.6416
11062TIP3    H154601   6.450   4.657   4.108  0.1634  0.9290  0.8037
11062TIP3    H254602   6.352   4.577   4.025  1.1217 -0.6259  1.1251
11063TIP3   OH254603   4.973   4.200   1.458  0.1897  0.2527 -0.0967
11063TIP3    H154604   4.976   4.128   1.395 -1.0409 -0.1655  0.3088
11063TIP3    H254605   5.044   4.180   1.520  0.4939 -0.0731 -0.5420
11064TIP3   OH254606   1.481   0.605   4.761  0.7694  0.1196  0.3784
11064TIP3    H154607   1.540   0.673   4.793 -1.2269  1.5077  1.2976
11064TIP3    H254608   1.515   0.582   4.675  1.6517  2.0799  0.1603
11065TIP3   OH254609   5.094   0.006   6.167  0.5841  0.0685 -0.0107
11065TIP3    H154610   5.066   0.092   6.138  0.9470 -0.3308 -1.6695
11065TIP3    H254611   5.180   0.021   6.207 -0.7137  0.9022  2.7134
11066TIP3   OH254612   5.634   0.744   0.361  0.5517 -0.0258  0.0588
11066TIP3    H154613   5.601   0.787   0.440 -0.1804 -1.3507  0.4981
11066TIP3    H254614   5.559   0.743   0.301  0.0604 -2.0533  0.6456
11067TIP3   OH254615   3.068   2.891  13.168  0.2566 -0.1697  0.5385
11067TIP3    H154616   3.113   2.846  13.096  1.3933  1.5899  0.0809
11067TIP3    H254617   3.032   2.970  13.127  0.4957  0.6051  1.7900
11068TIP3   OH254618   4.352   1.225  11.621 -0.1750 -0.0523 -0.4804
11068TIP3    H154619   4.259   1.241  11.636  0.4024  2.1479  1.5204
11068TIP3    H254620   4.364   1.237  11.527 -2.2525 -3.0474 -1.2838
11069TIP3   OH254621   5.560   5.152  15.427  0.6803 -0.1621  0.7442
11069TIP3    H154622   5.557   5.195  15.341  0.4091 -1.2951  0.1776
11069TIP3    H254623   5.543   5.224  15.489  2.0293  0.8924 -0.0474
11070TIP3   OH254624   1.706   5.956  15.109 -0.0210  0.2555 -0.4728
11070TIP3    H154625   1.731   5.985  15.021 -0.9444 -0.1952 -0.8997
11070TIP3    H254626   1.771   5.996  15.167  1.6042 -0.8025 -1.5000
11071TIP3   OH254627   5.401   2.007   1.727  0.0500  0.2598 -0.0964
11071TIP3    H154628   5.439   1.922   1.749  2.3350  0.9688 -1.0131
11071TIP3    H254629   5.316   2.007   1.770 -0.4696 -2.8627 -0.8658
11072TIP3   OH254630   4.566   3.534  12.195 -0.0888 -0.1151  0.2805
11072TIP3    H154631   4.543   3.446  12.223 -1.0319  0.2310  0.6193
11072TIP3    H254632   4.579   3.526  12.100 -1.1824 -0.4137  0.1476
11073TIP3   OH254633   2.471   5.305  13.989  0.4665 -0.2676  0.3919
11073TIP3    H154634   2.513   5.264  13.913 -1.0792  1.0397 -1.2692
11073TIP3    H254635   2.385   5.265  13.993  0.4070 -0.0763  1.2839
11074TIP3   OH254636   2.456   5.652   3.121  0.0178  0.2857 -0.0410
11074TIP3    H154637   2.370   5.680   3.090 -0.4765  0.2568  1.2319
11074TIP3    H254638   2.457   5.557   3.109  0.9895  0.5539 -2.6607
11075TIP3   OH254639   0.556   0.476  11.483  0.5536  0.0010 -0.0497
11075TIP3    H154640   0.589   0.516  11.403 -0.5437 -0.7843 -0.9227
11075TIP3    H254641   0.635   0.454  11.533  1.2381  0.8534 -0.7247
11076TIP3   OH254642   1.864   6.715   4.148 -0.1318 -0.4820 -0.1302
11076TIP3    H154643   1.939   6.761   4.187 -0.4538 -0.4617  0.4890
11076TIP3    H254644   1.899   6.673   4.070  0.8598 -1.6409  0.9101
11077TIP3   OH254645   3.831   2.643   3.015  0.3242 -0.1805 -0.0460
11077TIP3    H154646   3.856   2.551   3.008  3.8984  0.7177 -1.0954
11077TIP3    H254647   3.908   2.687   3.052 -1.0413  2.4861 -0.0815
11078TIP3   OH254648   0.062   5.569   3.398 -1.0783 -0.2159  0.1733
11078TIP3    H154649   0.088   5.495   3.342  0.9787  1.3258 -1.0420
11078TIP3    H254650  -0.002   5.531   3.458  1.2207 -3.4975  0.8826
11079TIP3   OH254651   5.652   5.313   6.333  0.3444 -0.2141  0.1070
11079TIP3    H154652   5.615   5.317   6.421 -0.3976 -0.3815 -0.1905
11079TIP3    H254653   5.709   5.389   6.327 -0.3691  0.3484  0.3904
11080TIP3   OH254654   3.584   6.531   5.876  0.2227 -0.0310  0.2453
11080TIP3    H154655   3.582   6.557   5.784  0.3147 -0.5929  0.0857
11080TIP3    H254656   3.561   6.612   5.923 -1.7166 -0.1653 -0.3533
11081TIP3   OH254657   3.996   4.283  13.657 -0.0788 -0.0041  0.1423
11081TIP3    H154658   4.064   4.346  13.634  0.2396 -0.3456  0.1489
11081TIP3    H254659   3.914   4.331  13.643  0.1156 -0.0051 -1.1028
11082TIP3   OH254660   5.524   2.179   5.390 -0.3297  0.0126 -0.4400
11082TIP3    H154661   5.483   2.149   5.309 -0.7730 -0.6349  0.0075
11082TIP3    H254662   5.459   2.160   5.458 -0.4022  1.4877 -0.0463
11083TIP3   OH254663   5.008   3.773  16.863 -0.4691 -0.1349  0.6138
11083TIP3    H154664   5.076   3.793  16.928  0.1686  0.0884 -0.1161
11083TIP3    H254665   4.948   3.847  16.868 -1.1233 -0.7092  1.8321
11084TIP3   OH254666   2.752   4.616  16.562 -0.4217 -0.4661 -0.2625
11084TIP3    H154667   2.820   4.661  16.611 -0.0351 -2.4520  1.1584
11084TIP3    H254668   2.710   4.684  16.510  1.3014  1.1600  0.3738
11085TIP3   OH254669   5.017   1.733  13.744  0.4070 -0.7652  0.2798
11085TIP3    H154670   4.968   1.808  13.712  1.1450  0.1982  1.3367
11085TIP3    H254671   4.975   1.657  13.703 -0.2238  0.2203 -0.9641
11086TIP3   OH254672   0.450   6.617  10.834  0.0592 -0.1966 -0.7856
11086TIP3    H154673   0.407   6.553  10.778  0.5758 -0.8707 -0.4264
11086TIP3    H254674   0.434   6.585  10.923  0.6169 -0.0093 -0.6186
11087TIP3   OH254675   3.839   0.529   3.443  0.1036  0.0451  0.0353
11087TIP3    H154676   3.867   0.444   3.475  1.0795  0.2267 -0.3011
11087TIP3    H254677   3.826   0.516   3.349 -0.9593 -0.0309  0.1787
11088TIP3   OH254678   6.505   6.070   6.714 -0.1158  0.3152  0.7921
11088TIP3    H154679   6.494   6.015   6.637  1.0981  0.0940  0.7508
11088TIP3    H254680   6.547   6.150   6.680 -3.8608  2.3694  0.4384
11089TIP3   OH254681   1.683   4.339  14.669 -0.5641 -0.0975  0.1355
11089TIP3    H154682   1.696   4.381  14.754 -1.1374  1.6502 -0.6062
11089TIP3    H254683   1.726   4.253  14.678  0.3920  0.5086  1.7971
11090TIP3   OH254684   1.949   0.219  12.143  0.8616 -0.3270  0.6252
11090TIP3    H154685   1.953   0.292  12.081  1.4579 -1.7706 -1.1582
11090TIP3    H254686   2.027   0.231  12.198  2.8906 -1.3161 -1.8022
11091TIP3   OH254687   5.503   6.077   4.733 -0.1533 -0.6427 -0.4695
11091TIP3    H154688   5.527   6.169   4.719 -0.4036 -0.6083 -0.6659
11091TIP3    H254689   5.576   6.028   4.695  0.8709 -0.5240  1.2104
11092TIP3   OH254690   6.064   2.332  13.491 -0.0269  0.1996  0.2044
11092TIP3    H154691   6.029   2.255  13.535  2.3648 -1.0257  0.1223
11092TIP3    H254692   5.988   2.372  13.449 -1.7460 -0.6963  2.2661
11093TIP3   OH254693   3.571   5.003   4.608 -0.1514  0.0879 -0.2824
11093TIP3    H154694   3.641   4.971   4.552 -1.9458 -1.9393 -1.5338
11093TIP3    H254695   3.531   5.074   4.559 -0.8576 -0.7817 -0.9993
11094TIP3   OH254696   5.065   2.733   5.121 -0.4352  0.5859  0.1598
11094TIP3    H154697   4.999   2.675   5.085 -0.9774  0.9674  0.5278
11094TIP3    H254698   5.103   2.685   5.194  0.3422 -0.0016 -0.6105
11095TIP3   OH254699   3.510   5.417   1.208 -0.6900 -0.2686  0.2096
11095TIP3    H154700   3.445   5.483   1.232 -1.5888 -0.3887 -1.7048
11095TIP3    H254701   3.558   5.399   1.289 -3.1482 -0.3035  1.7450
11096TIP3   OH254702   0.053   3.830  16.056  0.0955  0.7615 -0.0655
11096TIP3    H154703   0.028   3.905  16.111 -0.3163  0.5876 -0.0192
11096TIP3    H254704   0.123   3.865  16.001  1.9521  0.4152  1.9218
11097TIP3   OH254705   3.470   1.743  16.367 -0.1912  0.1604  0.5036
11097TIP3    H154706   3.396   1.683  16.352 -1.3007  1.6938 -0.5699
11097TIP3    H254707   3.547   1.695  16.337 -1.1371 -0.5238 -0.9520
11098TIP3   OH254708   1.275   6.338  15.506 -0.0357  0.3066  0.3250
11098TIP3    H154709   1.207   6.317  15.442  0.2265  2.1604 -0.6532
11098TIP3    H254710   1.333   6.263  15.505  0.3889  0.5580 -2.2524
11099TIP3   OH254711   2.352   3.831   5.123  0.5844  0.7749 -0.4285
11099TIP3    H154712   2.396   3.765   5.177  0.5864  0.6209 -0.6196
11099TIP3    H254713   2.261   3.828   5.152  0.5617  0.6082 -0.5163
11100TIP3   OH254714   0.767   4.887   2.299  0.1997 -0.2757 -0.2633
11100TIP3    H154715   0.720   4.878   2.216  1.1082  0.6324 -0.9081
11100TIP3    H254716   0.794   4.798   2.321  3.6759 -0.1973 -3.2345
11101TIP3   OH254717   3.589   2.042  17.169  0.5030  0.2199  0.2397
11101TIP3    H154718   3.597   2.069  17.260 -0.9027 -1.3974  0.8782
11101TIP3    H254719   3.496   2.050  17.149  0.5219 -1.1168 -0.4911
11102TIP3   OH254720   6.556   5.024  16.566  0.4264  0.2311 -0.3791
11102TIP3    H154721   6.462   5.038  16.558  0.3292  0.4343  0.8016
11102TIP3    H254722   6.573   5.033  16.660  1.7846  1.2595 -0.6784
11103TIP3   OH254723   5.070   0.121  13.534 -0.1910 -0.4162 -0.6310
11103TIP3    H154724   5.151   0.120  13.483 -0.3715  2.2023 -1.1090
11103TIP3    H254725   5.098   0.118  13.625  0.3198 -1.3731 -0.8062
11104TIP3   OH254726   1.431   3.577  15.440  1.0227 -0.0002  0.2768
11104TIP3    H154727   1.393   3.659  15.408 -1.7135 -0.7074  1.3819
11104TIP3    H254728   1.489   3.604  15.511 -0.7121  0.9832  1.3966
11105TIP3   OH254729   0.308   3.917   3.603 -0.4258  0.3160  0.6618
11105TIP3    H154730   0.297   3.836   3.654  1.6982  0.2297  1.0806
11105TIP3    H254731   0.250   3.906   3.527 -0.9948 -1.0961  1.2632
11106TIP3   OH254732   5.503   0.130   0.780 -0.1331  0.3167 -0.0255
11106TIP3    H154733   5.466   0.206   0.825 -0.0182 -0.4453  1.4174
11106TIP3    H254734   5.593   0.125   0.812  0.3585  0.4904 -1.3391
11107TIP3   OH254735   4.335   6.002  14.265  0.3423  0.1581 -0.2132
11107TIP3    H154736   4.242   6.016  14.285  0.2559 -3.2357  2.6433
11107TIP3    H254737   4.335   5.939  14.192  0.1856 -2.1873  1.6886
11108TIP3   OH254738   1.954   5.189  14.046  0.7337 -0.1877 -0.0356
11108TIP3    H154739   1.926   5.179  14.137  0.9798 -1.1708 -0.0617
11108TIP3    H254740   1.944   5.283  14.029 -0.4786 -0.1751  0.6116
11109TIP3   OH254741   1.649   5.582   3.312 -0.0976 -0.2441  0.5336
11109TIP3    H154742   1.605   5.518   3.255 -1.8259  0.8069  0.6060
11109TIP3    H254743   1.723   5.534   3.350 -1.5623 -2.3481  0.9123
11110TIP3   OH254744   1.539   5.207  17.155  0.3707  0.2660 -0.3184
11110TIP3    H154745   1.631   5.179  17.150  0.5210  0.0288  2.1704
11110TIP3    H254746   1.539   5.272  17.226 -1.2214  1.0562 -1.0075
11111TIP3   OH254747   2.463   5.152  16.013  0.6486  0.1705 -0.1370
11111TIP3    H154748   2.386   5.175  15.961 -0.3934 -1.0266  0.8082
11111TIP3    H254749   2.444   5.188  16.100 -0.4094 -2.8594  1.0166
11112TIP3   OH254750   6.179   1.157  14.954 -0.1258  0.2293 -0.4115
11112TIP3    H154751   6.257   1.181  15.004 -0.9329 -0.7512  1.4264
11112TIP3    H254752   6.209   1.088  14.895  0.1692 -1.1669  1.2788
11113TIP3   OH254753   2.090   5.679  13.202  0.1943 -0.9267 -0.7100
11113TIP3    H154754   2.120   5.650  13.116 -0.2939  0.5796 -1.4250
11113TIP3    H254755   2.025   5.747  13.184  0.0188 -0.6263  0.8492
11114TIP3   OH254756   4.891   1.303  10.945  0.4041  0.1107  0.5309
11114TIP3    H154757   4.848   1.221  10.920 -1.3129  1.0789  0.2201
11114TIP3    H254758   4.979   1.296  10.906  0.4134 -1.7014  0.7861
11115TIP3   OH254759   4.641   4.025  11.580  0.6781 -0.2557 -0.0915
11115TIP3    H154760   4.678   4.080  11.649  1.7328 -0.1427 -0.7367
11115TIP3    H254761   4.667   4.067  11.498 -1.5518  0.2876 -0.6103
11116TIP3   OH254762   1.752   6.126   3.497  0.2484  0.2272  0.3535
11116TIP3    H154763   1.684   6.158   3.439  0.5633 -0.7643 -0.6035
11116TIP3    H254764   1.834   6.146   3.452  0.6432  1.7781  1.6779
11117TIP3   OH254765   3.291   1.566  16.279 -0.1723  0.0059  0.4152
11117TIP3    H154766   3.247   1.605  16.203 -0.3568 -1.2125 -0.1444
11117TIP3    H254767   3.349   1.500  16.241  0.0523 -0.3270  1.3176
11118TIP3   OH254768   2.929   0.079   5.353 -0.1511 -0.0348 -0.1408
11118TIP3    H154769   2.916   0.133   5.431 -1.0680 -1.1795  0.5357
11118TIP3    H254770   2.927  -0.011   5.385  1.8481 -0.4973 -1.1786
11119TIP3   OH254771   5.514   4.521  17.036 -0.6457  0.2983 -0.3514
11119TIP3    H154772   5.519   4.575  16.958 -0.0440 -0.2703 -0.7162
11119TIP3    H254773   5.442   4.460  17.018 -2.3402  1.8974  0.6744
11120TIP3   OH254774   4.163   4.844   3.509 -0.3239 -0.5529  0.4315
11120TIP3    H154775   4.079   4.842   3.464 -0.4244  0.0627  0.5851
11120TIP3    H254776   4.163   4.765   3.563 -0.5036 -0.9197 -0.1001
11121TIP3   OH254777   4.901   4.676   2.946  0.4975  0.6139 -0.1716
11121TIP3    H154778   4.901   4.612   2.875  0.8981  0.3720  0.0434
11121TIP3    H254779   4.810   4.703   2.954  0.2498 -0.2547  0.0342
11122TIP3   OH254780   0.350   2.201  13.133  0.3894 -0.0106 -0.0726
11122TIP3    H154781   0.278   2.259  13.156  0.9472  0.1534  1.3210
11122TIP3    H254782   0.369   2.222  13.041 -2.4024 -1.2148 -1.0536
11123TIP3   OH254783   6.012   2.880  12.129  0.5912  0.1691  0.2702
11123TIP3    H154784   6.023   2.916  12.042 -0.9686  0.0037 -0.0246
11123TIP3    H254785   6.092   2.830  12.145  0.1276 -1.3999 -1.8752
11124TIP3   OH254786   3.804   4.811   5.187  0.1828  0.2258 -0.2549
11124TIP3    H154787   3.722   4.810   5.139 -0.1195 -0.2519  0.2653
11124TIP3    H254788   3.778   4.821   5.279  0.7078  0.1489 -0.0937
11125TIP3   OH254789   1.411   1.873   1.052 -0.0921  0.2016 -0.2196
11125TIP3    H154790   1.386   1.943   0.992  0.8644  1.0161  0.2996
11125TIP3    H254791   1.485   1.829   1.009 -0.7738 -0.5970 -0.6065
11126TIP3   OH254792   1.085   2.292   5.515 -0.4724 -0.2159 -0.0978
11126TIP3    H154793   1.044   2.369   5.552 -0.7371  0.9829 -2.6899
11126TIP3    H254794   1.175   2.319   5.497 -0.8796 -0.0201 -2.1230
11127TIP3   OH254795   2.697   2.664  12.449 -0.3306  0.2563 -0.1796
11127TIP3    H154796   2.760   2.696  12.513  0.4643  1.2604 -1.4315
11127TIP3    H254797   2.714   2.570  12.444  0.1939  0.3111  0.4056
11128TIP3   OH254798   2.315   3.590  12.902 -0.4945  0.0277 -0.0633
11128TIP3    H154799   2.254   3.519  12.886  1.5918 -2.1107  0.8422
11128TIP3    H254800   2.301   3.613  12.994  0.7059 -1.1973  0.4544
11129TIP3   OH254801   0.570   5.758   3.418 -0.2637  0.1964  0.2079
11129TIP3    H154802   0.629   5.774   3.492 -0.6539  0.1046  0.5406
11129TIP3    H254803   0.615   5.692   3.366  0.1359  0.4529  0.2197
11130TIP3   OH254804   5.012   6.044   3.890  0.6349  0.2187 -0.0292
11130TIP3    H154805   4.918   6.027   3.884  0.5170  0.5202  0.8058
11130TIP3    H254806   5.034   6.024   3.981  1.2544  0.7539 -0.0564
11131TIP3   OH254807   2.166   0.198  11.872 -0.0770 -0.0300 -0.1107
11131TIP3    H154808   2.254   0.166  11.889 -0.5466 -1.1290  0.3372
11131TIP3    H254809   2.133   0.226  11.957  0.1061  1.1214 -0.4004
11132TIP3   OH254810   6.291   5.549  14.294 -0.1352 -0.0216 -0.1481
11132TIP3    H154811   6.359   5.498  14.249 -0.2904 -1.4428  1.1313
11132TIP3    H254812   6.228   5.569  14.226  1.1799  0.6808 -1.2143
11133TIP3   OH254813   6.196   0.091  17.275 -0.5301  0.1359  0.2475
11133TIP3    H154814   6.125   0.028  17.259 -0.3051  0.0862 -0.5946
11133TIP3    H254815   6.160   0.150  17.340 -1.9654  1.0573 -1.2827
11134TIP3   OH254816   0.992   0.622  17.229 -0.0315 -0.1942  0.3394
11134TIP3    H154817   0.994   0.604  17.135  2.1968 -1.7444  0.5872
11134TIP3    H254818   1.052   0.696  17.241 -3.4132  2.8745  0.2141
11135TIP3   OH254819   6.695   0.183   5.743 -0.2056 -0.3611  0.8477
11135TIP3    H154820   6.703   0.224   5.657  1.7430 -1.2167  0.5558
11135TIP3    H254821   6.602   0.166   5.753 -0.4715 -0.3752 -1.1825
11136TIP3   OH254822   1.562   3.703   1.904  0.1368 -0.2173  0.0742
11136TIP3    H154823   1.508   3.664   1.835  2.7498 -1.6012 -1.3443
11136TIP3    H254824   1.567   3.636   1.971  0.0984 -0.0768  0.2193
11137TIP3   OH254825   5.329   4.919  14.266  0.5597 -0.4553  0.1800
11137TIP3    H154826   5.408   4.941  14.217  1.3973 -0.0180  1.6614
11137TIP3    H254827   5.260   4.969  14.222  1.4595  0.7500  0.0563
11138TIP3   OH254828   1.991   6.343   3.484  0.0415 -0.4559 -0.3682
11138TIP3    H154829   2.058   6.401   3.520 -0.3042 -0.0294 -0.3975
11138TIP3    H254830   1.951   6.393   3.413 -1.4115 -0.0261  0.6852
11139TIP3   OH254831   2.380   3.179   3.884 -0.5386  0.1533  0.1168
11139TIP3    H154832   2.300   3.225   3.857 -1.1259 -0.2660  1.0925
11139TIP3    H254833   2.357   3.138   3.967  0.9207  0.6117  0.7831
11140TIP3   OH254834   1.625   3.070   5.014 -0.3863  0.0486  0.0092
11140TIP3    H154835   1.641   3.101   4.925  0.6753  1.8629  0.7805
11140TIP3    H254836   1.530   3.077   5.025 -0.4267  0.6667 -0.6852
11141TIP3   OH254837   6.433   0.066  13.808  0.2470  0.1559 -0.3514
11141TIP3    H154838   6.347   0.100  13.830  0.5466  0.4743  0.3776
11141TIP3    H254839   6.427  -0.029  13.823  0.5841  0.4143  1.7023
11142TIP3   OH254840   5.743   5.747  15.158  0.2223 -0.3793 -0.6354
11142TIP3    H154841   5.818   5.799  15.186 -1.3089  1.4269  0.4049
11142TIP3    H254842   5.697   5.803  15.096 -1.2549 -0.6230  0.1934
11143TIP3   OH254843   2.063   0.454   1.965  0.0332  0.4786 -0.7374
11143TIP3    H154844   1.983   0.507   1.971  0.0832  0.6717 -1.6348
11143TIP3    H254845   2.092   0.445   2.056  0.3446  2.4882 -0.5928
11144TIP3   OH254846   6.014   1.585   0.328 -0.1140  0.2532 -0.1372
11144TIP3    H154847   6.027   1.621   0.240  2.1350  2.1920  0.8823
11144TIP3    H254848   6.023   1.660   0.386  1.1376 -1.3825  1.9182
11145TIP3   OH254849   5.392   2.996   3.737  0.0803  0.1860 -0.4249
11145TIP3    H154850   5.436   3.068   3.691  1.4358  0.8535  1.7498
11145TIP3    H254851   5.461   2.958   3.792 -0.5762 -2.8838 -1.5477
11146TIP3   OH254852   5.209   1.835   2.486 -0.1115  0.0016 -0.1697
11146TIP3    H154853   5.287   1.889   2.498  0.3809 -0.4590 -1.1689
11146TIP3    H254854   5.142   1.895   2.454 -0.0222  0.3000  0.1949
11147TIP3   OH254855   4.395   3.485  13.406 -0.1799 -0.3947 -0.4571
11147TIP3    H154856   4.374   3.578  13.405  1.3591 -0.0145 -0.8489
11147TIP3    H254857   4.459   3.474  13.335  0.6597 -1.4793  0.4243
11148TIP3   OH254858   3.852   2.881   1.191 -0.3379  0.0456 -0.1653
11148TIP3    H154859   3.854   2.831   1.273 -3.1777  0.4576  0.2537
11148TIP3    H254860   3.902   2.828   1.129 -0.4982 -1.6644  1.1122
11149TIP3   OH254861   5.428   3.128   6.846  0.2943 -0.1826 -0.0654
11149TIP3    H154862   5.441   3.093   6.758  2.0526  2.0607 -0.8189
11149TIP3    H254863   5.514   3.162   6.871 -0.5424  0.6978  1.8628
11150TIP3   OH254864   3.773   5.110   5.576 -0.6064 -0.4220 -0.9135
11150TIP3    H154865   3.715   5.165   5.628 -1.3446 -1.3944 -0.6881
11150TIP3    H254866   3.850   5.165   5.559 -0.1621 -0.1955  1.5296
11151TIP3   OH254867   1.372   6.229   0.919 -0.3454  0.1376  0.3085
11151TIP3    H154868   1.398   6.164   0.984  2.7226  0.4055 -0.5042
11151TIP3    H254869   1.356   6.179   0.839 -0.6761  0.1276  0.3809
11152TIP3   OH254870   5.247   0.848   5.259  0.0003  0.4026 -0.3196
11152TIP3    H154871   5.157   0.880   5.253  0.5364  1.9653 -0.3820
11152TIP3    H254872   5.301   0.922   5.230  1.3731 -0.0951  0.8641
11153TIP3   OH254873   5.775   3.898  12.786 -0.3172  0.0837 -0.1341
11153TIP3    H154874   5.820   3.814  12.785 -1.3902 -0.6241  2.5039
11153TIP3    H254875   5.687   3.879  12.756 -0.3625  0.4016 -0.2076
11154TIP3   OH254876   3.508   3.433   4.741  0.1961 -0.4401  0.4113
11154TIP3    H154877   3.567   3.492   4.694 -0.4414  1.0227  1.3723
11154TIP3    H254878   3.537   3.437   4.832 -2.8614  2.4350  1.4690
11155TIP3   OH254879   3.511   2.993  14.076 -0.9596 -0.0026  0.1874
11155TIP3    H154880   3.549   2.962  14.157  2.9627  0.7108 -1.1787
11155TIP3    H254881   3.501   3.087  14.089  0.8959  0.3279 -0.4889
11156TIP3   OH254882   4.509   2.996  11.333 -0.1031 -0.1918  0.4591
11156TIP3    H154883   4.446   3.008  11.261  0.2802  1.8161  0.3929
11156TIP3    H254884   4.515   2.901  11.343 -1.9978 -0.4896 -0.5375
11157TIP3   OH254885   6.684   3.708  12.607  0.2601 -0.2825  0.2519
11157TIP3    H154886   6.763   3.690  12.555  1.3023  1.2917  1.2082
11157TIP3    H254887   6.711   3.776  12.668 -1.5762 -0.4621  1.3262
11158TIP3   OH254888   2.949   1.902   3.122  0.1859 -0.8090  0.2632
11158TIP3    H154889   2.963   1.991   3.154  2.0252 -0.3651 -1.5634
11158TIP3    H254890   2.992   1.900   3.036  0.4977 -3.5641  0.4001
11159TIP3   OH254891   6.434   5.050   1.601 -0.4942  0.2745 -0.8169
11159TIP3    H154892   6.413   4.959   1.621  0.5444  0.2712  0.3348
11159TIP3    H254893   6.464   5.048   1.510  0.5470 -0.7258 -0.4724
11160TIP3   OH254894   3.657   4.536   2.567 -0.2489  0.8626 -0.2203
11160TIP3    H154895   3.744   4.571   2.545 -0.2948  0.7665 -0.5661
11160TIP3    H254896   3.648   4.459   2.511 -0.7507  1.1428 -0.5295
11161TIP3   OH254897   0.176   4.918   0.504  0.0973 -0.0196 -0.6400
11161TIP3    H154898   0.176   5.012   0.518  0.1730 -0.2007  0.6414
11161TIP3    H254899   0.086   4.891   0.520  0.0598 -0.1622 -1.0750
11162TIP3   OH254900   4.482   3.428   3.578  0.4245  0.8384  0.3160
11162TIP3    H154901   4.442   3.386   3.502  0.2719 -0.5891  1.1621
11162TIP3    H254902   4.408   3.456   3.631  0.5348  0.6612  0.5630
11163TIP3   OH254903   2.962   5.607   1.676 -0.1524  0.2136 -0.2138
11163TIP3    H154904   2.960   5.687   1.729 -1.4003  0.3787 -0.4644
11163TIP3    H254905   2.885   5.615   1.619 -0.1341 -1.0399 -0.4343
11164TIP3   OH254906   6.660   5.325  13.729 -0.1937 -0.2017  0.3935
11164TIP3    H154907   6.700   5.241  13.750  0.0723 -0.4976 -1.1669
11164TIP3    H254908   6.623   5.313  13.641  1.9882  2.0197 -0.9504
11165TIP3   OH254909   3.077   3.404   2.434 -0.0368 -0.0253 -0.0859
11165TIP3    H154910   3.070   3.351   2.355 -2.6585 -0.6403  0.4689
11165TIP3    H254911   3.022   3.480   2.417 -0.4695 -0.0598  1.0368
11166TIP3   OH254912   3.582   2.710  16.900 -0.4356  0.5799  0.1174
11166TIP3    H154913   3.584   2.735  16.808  0.3373  0.5386  0.1157
11166TIP3    H254914   3.533   2.780  16.943 -2.0017 -0.0923 -0.5160
11167TIP3   OH254915   0.475   3.110  16.012 -0.5414  0.1035 -0.1587
11167TIP3    H154916   0.429   3.027  16.025 -3.8395  1.7658 -0.0987
11167TIP3    H254917   0.405   3.174  15.998  1.8644  2.8170 -0.7152
11168TIP3   OH254918   4.826   0.225   1.823 -0.1458  0.0960  0.1185
11168TIP3    H154919   4.866   0.302   1.863  1.3313 -0.0222 -0.9981
11168TIP3    H254920   4.803   0.168   1.896  2.1765  0.0089  0.8800
11169TIP3   OH254921   2.754   2.571  17.346  0.1301 -0.0567  0.2781
11169TIP3    H154922   2.707   2.526  17.417 -2.0858  0.1968 -0.9548
11169TIP3    H254923   2.775   2.657  17.382 -0.6306 -0.0679  0.7861
11170TIP3   OH254924   2.337   4.467  16.462  0.8695  0.0421 -0.1410
11170TIP3    H154925   2.359   4.459  16.369 -0.2290  3.4927 -0.8333
11170TIP3    H254926   2.246   4.436  16.467  0.5679  0.8437 -0.4654
11171TIP3   OH254927   0.007   5.720   3.938 -0.3368  0.4873  0.5303
11171TIP3    H154928   0.025   5.745   3.847 -2.8818 -0.7448 -0.4185
11171TIP3    H254929  -0.018   5.628   3.934 -1.3277  0.6165  2.3499
11172TIP3   OH254930   1.388   2.474  13.801  0.0156  0.2130  0.2618
11172TIP3    H154931   1.468   2.452  13.849  0.5151  0.6505 -0.3547
11172TIP3    H254932   1.417   2.485  13.710 -0.5611  1.3947  0.2042
11173TIP3   OH254933   3.373   5.473   3.058  0.7508  0.4967  0.1791
11173TIP3    H154934   3.405   5.444   3.144 -0.7697  1.2229  1.0315
11173TIP3    H254935   3.429   5.427   2.995  1.1747 -0.9235  1.5321
11174TIP3   OH254936   0.192   4.215   1.924  0.2225  0.7092  0.1388
11174TIP3    H154937   0.176   4.225   1.830  0.5630  0.6075  0.0683
11174TIP3    H254938   0.128   4.150   1.952 -0.4156  1.3277  0.1378
11175TIP3   OH254939   1.555   0.190   5.637 -0.0641 -0.7319 -0.2961
11175TIP3    H154940   1.542   0.285   5.643 -0.1499 -0.6982 -0.9591
11175TIP3    H254941   1.519   0.156   5.719 -1.3708 -0.3250 -0.6700
11176TIP3   OH254942   4.837   3.463   5.800  0.0033 -0.4246 -0.6419
11176TIP3    H154943   4.849   3.507   5.716 -1.5780  0.3999 -0.4708
11176TIP3    H254944   4.758   3.411   5.789 -0.4432 -0.0013  0.4440
11177TIP3   OH254945   3.059   3.862  13.177 -0.2439  0.6230  0.3319
11177TIP3    H154946   3.148   3.897  13.185 -0.3936  1.2193 -0.4503
11177TIP3    H254947   3.068   3.769  13.198  0.7089  0.5176 -0.4586
11178TIP3   OH254948   5.186   2.355  13.799 -0.2752 -0.0092  0.2719
11178TIP3    H154949   5.265   2.388  13.841 -1.0360  1.2321  0.7997
11178TIP3    H254950   5.128   2.332  13.872  0.6844 -3.8868 -0.0225
11179TIP3   OH254951   5.747   3.882   5.995  0.2493 -0.4141  0.1382
11179TIP3    H154952   5.813   3.835   6.046  0.2932  0.1345  0.6007
11179TIP3    H254953   5.667   3.876   6.048 -0.5766 -2.5924 -1.2238
11180TIP3   OH254954   1.508   2.850  11.122 -0.0678 -0.1637 -0.2973
11180TIP3    H154955   1.598   2.882  11.109 -0.6570  1.7338 -0.0447
11180TIP3    H254956   1.482   2.818  11.036  0.6205 -0.1128 -0.5387
11181TIP3   OH254957   4.398   2.336   2.183  0.1196  0.4530 -0.8459
11181TIP3    H154958   4.322   2.297   2.228 -0.5613  1.9258 -0.6623
11181TIP3    H254959   4.471   2.279   2.207 -0.1627  1.2286  2.2962
11182TIP3   OH254960   6.061   1.627   4.214  0.2706 -0.0532  0.2236
11182TIP3    H154961   6.045   1.595   4.302 -1.0735  1.9142  0.7552
11182TIP3    H254962   6.115   1.705   4.226  1.4211 -0.6548 -0.8352
11183TIP3   OH254963   0.511   5.715  15.510  0.1826 -0.0866 -0.3529
11183TIP3    H154964   0.605   5.732  15.507  0.1171  0.4588  0.3867
11183TIP3    H254965   0.481   5.729  15.420  0.6217  0.8570 -0.3602
11184TIP3   OH254966   2.036   4.046  12.754  0.0669 -0.0084  0.1457
11184TIP3    H154967   1.991   3.964  12.772  0.0666 -0.2467 -0.8995
11184TIP3    H254968   2.129   4.025  12.761  0.0904 -0.2999 -0.8950
11185TIP3   OH254969   0.913   1.905  15.195 -0.0076 -0.4929 -0.6556
11185TIP3    H154970   0.943   1.995  15.210  1.5499 -0.9381 -0.8484
11185TIP3    H254971   0.848   1.890  15.263 -1.3457  1.2306 -1.4820
11186TIP3   OH254972   1.921   2.370  15.456 -0.0801  0.3140 -0.0217
11186TIP3    H154973   1.913   2.378  15.551 -0.4189 -0.1112 -0.0112
11186TIP3    H254974   1.847   2.418  15.421 -1.4847 -1.7083  0.0111
11187TIP3   OH254975   3.181   6.204   6.515 -0.4960 -0.1534  0.4425
11187TIP3    H154976   3.108   6.225   6.574  0.3868  1.2502  1.0896
11187TIP3    H254977   3.250   6.172   6.574  0.2091  0.7429  0.1179
11188TIP3   OH254978   0.788   0.911  16.550 -0.1407 -0.2978 -0.0388
11188TIP3    H154979   0.769   0.828  16.506 -0.7058 -0.5664  0.6987
11188TIP3    H254980   0.706   0.960  16.545 -0.4554 -0.6428  1.3690
11189TIP3   OH254981   2.157   6.051   2.087  0.1967  0.1874 -0.3495
11189TIP3    H154982   2.182   6.071   1.998  0.5030  0.3959 -0.2162
11189TIP3    H254983   2.189   6.125   2.139 -1.3418  0.8369 -0.2748
11190TIP3   OH254984   6.271   0.382  16.621  0.1781  0.1026  0.4421
11190TIP3    H154985   6.258   0.473  16.594 -2.5555 -1.0016 -2.7345
11190TIP3    H254986   6.206   0.369  16.690 -1.1268  0.0314 -0.7534
11191TIP3   OH254987   4.141   1.682   3.689  0.6272 -0.1585  0.6337
11191TIP3    H154988   4.090   1.606   3.716  1.3103 -0.5458  0.8707
11191TIP3    H254989   4.089   1.757   3.717  0.0732 -0.5374  0.6467
11192TIP3   OH254990   3.159   2.557  14.370  0.0537 -0.0524 -0.9673
11192TIP3    H154991   3.190   2.499  14.439  0.9943  0.5703 -0.8443
11192TIP3    H254992   3.239   2.594  14.333 -0.4653  0.0332 -2.0331
11193TIP3   OH254993   2.774   6.499  13.700  0.4143  0.1547 -0.2730
11193TIP3    H154994   2.700   6.510  13.640  1.0094  0.6603 -0.9275
11193TIP3    H254995   2.829   6.433  13.659  1.0743  0.8572 -0.5459
11194TIP3   OH254996   4.308   0.749   2.404  0.4030  0.6178 -0.3776
11194TIP3    H154997   4.230   0.719   2.357 -0.6060  1.6710  0.5568
11194TIP3    H254998   4.366   0.673   2.404 -1.0478 -0.5532 -0.1994
11195TIP3   OH254999   5.677   2.175   2.705 -0.5855  0.2903 -0.1820
11195TIP3    H155000   5.628   2.209   2.779 -0.5042  0.9843 -0.4393
11195TIP3    H255001   5.628   2.204   2.628 -0.8376 -0.6812 -0.4043
11196TIP3   OH255002   3.060   0.954  14.673  0.0570  0.5441  0.0103
11196TIP3    H155003   3.028   0.918  14.756  0.3723 -0.3373 -0.2368
11196TIP3    H255004   3.125   1.019  14.699  1.2130 -0.7496  0.4551
11197TIP3   OH255005   3.284   1.463   1.370  0.2874  0.0165  0.0880
11197TIP3    H155006   3.275   1.399   1.441  0.2457  0.1180  0.1749
11197TIP3    H255007   3.283   1.548   1.414  0.3400  0.0773 -0.0274
11198TIP3   OH255008   4.081   0.259  15.829  0.2650  0.0966  0.6554
11198TIP3    H155009   4.038   0.174  15.819 -1.3180  0.9542 -0.1718
11198TIP3    H255010   4.167   0.238  15.864 -0.7317 -1.7285  2.2005
11199TIP3   OH255011   4.570   3.523  11.889  0.2822 -0.4374 -0.4582
11199TIP3    H155012   4.522   3.448  11.855 -1.3046  0.0292  0.6296
11199TIP3    H255013   4.524   3.599  11.852 -0.9809  0.0673  1.9289
11200TIP3   OH255014   1.225   2.404  11.827  0.1196  0.3062  0.0063
11200TIP3    H155015   1.303   2.456  11.844  0.8621 -0.7048 -0.1940
11200TIP3    H255016   1.239   2.323  11.877 -0.5431 -0.1101 -0.4714
11201TIP3   OH255017   4.958   4.921  12.536 -0.2841 -0.2058 -0.3796
11201TIP3    H155018   4.956   4.989  12.604  0.6029 -1.7238  1.2426
11201TIP3    H255019   4.887   4.862  12.560  0.8116 -1.4133 -0.0325
11202TIP3   OH255020   0.239   4.499  14.621  0.1264 -0.0754 -0.1767
11202TIP3    H155021   0.252   4.425  14.562  1.6858 -0.0805  0.1454
11202TIP3    H255022   0.152   4.534  14.597 -0.3866 -1.6441 -0.7034
11203TIP3   OH255023   1.036   1.411   3.287 -0.3094 -0.0544 -0.1976
11203TIP3    H155024   1.101   1.482   3.289  0.4269 -0.6235  3.4232
11203TIP3    H255025   1.088   1.331   3.279 -0.4722 -0.4770  2.1595
11204TIP3   OH255026   3.499   0.480   6.187 -0.1607  0.3303 -0.0545
11204TIP3    H155027   3.573   0.508   6.240  0.2321  0.1726 -0.5141
11204TIP3    H255028   3.426   0.535   6.216 -0.4857 -1.0807  2.0733
11205TIP3   OH255029   3.019   0.557  15.051  0.8036 -0.1978  0.0682
11205TIP3    H155030   3.053   0.482  15.000  0.1906 -0.0793 -0.5304
11205TIP3    H255031   2.965   0.605  14.988 -0.9264 -0.6756  1.1324
11206TIP3   OH255032   0.086   6.196  10.682  0.2174 -0.0923  0.4072
11206TIP3    H155033   0.032   6.212  10.760  0.4813 -0.6268  0.7043
11206TIP3    H255034   0.038   6.238  10.611 -0.4567 -0.3204  0.7155
11207TIP3   OH255035   2.548   3.956   1.849  0.0787  0.5147 -0.5356
11207TIP3    H155036   2.503   3.949   1.765  0.3340 -0.1589 -0.6308
11207TIP3    H255037   2.625   3.900   1.839  0.3170  0.7352  0.0168
11208TIP3   OH255038   6.643   6.683   5.034  0.2352 -0.2418 -0.3435
11208TIP3    H155039   6.685   6.748   5.091 -0.1470  0.4147 -0.7866
11208TIP3    H255040   6.574   6.733   4.990 -0.9646 -1.2583  0.3145
11209TIP3   OH255041   0.821   2.125   0.760 -0.6016  0.2172 -0.1425
11209TIP3    H155042   0.835   2.030   0.761 -2.1105 -0.0693  2.2079
11209TIP3    H255043   0.776   2.142   0.677 -0.1397 -1.0689 -0.6877
11210TIP3   OH255044   0.453   0.975   5.425  0.5103  0.2253 -0.7318
11210TIP3    H155045   0.363   0.965   5.455  0.1904  1.6311 -1.1348
11210TIP3    H255046   0.497   0.895   5.454 -0.7482 -0.2822 -0.1319
11211TIP3   OH255047   3.546   1.212  13.026  0.1132 -0.0895  0.0375
11211TIP3    H155048   3.510   1.293  13.062 -0.9785 -0.5816  0.0928
11211TIP3    H255049   3.601   1.176  13.096  0.1458  0.3145  0.2203
11212TIP3   OH255050   0.928   3.922  14.492 -0.5883  1.2452 -0.3042
11212TIP3    H155051   0.860   3.891  14.551 -1.0040  2.3095 -0.2037
11212TIP3    H255052   0.997   3.856  14.498 -0.5778  1.3682  1.4232
11213TIP3   OH255053   5.388   3.263   0.712  0.1557  0.0611  0.2861
11213TIP3    H155054   5.420   3.335   0.658  0.5818 -0.6419 -0.4049
11213TIP3    H255055   5.423   3.184   0.672 -1.4559 -0.6515  0.1977
11214TIP3   OH255056   1.220   4.130  17.150 -0.0666  0.2207  0.1450
11214TIP3    H155057   1.242   4.203  17.091 -2.1130  0.8899  0.1186
11214TIP3    H255058   1.288   4.132  17.217  0.5216  1.4863 -0.4469
11215TIP3   OH255059   5.442   0.985   4.677  0.2483  0.4125 -0.6062
11215TIP3    H155060   5.521   1.037   4.695  0.8859  0.2132 -2.5719
11215TIP3    H255061   5.381   1.048   4.639 -0.6554  0.6053  1.0873
11216TIP3   OH255062   2.904   0.509  16.996  0.0871  0.2869 -0.5698
11216TIP3    H155063   2.929   0.588  16.947 -0.5725  1.9066  1.5540
11216TIP3    H255064   2.839   0.467  16.941  0.0548  1.5223 -1.5385
11217TIP3   OH255065   4.088   6.134   1.334 -0.3526  0.1333 -0.3786
11217TIP3    H155066   4.150   6.111   1.403 -0.7443  2.2261  0.7625
11217TIP3    H255067   4.003   6.106   1.367 -0.5513  1.2107  0.0596
11218TIP3   OH255068   4.806   1.798   5.339  0.8609  0.2441 -0.2932
11218TIP3    H155069   4.808   1.872   5.399  0.8090  0.1515 -0.1753
11218TIP3    H255070   4.776   1.725   5.393 -0.4698  0.4381 -0.7248
11219TIP3   OH255071   1.044   4.179   0.167  0.1017  0.1199 -0.4291
11219TIP3    H155072   1.046   4.250   0.230  0.3303  2.2763 -2.7045
11219TIP3    H255073   0.951   4.170   0.143  0.2309  0.6735 -1.1786
11220TIP3   OH255074   2.422   1.200   1.399 -0.3559  0.1976  0.5037
11220TIP3    H155075   2.504   1.156   1.423 -0.5693 -1.1570 -1.0582
11220TIP3    H255076   2.362   1.176   1.469  0.5653  1.2806  1.7193
11221TIP3   OH255077   4.268   3.764   1.485 -0.1371  0.2393  0.0284
11221TIP3    H155078   4.272   3.816   1.405  2.3927 -1.1775 -0.8801
11221TIP3    H255079   4.184   3.717   1.479 -2.0882  3.3862  0.4903
11222TIP3   OH255080   1.990   1.577   4.955  0.3401  0.3722  0.4790
11222TIP3    H155081   1.970   1.539   5.041  0.3509 -1.2733 -0.1938
11222TIP3    H255082   2.077   1.614   4.965  0.1317  0.6544  1.3182
11223TIP3   OH255083   3.476   3.364   0.685 -0.2847 -0.4181 -0.3611
11223TIP3    H155084   3.570   3.385   0.680  0.1357 -1.8817  0.7134
11223TIP3    H255085   3.435   3.426   0.625  1.0066  2.3026  1.3601
11224TIP3   OH255086   4.007   0.814   1.378  0.0687  0.1477 -0.1264
11224TIP3    H155087   4.026   0.844   1.289 -1.3403 -1.2355 -0.9371
11224TIP3    H255088   3.995   0.720   1.370 -1.6058  0.1921  1.2324
11225TIP3   OH255089   1.659   3.949   5.181  0.7722  0.2884  0.3536
11225TIP3    H155090   1.575   3.913   5.210  1.0149  1.7038  3.1712
11225TIP3    H255091   1.715   3.944   5.259  1.4201  4.7620  0.4275
11226TIP3   OH255092   5.669   1.722  12.009 -0.1496 -0.0487 -0.1480
11226TIP3    H155093   5.722   1.766  12.077  0.3108 -0.1366 -0.4478
11226TIP3    H255094   5.714   1.743  11.927  1.7444 -3.3274 -0.1297
11227TIP3   OH255095   5.042   0.955  14.490  0.1253  0.4080  0.3346
11227TIP3    H155096   5.036   1.045  14.458  0.9887 -0.1112 -1.3697
11227TIP3    H255097   4.953   0.920  14.480 -0.2027  1.0430  0.9648
11228TIP3   OH255098   3.765   6.423   4.843  0.6064  0.2315  0.0049
11228TIP3    H155099   3.849   6.425   4.796  0.1710  1.6466 -0.7755
11228TIP3    H255100   3.757   6.511   4.881 -0.6821  0.2382 -0.2320
11229TIP3   OH255101   2.506   2.865  10.514 -0.0459  0.6606 -0.8723
11229TIP3    H155102   2.417   2.838  10.538  0.8287 -0.5496  1.3187
11229TIP3    H255103   2.549   2.882  10.598  2.2026 -0.2069 -1.7694
11230TIP3   OH255104   6.106   0.681  12.994 -0.0009  0.3657 -0.1319
11230TIP3    H155105   6.183   0.680  12.936  1.1052  2.6631  1.1502
11230TIP3    H255106   6.124   0.611  13.057  2.0155  1.9193  1.1793
11231TIP3   OH255107   5.417   0.451  15.805  0.3153  0.3912  0.0153
11231TIP3    H155108   5.506   0.417  15.801  0.4801  0.7013  0.8011
11231TIP3    H255109   5.362   0.374  15.820  0.3597  0.1002 -1.2628
11232TIP3   OH255110   4.609   4.796  17.162  0.0342 -0.1147 -0.0969
11232TIP3    H155111   4.519   4.771  17.185 -0.0314  1.2731  1.3150
11232TIP3    H255112   4.663   4.752  17.228  0.6072 -2.2954 -1.9086
11233TIP3   OH255113   3.625   0.540  11.460 -0.0216 -0.1694  0.1208
11233TIP3    H155114   3.691   0.608  11.448  1.5280 -1.5183  0.6054
11233TIP3    H255115   3.596   0.520  11.371  1.9001 -1.0943 -0.3566
11234TIP3   OH255116   3.979   3.345   1.851  0.0636  0.3402  0.1047
11234TIP3    H155117   3.923   3.409   1.894 -0.4064 -0.9576  1.5245
11234TIP3    H255118   4.047   3.325   1.916  0.8966  0.2700 -0.7671
11235TIP3   OH255119   0.624   6.327  14.243 -0.1117  0.8310  0.6142
11235TIP3    H155120   0.667   6.407  14.273  1.4015  0.4266 -0.3793
11235TIP3    H255121   0.589   6.287  14.323  1.0072  1.3983  1.4017
11236TIP3   OH255122   6.583   0.781  12.421 -0.0395  0.4107 -0.0058
11236TIP3    H155123   6.540   0.754  12.340 -0.1178  2.2702 -0.6368
11236TIP3    H255124   6.675   0.789  12.399  0.2254 -0.7559  0.5816
11237TIP3   OH255125   1.120   5.052  15.161 -0.1335  0.0367  0.2630
11237TIP3    H155126   1.082   5.057  15.074  0.2530  1.0424  0.1383
11237TIP3    H255127   1.077   5.121  15.211 -0.6470 -0.7937  0.9996
11238TIP3   OH255128   6.158   4.202   2.579 -0.0850  0.1864  0.2049
11238TIP3    H155129   6.132   4.294   2.566  1.3216  0.3290 -2.1219
11238TIP3    H255130   6.138   4.185   2.671 -3.1733  1.8788 -0.0161
11239TIP3   OH255131   2.247   0.653  17.362 -0.2315  0.2206 -0.5679
11239TIP3    H155132   2.193   0.577  17.382 -2.4362  1.8540  0.0187
11239TIP3    H255133   2.242   0.662  17.267 -0.1761 -0.2082 -0.6104
11240TIP3   OH255134   5.164   1.436  14.254  0.1379  0.0310 -0.3192
11240TIP3    H155135   5.126   1.438  14.167  1.2320 -0.1515 -0.8243
11240TIP3    H255136   5.147   1.523  14.290 -0.8001 -0.0771 -0.4989
11241TIP3   OH255137   1.825   1.637  11.588 -0.1437 -0.5509 -0.0811
11241TIP3    H155138   1.871   1.564  11.630  2.0136  1.2533  0.9248
11241TIP3    H255139   1.889   1.708  11.587 -1.8340  1.0646 -1.8849
11242TIP3   OH255140   1.994   2.875   4.599  0.1980 -0.5203  0.0770
11242TIP3    H155141   2.066   2.856   4.660  1.7735 -0.3163 -1.6331
11242TIP3    H255142   2.000   2.807   4.532  0.6700  1.1363 -1.6514
11243TIP3   OH255143   3.161   5.604   0.175  0.2403  0.0991  0.0530
11243TIP3    H155144   3.176   5.651   0.257  0.2327  1.0216 -0.4663
11243TIP3    H255145   3.184   5.513   0.195  3.7546  0.8524  0.1472
11244TIP3   OH255146   2.360   2.330   1.500 -0.2679 -0.5758  0.0605
11244TIP3    H155147   2.369   2.312   1.594 -1.0903 -2.3992 -0.1589
11244TIP3    H255148   2.319   2.416   1.496  0.4738 -0.1373  1.3534
11245TIP3   OH255149   1.383   5.426  15.193  0.4796  0.0534 -0.1123
11245TIP3    H155150   1.426   5.494  15.142  0.2311 -0.6825 -1.3528
11245TIP3    H255151   1.293   5.456  15.204  0.8660  0.8319  1.0704
11246TIP3   OH255152   6.181   6.166   2.036 -0.1010 -0.0866 -0.4703
11246TIP3    H155153   6.100   6.209   2.063 -0.2281 -0.3969 -0.3498
11246TIP3    H255154   6.251   6.223   2.068 -0.2675  1.1533 -2.1574
11247TIP3   OH255155   5.077   1.269   6.967 -0.0527 -0.5239  0.6107
11247TIP3    H155156   5.084   1.173   6.962 -0.1688 -0.5175  0.3147
11247TIP3    H255157   5.133   1.300   6.896 -2.4256 -0.4490 -1.3112
11248TIP3   OH255158   3.305   1.928  17.424 -0.0788 -0.1608 -1.2567
11248TIP3    H155159   3.315   1.980  17.504  0.3218 -0.2628 -1.2380
11248TIP3    H255160   3.266   1.989  17.361 -0.4236 -0.0863 -0.9805
11249TIP3   OH255161   0.598   4.458  16.719  0.6779 -0.5429 -0.4609
11249TIP3    H155162   0.565   4.397  16.784  0.2150  0.6187  0.4460
11249TIP3    H255163   0.519   4.496  16.679  0.9578 -1.1132 -1.5840
11250TIP3   OH255164   5.120   1.282   6.102 -0.2339 -0.1830  0.0445
11250TIP3    H155165   5.125   1.269   6.197 -0.1478 -0.3739  0.0130
11250TIP3    H255166   5.199   1.240   6.067  1.4075  2.5516  0.1721
11251TIP3   OH255167   0.958   0.774   2.473  0.0652 -0.4597 -0.0910
11251TIP3    H155168   0.994   0.706   2.530  1.0513  2.9202  3.8277
11251TIP3    H255169   0.892   0.818   2.528 -0.0800  2.0913 -2.1477
11252TIP3   OH255170   0.501   0.299   2.272  0.2787 -0.0470  0.1109
11252TIP3    H155171   0.524   0.327   2.184  1.2889 -1.2020 -0.0251
11252TIP3    H255172   0.529   0.372   2.328  2.1614 -0.4084 -0.2892
11253TIP3   OH255173   3.873   2.744   4.222 -0.2110  0.4297 -0.5650
11253TIP3    H155174   3.906   2.828   4.190  1.0668  1.2053  2.3525
11253TIP3    H255175   3.827   2.766   4.303 -0.2810 -1.6147  0.0145
11254TIP3   OH255176   3.916   4.358   0.867 -0.6663  0.1870 -0.5461
11254TIP3    H155177   3.899   4.301   0.792 -0.0495  1.4006 -1.6575
11254TIP3    H255178   3.835   4.356   0.918 -1.4727  0.1203 -1.7862
11255TIP3   OH255179   4.605   0.295  13.865 -0.4716 -0.6792 -0.1519
11255TIP3    H155180   4.694   0.267  13.885 -0.3289  1.0155  1.9277
11255TIP3    H255181   4.614   0.385  13.835 -1.4321 -0.7901 -0.8233
11256TIP3   OH255182   5.849   0.186   5.241 -0.7601  0.0170  0.0610
11256TIP3    H155183   5.865   0.278   5.265  0.3447 -0.4379  1.1804
11256TIP3    H255184   5.825   0.189   5.148  0.7123  1.3108 -0.3091
11257TIP3   OH255185   5.354   3.647   4.746 -0.4090 -0.2556  0.0684
11257TIP3    H155186   5.328   3.705   4.674  1.8209 -2.8975 -3.1868
11257TIP3    H255187   5.339   3.699   4.825 -1.6040  3.4640 -2.3165
11258TIP3   OH255188   1.011   3.693  15.954 -0.6002 -0.2462  0.1247
11258TIP3    H155189   0.933   3.649  15.990  0.2961 -2.5499 -0.5701
11258TIP3    H255190   1.084   3.651  15.999  0.3198  0.5554 -0.5930
11259TIP3   OH255191   1.101   6.381  11.970  0.1777  0.0751 -0.4722
11259TIP3    H155192   1.041   6.358  11.899  0.1739 -0.1581 -0.3934
11259TIP3    H255193   1.144   6.461  11.941  0.3097 -0.1207 -0.8180
11260TIP3   OH255194   0.071   0.514  11.875 -0.2671 -0.2332 -0.3643
11260TIP3    H155195   0.042   0.521  11.784 -0.0273 -2.5013 -0.6539
11260TIP3    H255196   0.166   0.517  11.870 -0.2531  1.5490  0.0546
11261TIP3   OH255197   3.093   4.189  12.811 -0.3415  0.8172  0.6875
11261TIP3    H155198   3.113   4.272  12.769 -0.4458  0.9932  0.9764
11261TIP3    H255199   3.053   4.136  12.743 -0.2102  0.9806  0.4839
11262TIP3   OH255200   4.585   4.190   2.123  0.3114  0.3899  0.2603
11262TIP3    H155201   4.609   4.153   2.208  0.1602  0.3335  0.2782
11262TIP3    H255202   4.528   4.264   2.143 -0.5385 -0.2197  0.1830
11263TIP3   OH255203   3.060   1.117  11.533  0.4145 -0.2025 -0.6535
11263TIP3    H155204   3.139   1.067  11.552 -0.9001 -1.7560  1.0221
11263TIP3    H255205   3.054   1.182  11.604  0.6065  0.4709 -1.2400
11264TIP3   OH255206   4.119   6.449  17.181 -0.5510 -0.0488  0.1158
11264TIP3    H155207   4.098   6.515  17.116  0.2229  2.0596  1.8756
11264TIP3    H255208   4.034   6.409  17.203 -1.2691  1.3743  0.0326
11265TIP3   OH255209   5.244   6.547   5.006  0.8420 -0.6430  0.0643
11265TIP3    H155210   5.285   6.607   4.944 -0.0723 -1.1831 -1.0990
11265TIP3    H255211   5.286   6.566   5.090  1.0662  1.1268 -0.4147
11266TIP3   OH255212   4.383   2.627   3.891 -0.4213  0.4543 -0.0850
11266TIP3    H155213   4.340   2.693   3.946 -0.2336  1.9008 -1.6034
11266TIP3    H255214   4.474   2.658   3.885 -0.9858  1.8162 -3.2612
11267TIP3   OH255215   4.952   2.645   6.077 -0.0843  0.1949  0.0939
11267TIP3    H155216   4.927   2.729   6.039  0.1066  0.5623  0.7509
11267TIP3    H255217   4.893   2.634   6.152 -0.2812 -0.3809 -0.1465
11268TIP3   OH255218   3.994   5.150   4.738 -0.4179  0.2002  0.7362
11268TIP3    H155219   3.941   5.207   4.682 -0.2839 -0.3483  0.0356
11268TIP3    H255220   3.988   5.064   4.697 -1.5631 -0.5802  2.4174
11269TIP3   OH255221   4.750   2.295   3.241  0.2424  0.0080  0.1688
11269TIP3    H155222   4.785   2.375   3.204  0.9161  0.0899  0.9425
11269TIP3    H255223   4.656   2.311   3.250  0.6423  1.5921  2.3465
11270TIP3   OH255224   4.622   1.144  16.933  0.3058  0.5582  0.3464
11270TIP3    H155225   4.585   1.123  17.019  1.2966  1.0788  0.9164
11270TIP3    H255226   4.681   1.071  16.914  1.2967  1.1973  0.8571
11271TIP3   OH255227   3.023   5.826   6.162 -0.1196  0.4793 -0.3802
11271TIP3    H155228   2.953   5.876   6.204 -0.3582  1.0041 -1.3621
11271TIP3    H255229   3.064   5.888   6.102 -0.1275 -0.3765 -1.2998
11272TIP3   OH255230   5.979   2.060  16.980 -0.2239  0.8401 -0.2717
11272TIP3    H155231   5.964   2.154  16.970 -0.9160  1.3095  3.5529
11272TIP3    H255232   5.903   2.019  16.937 -0.6338  2.0736 -0.7735
11273TIP3   OH255233   3.485   1.761  14.454  0.3630 -0.1258  0.3343
11273TIP3    H155234   3.495   1.847  14.496  0.0294 -0.4248  1.0399
11273TIP3    H255235   3.543   1.764  14.378  0.6387  0.5864  0.5706
11274TIP3   OH255236   3.991   0.699  15.321  0.2738  0.1116 -0.1572
11274TIP3    H155237   4.037   0.767  15.370  0.9491  0.2092 -0.8957
11274TIP3    H255238   4.039   0.619  15.340  0.6011  0.1674 -0.7203
11275TIP3   OH255239   4.969   4.381  12.145  0.6105  0.1655 -0.1017
11275TIP3    H155240   5.011   4.332  12.075  0.2989  2.5225 -2.0601
11275TIP3    H255241   4.876   4.359  12.138  0.8027 -1.0739  0.8831
11276TIP3   OH255242   3.826   0.103   1.302  0.2850 -0.1085 -0.6534
11276TIP3    H155243   3.803   0.189   1.336 -0.2916 -0.1236 -1.0079
11276TIP3    H255244   3.855   0.119   1.212 -2.1244 -0.5472 -1.5744
11277TIP3   OH255245   0.817   2.763  16.493 -0.7531  0.3843  0.4444
11277TIP3    H155246   0.731   2.750  16.533  0.4417 -2.2358  2.4605
11277TIP3    H255247   0.877   2.773  16.566  0.9178  0.3147 -0.8485
11278TIP3   OH255248   1.757   4.716  16.928 -0.2558 -0.0772 -0.1963
11278TIP3    H155249   1.683   4.749  16.979  0.8359  0.0426  1.3767
11278TIP3    H255250   1.819   4.789  16.926 -0.3462 -0.0131 -1.8902
11279TIP3   OH255251   1.312   3.245   4.031  0.8123  0.3973  0.0984
11279TIP3    H155252   1.218   3.263   4.040  0.1969 -1.0385 -2.5790
11279TIP3    H255253   1.319   3.150   4.039  2.1245  0.5342  0.7148
11280TIP3   OH255254   4.268   3.689  15.300  0.4284  0.3201  0.0905
11280TIP3    H155255   4.304   3.702  15.212  0.9732 -0.4687  0.1910
11280TIP3    H255256   4.308   3.758  15.352 -1.5411  2.1803 -0.7066
11281TIP3   OH255257   4.887   3.270   2.731 -0.2135 -0.0185  0.0201
11281TIP3    H155258   4.981   3.290   2.723  0.0234 -1.3651 -0.8957
11281TIP3    H255259   4.884   3.181   2.765 -1.0817 -0.9448 -2.2615
11282TIP3   OH255260   2.765   5.021   5.322 -0.2567  0.3264 -0.5758
11282TIP3    H155261   2.738   4.939   5.280 -2.8520  1.1305 -0.6729
11282TIP3    H255262   2.858   5.008   5.342 -0.3523 -2.2758 -1.3716
11283TIP3   OH255263   0.299   6.150  17.226 -0.3567  0.3578  0.6693
11283TIP3    H155264   0.325   6.073  17.175 -0.6740  1.2278 -0.8517
11283TIP3    H255265   0.338   6.135  17.312  0.5068 -0.9832  0.0875
11284TIP3   OH255266   3.820   1.379  16.310  0.3281 -0.1027 -0.3287
11284TIP3    H155267   3.875   1.413  16.239 -0.3136  0.5667 -0.5127
11284TIP3    H255268   3.843   1.286  16.315 -0.7076 -0.5481 -2.4751
11285TIP3   OH255269   3.338   4.945   2.546  0.3214  0.0998  0.4475
11285TIP3    H155270   3.383   4.974   2.466 -0.7014  1.1308  0.2213
11285TIP3    H255271   3.342   5.020   2.605 -0.3030 -0.1098  0.7681
11286TIP3   OH255272   3.022   0.399  17.250  0.5666  0.0383 -0.3589
11286TIP3    H155273   3.030   0.487  17.287  1.7489 -0.5097  0.7777
11286TIP3    H255274   2.928   0.382  17.248  0.3938  0.3175  2.0127
11287TIP3   OH255275   4.577   1.113  15.179 -0.1120 -0.3180 -0.1910
11287TIP3    H155276   4.568   1.034  15.125 -0.2206 -0.1081 -0.4860
11287TIP3    H255277   4.631   1.172  15.126 -2.6201  1.0648 -1.4318
11288TIP3   OH255278   4.887   2.618   2.690 -0.0065  0.7863 -0.1170
11288TIP3    H155279   4.963   2.649   2.738 -0.8795  1.1134  1.0956
11288TIP3    H255280   4.863   2.691   2.632  0.9242  0.4659 -0.9386
11289TIP3   OH255281   6.100   6.508  13.130  0.4504  0.0669 -0.1469
11289TIP3    H155282   6.153   6.428  13.127 -0.9526 -0.9341  0.6253
11289TIP3    H255283   6.162   6.578  13.110  2.0657 -1.0450  0.7138
11290TIP3   OH255284   4.076   3.356   0.536 -0.4490 -0.0166 -0.8058
11290TIP3    H155285   4.140   3.290   0.511 -0.5841  0.4682 -2.5084
11290TIP3    H255286   4.023   3.370   0.458 -0.6587  1.8464 -0.3839
11291TIP3   OH255287   1.325   5.721  17.309 -0.9770 -0.1195 -0.3067
11291TIP3    H155288   1.297   5.707  17.399 -1.9124  0.7467 -0.4543
11291TIP3    H255289   1.244   5.737  17.260 -0.6738 -2.1370 -1.6306
11292TIP3   OH255290   0.531   2.429   4.195 -0.4595  0.1983  0.5950
11292TIP3    H155291   0.563   2.466   4.278  1.7701  0.3498 -0.2731
11292TIP3    H255292   0.480   2.352   4.221 -1.3507  1.2595  2.1808
11293TIP3   OH255293   6.186   6.077  15.503  0.3746  0.4863 -0.5408
11293TIP3    H155294   6.282   6.078  15.504  0.3812  0.1158  0.6260
11293TIP3    H255295   6.162   5.999  15.553 -0.5468  0.4658 -0.9801
11294TIP3   OH255296   0.565   5.275  11.138  0.0686  0.0980 -0.4779
11294TIP3    H155297   0.584   5.296  11.047  1.7265  1.3134  0.1013
11294TIP3    H255298   0.637   5.218  11.165 -0.4551 -0.3251  0.0533
11295TIP3   OH255299   3.442   5.207   3.850 -0.0067  0.0677 -0.6552
11295TIP3    H155300   3.383   5.224   3.924  0.2347 -1.6641 -0.0257
11295TIP3    H255301   3.527   5.237   3.881 -0.3075  1.5625 -1.1651
11296TIP3   OH255302   6.088   1.597  14.406 -0.5735  0.2544 -0.6204
11296TIP3    H155303   6.121   1.551  14.328 -0.5936 -0.3898 -0.2562
11296TIP3    H255304   6.167   1.614  14.458 -0.8047 -1.8877  0.5743
11297TIP3   OH255305   5.410   0.074  14.386  0.7766  0.2638 -0.4976
11297TIP3    H155306   5.484   0.068  14.446 -1.9391  0.2650  3.1672
11297TIP3    H255307   5.396   0.168  14.373 -1.6985  0.6115  3.3450
11298TIP3   OH255308   0.841   4.567  16.741 -0.5403  0.0190  0.5911
11298TIP3    H155309   0.761   4.518  16.721 -0.5517  0.6900 -1.2072
11298TIP3    H255310   0.828   4.652  16.698  0.2357  0.9675  2.1291
11299TIP3   OH255311   6.258   3.413   4.318 -0.1051 -0.3953  0.4034
11299TIP3    H155312   6.338   3.417   4.266 -1.5205 -2.4160 -2.1805
11299TIP3    H255313   6.272   3.340   4.378  0.8564  0.8328  1.7535
11300TIP3   OH255314   3.926   0.535   4.511  0.3554 -0.2051  0.3352
11300TIP3    H155315   3.934   0.588   4.591  0.3414  0.3710 -0.0397
11300TIP3    H255316   3.839   0.555   4.477  0.1928 -0.7817  0.4032
11301TIP3   OH255317   2.614   1.100  17.166 -0.1976  0.4048 -0.4572
11301TIP3    H155318   2.530   1.127  17.130 -0.0074  3.9314  1.2912
11301TIP3    H255319   2.615   1.137  17.254  2.7822 -0.4283 -0.0363
11302TIP3   OH255320   2.104   2.814  14.688  0.8243  0.7503  0.1745
11302TIP3    H155321   2.077   2.745  14.748  3.5142  0.0370  0.6573
11302TIP3    H255322   2.033   2.818  14.623  0.0996 -1.7369  0.7088
11303TIP3   OH255323   6.622   3.989  15.880  0.3007  0.2769 -0.1289
11303TIP3    H155324   6.635   3.901  15.915  0.5127  0.0745 -0.6957
11303TIP3    H255325   6.532   3.989  15.847 -0.2535  0.7974  1.3203
11304TIP3   OH255326   2.887   0.830   3.876 -0.1596 -0.1729  0.2202
11304TIP3    H155327   2.862   0.916   3.910  1.2559  1.2828 -2.0806
11304TIP3    H255328   2.822   0.812   3.807  0.1896 -0.4238 -0.0465
11305TIP3   OH255329   1.878   4.605   2.981 -0.3884  0.2834  0.4575
11305TIP3    H155330   1.893   4.699   2.986 -1.0498  0.3782  0.7355
11305TIP3    H255331   1.829   4.584   3.060 -1.5601 -0.0365 -0.3258
11306TIP3   OH255332   3.838   0.374  16.331  0.3665 -0.0910 -0.4321
11306TIP3    H155333   3.933   0.375  16.328  0.3813  1.2631 -0.2785
11306TIP3    H255334   3.812   0.441  16.268 -0.4589  0.0902  0.0852
11307TIP3   OH255335   1.673   4.769  13.173  0.3640 -0.2827 -0.0108
11307TIP3    H155336   1.736   4.794  13.241 -0.8190  1.1810  0.5839
11307TIP3    H255337   1.619   4.847  13.160  0.9778 -0.2660 -3.1561
11308TIP3   OH255338   4.350   2.085   3.283 -0.8377 -0.2022  0.3571
11308TIP3    H155339   4.290   2.035   3.228  1.4536 -1.4507 -1.1868
11308TIP3    H255340   4.427   2.029   3.291  0.9573  2.1302  0.4619
11309TIP3   OH255341   1.094   6.284   1.170 -1.0137 -0.1289 -0.0075
11309TIP3    H155342   1.178   6.326   1.186 -0.8396 -0.8249  1.0271
11309TIP3    H255343   1.068   6.314   1.083 -1.8975  3.8358  1.3713
11310TIP3   OH255344   3.333   3.447   2.116  0.4403 -0.2469  0.3755
11310TIP3    H155345   3.345   3.371   2.172  3.8219 -0.4733 -0.4826
11310TIP3    H255346   3.353   3.522   2.173 -1.9491  0.0331  0.9565
11311TIP3   OH255347   5.061   3.454   5.948 -0.1111 -0.3267 -0.1227
11311TIP3    H155348   4.969   3.453   5.921 -0.4508  0.5717  0.8778
11311TIP3    H255349   5.081   3.547   5.960  1.2764 -0.4294 -1.3990
11312TIP3   OH255350   1.748   1.215  15.347  0.0802 -0.6427  0.0055
11312TIP3    H155351   1.723   1.268  15.271 -0.2723 -1.3983 -0.4153
11312TIP3    H255352   1.788   1.277  15.408 -1.0831  0.2724 -0.1249
11313TIP3   OH255353   3.766   0.445   5.829 -0.1120  0.4289 -0.2439
11313TIP3    H155354   3.729   0.468   5.743 -0.4191 -1.3427 -0.6208
11313TIP3    H255355   3.860   0.461   5.819 -0.0618 -0.2915 -1.1285
11314TIP3   OH255356   2.993   6.667   4.993 -0.0508 -0.0318 -0.1587
11314TIP3    H155357   3.071   6.672   5.049  0.5600 -0.7332 -0.9206
11314TIP3    H255358   2.987   6.753   4.953  0.8904 -0.2547 -0.8095
11315TIP3   OH255359   1.431   4.318   2.855  0.8760 -0.7075  0.2457
11315TIP3    H155360   1.456   4.318   2.762  0.8361  0.3837  0.2124
11315TIP3    H255361   1.398   4.230   2.872  1.6654 -1.1753 -0.5639
11316TIP3   OH255362   0.031   2.893  13.876 -0.4510 -0.2837 -0.1184
11316TIP3    H155363   0.032   2.797  13.881 -0.2247 -0.2713  0.0966
11316TIP3    H255364  -0.014   2.912  13.794  0.0912 -0.5877 -0.4944
11317TIP3   OH255365   1.660   4.132   4.927 -0.2060 -0.5149 -0.9019
11317TIP3    H155366   1.596   4.126   4.998 -1.5222 -0.1351 -1.9960
11317TIP3    H255367   1.707   4.214   4.944 -1.5446  0.3707 -1.2376
11318TIP3   OH255368   5.423   5.746  13.943 -0.2404  0.7239  0.0508
11318TIP3    H155369   5.456   5.699  13.867 -1.9452  1.5607 -1.2702
11318TIP3    H255370   5.418   5.837  13.915  1.3664  1.5046  1.9976
11319TIP3   OH255371   3.882   0.249  12.825  0.0592 -0.0329  0.2405
11319TIP3    H155372   3.807   0.259  12.766 -0.9409  0.7807  1.5713
11319TIP3    H255373   3.908   0.339  12.846  0.7665 -0.3091  0.5778
11320TIP3   OH255374   2.765   2.396  12.505  0.1357 -0.1064  0.0779
11320TIP3    H155375   2.766   2.365  12.596 -0.7883 -1.7584 -0.4218
11320TIP3    H255376   2.795   2.320  12.454 -0.6269  0.3457 -1.0917
11321TIP3   OH255377   6.055   0.864  13.919  0.0993 -0.0817 -0.2601
11321TIP3    H155378   6.020   0.844  14.005  0.2559 -1.7431 -0.5525
11321TIP3    H255379   6.142   0.824  13.918 -0.2621 -0.9041 -1.4868
11322TIP3   OH255380   0.862   1.142  12.133 -0.0991 -0.0559 -0.1449
11322TIP3    H155381   0.925   1.117  12.065  1.1666 -0.1284  0.9982
11322TIP3    H255382   0.802   1.202  12.089 -0.9996 -2.1697 -2.0175
11323TIP3   OH255383   5.553   2.551  13.264 -0.0762 -0.2635  0.4447
11323TIP3    H155384   5.489   2.615  13.235 -0.3161 -1.5533 -2.0878
11323TIP3    H255385   5.625   2.557  13.201  0.4051 -1.6681  0.8100
11324TIP3   OH255386   5.666   1.784   1.960  0.3093 -0.4384  0.1041
11324TIP3    H155387   5.653   1.693   1.987  0.1544 -0.4770 -0.0948
11324TIP3    H255388   5.689   1.778   1.867 -0.8259 -0.2100 -0.2093
11325TIP3   OH255389   5.389   6.500  12.489 -0.1020 -0.4623  0.0380
11325TIP3    H155390   5.327   6.554  12.538  0.9114 -0.2215  1.0920
11325TIP3    H255391   5.334   6.450  12.429 -1.0141  2.2427 -1.5146
11326TIP3   OH255392   2.612   5.233  13.335  0.2846  0.0961  0.2752
11326TIP3    H155393   2.692   5.198  13.297  0.6938  1.4568 -0.1619
11326TIP3    H255394   2.547   5.164  13.321  1.4499 -1.2071  1.0234
11327TIP3   OH255395   4.440   4.303   0.837  0.1953 -0.3726 -0.1725
11327TIP3    H155396   4.500   4.235   0.808  0.7449 -0.6666  1.5268
11327TIP3    H255397   4.497   4.376   0.863 -0.0259 -0.9312  2.1817
11328TIP3   OH255398   2.284   6.428   3.381 -0.2105 -0.0194  0.2345
11328TIP3    H155399   2.308   6.337   3.394  0.7604  0.0164 -1.0958
11328TIP3    H255400   2.216   6.426   3.313  0.2044  0.2712 -0.1977
11329TIP3   OH255401   1.520   4.895   1.668 -0.0227  0.3187  0.0005
11329TIP3    H155402   1.439   4.843   1.672  0.2345 -0.0685  0.2234
11329TIP3    H255403   1.493   4.979   1.631 -0.7020  0.5495  1.0068
11330TIP3   OH255404   5.128   3.965  14.069 -0.7001  0.0001  0.3501
11330TIP3    H155405   5.164   3.977  14.157 -1.8906  0.7166  0.7600
11330TIP3    H255406   5.196   3.918  14.021 -0.2752 -0.9380  1.8279
11331TIP3   OH255407   6.513   6.609   6.355  0.3275 -0.3765 -0.2639
11331TIP3    H155408   6.544   6.688   6.399 -0.1711 -0.4807  0.2805
11331TIP3    H255409   6.419   6.622   6.347  0.5707  0.3473 -2.7227
11332TIP3   OH255410   2.324   4.443  14.213  0.4318  0.0099  0.2114
11332TIP3    H155411   2.296   4.359  14.247  0.2947 -0.4798 -1.0490
11332TIP3    H255412   2.395   4.422  14.152  0.3882  0.8060 -0.1353
11333TIP3   OH255413   5.455   6.590  15.240 -0.0094 -0.0882  0.3583
11333TIP3    H155414   5.478   6.497  15.237  1.7805  0.3248 -0.0581
11333TIP3    H255415   5.423   6.610  15.153 -0.0800 -0.2441  0.3483
11334TIP3   OH255416   4.291   1.165  12.879  0.5492 -1.0805 -0.0471
11334TIP3    H155417   4.299   1.251  12.920  0.6341 -1.8042  1.5091
11334TIP3    H255418   4.264   1.107  12.950  1.9873 -2.6319 -0.7177
11335TIP3   OH255419   6.179   0.386  13.666 -0.1480 -0.7534  0.1626
11335TIP3    H155420   6.272   0.369  13.676 -0.5885 -2.9419  0.9256
11335TIP3    H255421   6.138   0.349  13.744 -1.8600 -1.8041 -1.1433
11336TIP3   OH255422   0.442   3.616  10.816  0.0118  0.0155 -0.1036
11336TIP3    H155423   0.361   3.660  10.790  0.0630  0.0108 -0.2737
11336TIP3    H255424   0.475   3.666  10.890 -0.2763 -0.1282  0.1221
11337TIP3   OH255425   4.010   5.310   4.054  0.2311  0.0570 -0.1443
11337TIP3    H155426   3.981   5.229   4.095  0.2792 -0.0473 -0.3145
11337TIP3    H255427   4.047   5.362   4.126 -0.0786  0.0567  0.0177
11338TIP3   OH255428   3.619   3.190  15.025 -0.3425 -0.3552  0.0115
11338TIP3    H155429   3.526   3.206  15.033 -0.2286  0.7656 -0.7868
11338TIP3    H255430   3.631   3.156  14.936  0.2182  1.2313 -0.5485
11339TIP3   OH255431   5.899   0.834   5.056  0.2899 -0.7828 -0.5949
11339TIP3    H155432   5.970   0.770   5.054  0.9837 -0.0793  0.3459
11339TIP3    H255433   5.877   0.842   5.149  1.5491  1.7112 -0.4212
11340TIP3   OH255434   4.411   3.022   0.839  0.1508 -0.0373 -0.2627
11340TIP3    H155435   4.461   3.026   0.921 -0.8025  1.4865  0.2668
11340TIP3    H255436   4.324   2.994   0.865 -0.2104  0.6300 -0.7385
11341TIP3   OH255437   6.301   5.623   3.496 -0.1749  0.2631 -0.0283
11341TIP3    H155438   6.349   5.601   3.576 -0.3205 -1.0375 -0.2798
11341TIP3    H255439   6.350   5.581   3.425 -0.9778 -0.0402 -0.4225
11342TIP3   OH255440   3.392   3.216   0.926 -0.2430  0.3804  0.2503
11342TIP3    H155441   3.408   3.143   0.985 -0.7669  1.0013  1.1739
11342TIP3    H255442   3.391   3.176   0.839  0.3041 -0.5773  0.6691
11343TIP3   OH255443   4.733   5.368   1.723 -0.6380  0.5184 -0.5078
11343TIP3    H155444   4.714   5.311   1.797 -0.8972  1.8558  0.4668
11343TIP3    H255445   4.829   5.372   1.721 -0.5222 -1.3275 -1.6899
11344TIP3   OH255446   6.158   3.661   2.392 -0.4238 -0.7958  0.0160
11344TIP3    H155447   6.132   3.731   2.452 -0.8815  0.3737 -1.4752
11344TIP3    H255448   6.154   3.581   2.445 -2.3638 -0.0330  1.1354
11345TIP3   OH255449   1.381   1.846   4.521  0.2025 -0.0791 -0.0188
11345TIP3    H155450   1.440   1.906   4.566 -0.9851  0.3625  1.0050
11345TIP3    H255451   1.432   1.765   4.513  0.9388  0.2680  0.9018
11346TIP3   OH255452   2.378   0.967  14.707 -0.3619 -0.2202  0.6320
11346TIP3    H155453   2.382   1.058  14.734  0.9858 -0.0520 -0.0836
11346TIP3    H255454   2.412   0.918  14.783  2.2004  0.1589 -0.1809
11347TIP3   OH255455   3.523   2.587   5.166  0.2789 -0.0892 -0.0745
11347TIP3    H155456   3.575   2.668   5.163 -0.3602  0.4533  1.7867
11347TIP3    H255457   3.446   2.611   5.218 -0.4956 -1.6091 -0.4752
11348TIP3   OH255458   1.915   2.194   5.847  0.3529 -0.4915  0.3180
11348TIP3    H155459   1.914   2.237   5.933 -0.7962 -0.5742  0.3683
11348TIP3    H255460   1.894   2.265   5.785  0.5952 -0.5523  0.1644
11349TIP3   OH255461   5.685   4.381   4.967  0.2536  0.4598 -0.1426
11349TIP3    H155462   5.626   4.306   4.976  2.2021 -0.8746  3.3107
11349TIP3    H255463   5.643   4.450   5.018 -0.0927  0.7528 -0.8157
11350TIP3   OH255464   5.477   5.758   4.916 -0.5870  0.2542 -0.3355
11350TIP3    H155465   5.544   5.795   4.973 -1.1856  0.0816  0.5074
11350TIP3    H255466   5.517   5.681   4.877  0.0776  0.7907 -0.7292
11351TIP3   OH255467   2.253   6.737  14.704 -0.2419  0.1485 -0.3701
11351TIP3    H155468   2.293   6.665  14.654  0.5319 -0.2868  0.8356
11351TIP3    H255469   2.323   6.801  14.714  0.2592 -0.6381  1.7972
11352TIP3   OH255470   2.401   2.200  17.263  0.0694 -0.0059  0.3187
11352TIP3    H155471   2.477   2.252  17.237  1.2684 -1.6642  0.3374
11352TIP3    H255472   2.327   2.243  17.221  1.0184  1.6096  0.2140
11353TIP3   OH255473   4.252   0.727   5.459  0.1208  0.6850 -0.1343
11353TIP3    H155474   4.190   0.798   5.445 -1.4381 -0.7971 -1.1632
11353TIP3    H255475   4.244   0.673   5.380  0.2577 -1.3573  1.1928
11354TIP3   OH255476   0.315   3.488   2.464  0.3937 -0.2672  0.2702
11354TIP3    H155477   0.261   3.415   2.494  0.1634 -0.5026 -0.6917
11354TIP3    H255478   0.358   3.456   2.385 -1.8783  1.4998 -1.8410
11355TIP3   OH255479   1.488   4.720  12.969 -0.0765  0.1705 -0.1557
11355TIP3    H155480   1.537   4.661  12.913 -1.2386 -0.9547 -0.0246
11355TIP3    H255481   1.554   4.758  13.028  1.0640  0.9113 -1.8362
11356TIP3   OH255482   0.668   1.188  11.513  0.4614  0.1607  0.2329
11356TIP3    H155483   0.746   1.138  11.488  0.5936  0.6198 -0.2966
11356TIP3    H255484   0.609   1.180  11.439  1.1313  2.1066 -0.5846
11357TIP3   OH255485   3.715   1.242   3.983  0.4128  0.0300  0.1703
11357TIP3    H155486   3.683   1.331   3.998 -0.6076 -0.3349  0.2259
11357TIP3    H255487   3.809   1.248   3.994  0.2553  0.9096  1.1550
11358TIP3   OH255488   5.090   1.233  13.038 -0.4526  0.0577 -0.0329
11358TIP3    H155489   5.171   1.285  13.037  1.2676 -2.3965 -2.5508
11358TIP3    H255490   5.020   1.298  13.027  1.2157  2.1556  1.0039
11359TIP3   OH255491   3.481   1.836  12.171 -0.4407 -0.0734 -0.2754
11359TIP3    H155492   3.566   1.797  12.149 -0.3797  0.4761 -1.0546
11359TIP3    H255493   3.463   1.807  12.260  0.5663 -0.1996 -0.1076
11360TIP3   OH255494   2.442   1.519   2.853  0.3894  0.7142 -0.3158
11360TIP3    H155495   2.535   1.540   2.847  0.2446  0.8405 -2.9375
11360TIP3    H255496   2.437   1.453   2.923  2.1953  1.8501  0.9561
11361TIP3   OH255497   3.275   6.038   1.248 -0.3313 -0.8582 -0.0548
11361TIP3    H155498   3.247   6.011   1.335  1.3349 -1.1810  0.4271
11361TIP3    H255499   3.218   5.990   1.188 -2.7635  0.7951  0.8166
11362TIP3   OH255500   2.415   5.795  14.819 -0.2752  0.5454  0.0052
11362TIP3    H155501   2.394   5.723  14.758  0.2045  1.4376 -1.2574
11362TIP3    H255502   2.446   5.751  14.898 -0.6691 -0.6488 -0.4776
11363TIP3   OH255503   3.267   0.289   6.812  0.2132  0.0802 -0.1462
11363TIP3    H155504   3.263   0.210   6.866  1.0382 -0.6222 -1.0766
11363TIP3    H255505   3.228   0.263   6.728  0.7541  0.5677 -0.5594
11364TIP3   OH255506   4.253   3.616   1.012 -0.2935 -0.6963  0.4165
11364TIP3    H155507   4.329   3.639   0.958  0.1320  0.3119  1.3927
11364TIP3    H255508   4.276   3.533   1.053  0.1178 -0.5976  0.3880
11365TIP3   OH255509   5.021   4.674   4.257  1.2614  0.0134 -0.2731
11365TIP3    H155510   5.066   4.695   4.339 -0.7328  0.3565  0.7981
11365TIP3    H255511   4.974   4.593   4.277  0.1975  0.4796 -0.8513
11366TIP3   OH255512   1.074   3.383  17.327 -0.1630 -0.3665 -0.3120
11366TIP3    H155513   1.029   3.428  17.255  0.4539 -0.3066 -0.6689
11366TIP3    H255514   1.138   3.446  17.358  0.0780 -0.6620 -0.2043
11367TIP3   OH255515   3.932   2.899  12.603  0.0563 -0.1577  0.2732
11367TIP3    H155516   3.954   2.988  12.574 -0.3907  0.4579  1.7253
11367TIP3    H255517   3.850   2.910  12.651 -0.2735 -1.4573  0.0281
11368TIP3   OH255518   2.215   2.247   0.888 -0.0229 -0.1766 -0.5959
11368TIP3    H155519   2.304   2.221   0.913 -0.2576 -2.7029 -2.0447
11368TIP3    H255520   2.158   2.193   0.943 -0.6905  0.7763 -0.3207
11369TIP3   OH255521   5.603   4.998  13.781  0.4004 -0.2546 -0.0185
11369TIP3    H155522   5.586   5.054  13.705  0.1109  0.2932  0.4408
11369TIP3    H255523   5.671   4.937  13.752  0.0032 -0.3123 -0.8429
11370TIP3   OH255524   4.152   4.427  12.306 -0.3120  0.2001 -0.9183
11370TIP3    H155525   4.075   4.476  12.336 -0.0126 -0.5732  1.3168
11370TIP3    H255526   4.115   4.347  12.268 -0.6407 -0.0843 -0.0272
11371TIP3   OH255527   4.920   3.038   0.331 -0.0883 -0.1466 -0.2896
11371TIP3    H155528   4.840   3.091   0.321 -0.7474 -0.6091  1.9440
11371TIP3    H255529   4.914   2.972   0.262 -1.6429 -0.1487 -0.2000
11372TIP3   OH255530   4.747   0.757   2.216  0.1055  0.2761  0.2122
11372TIP3    H155531   4.828   0.707   2.198 -0.4430 -0.3624 -0.5725
11372TIP3    H255532   4.713   0.778   2.129  0.9017  3.0717  0.4887
11373TIP3   OH255533   4.750   0.469   2.173 -0.5172 -0.1353  0.5529
11373TIP3    H155534   4.789   0.488   2.259  1.8754 -0.9797 -0.2575
11373TIP3    H255535   4.799   0.393   2.141 -2.7175 -1.0898 -0.7343
11374TIP3   OH255536   0.692   1.988  17.166 -0.2516 -0.1210 -0.0427
11374TIP3    H155537   0.748   2.005  17.090  0.9641 -1.1380  0.5836
11374TIP3    H255538   0.750   1.999  17.241 -0.8978 -1.1276  0.6276
11375TIP3   OH255539   1.487   0.663  12.888 -0.1546  0.3407 -0.4891
11375TIP3    H155540   1.539   0.589  12.921  0.6075 -0.5716 -3.4248
11375TIP3    H255541   1.398   0.645  12.918  0.2293 -1.1688 -0.1666
11376TIP3   OH255542   4.672   0.868   1.982  0.0969  0.0050  0.3188
11376TIP3    H155543   4.680   0.844   1.890  0.5700  0.4216  0.2450
11376TIP3    H255544   4.623   0.950   1.981 -1.5926 -0.9499  0.5757
11377TIP3   OH255545   3.695   1.643  16.961 -0.7033  0.0660  0.1907
11377TIP3    H155546   3.618   1.586  16.970  0.3250 -1.1831  1.7441
11377TIP3    H255547   3.660   1.729  16.939 -2.5036 -0.5517  0.5315
11378TIP3   OH255548   2.352   3.961   0.682  0.3100 -0.2271 -0.0448
11378TIP3    H155549   2.396   3.961   0.596 -0.3863 -0.7062 -0.4111
11378TIP3    H255550   2.340   4.053   0.703 -1.9877 -0.0461 -1.7679
11379TIP3   OH255551   4.776   6.266  15.913  0.5950 -0.4362 -0.1467
11379TIP3    H155552   4.785   6.346  15.861 -0.9667  0.0066  0.1969
11379TIP3    H255553   4.865   6.244  15.939  1.1704  0.5806 -1.1546
11380TIP3   OH255554   5.698   5.588   4.673  0.0959  0.8826 -0.0908
11380TIP3    H155555   5.688   5.634   4.757  1.0676  2.7335 -0.9303
11380TIP3    H255556   5.626   5.621   4.619 -0.4568 -0.2172 -0.0603
11381TIP3   OH255557   0.474   0.981  14.654 -0.2155 -0.0151 -0.1508
11381TIP3    H155558   0.556   0.956  14.694 -0.2191 -0.4315 -0.3917
11381TIP3    H255559   0.417   0.905  14.667 -0.6386  0.3599  0.2232
11382TIP3   OH255560   0.252   3.769   4.758  0.4069  0.1815 -0.3334
11382TIP3    H155561   0.277   3.862   4.757  1.7369 -0.1556 -1.7084
11382TIP3    H255562   0.301   3.732   4.832  0.3386  0.4478 -0.1519
11383TIP3   OH255563   1.841   5.714   1.222  0.1348 -0.2129  0.0051
11383TIP3    H155564   1.748   5.704   1.242  0.1735  0.1107  0.3461
11383TIP3    H255565   1.886   5.684   1.301  0.3542 -1.4575 -0.5660
11384TIP3   OH255566   3.205   1.327  13.400 -0.1775  0.3913  0.4125
11384TIP3    H155567   3.152   1.366  13.470 -1.1521  0.7728 -0.5093
11384TIP3    H255568   3.262   1.398  13.372 -0.5172  0.5579  0.1277
11385TIP3   OH255569   3.972   5.845  15.949 -0.2407 -0.4209  0.4037
11385TIP3    H155570   3.889   5.885  15.924  0.1450 -0.4918 -1.0834
11385TIP3    H255571   4.033   5.918  15.958  0.0511 -0.5228 -0.6449
11386TIP3   OH255572   5.738   3.797  15.646 -0.0289  0.4356  0.2220
11386TIP3    H155573   5.771   3.884  15.666  1.5734 -0.1562  0.3212
11386TIP3    H255574   5.784   3.739  15.708 -1.0898 -0.4822  0.1883
11387TIP3   OH255575   3.133   6.295   5.694  0.2850  0.3241  0.1367
11387TIP3    H155576   3.211   6.246   5.719  0.6155  0.3464 -0.8121
11387TIP3    H255577   3.126   6.282   5.600 -0.5694  0.7439  0.1348
11388TIP3   OH255578   3.231   5.707  12.107  0.8286  0.2466  0.6905
11388TIP3    H155579   3.235   5.782  12.046 -0.5306  2.3758  3.0253
11388TIP3    H255580   3.144   5.669  12.092 -0.8604  2.7086  3.1945
11389TIP3   OH255581   0.999   2.532   0.734 -0.0367  0.1881  0.1123
11389TIP3    H155582   1.045   2.524   0.650 -1.3059  1.7130 -0.7740
11389TIP3    H255583   1.062   2.574   0.792  0.8729 -0.9341 -0.0129
11390TIP3   OH255584   4.265   4.278   0.530 -0.1153  0.3739  0.1207
11390TIP3    H155585   4.254   4.330   0.609  1.1925  0.9046 -0.0237
11390TIP3    H255586   4.297   4.193   0.561 -0.7758  0.1589  0.2365
11391TIP3   OH255587   6.518   4.070  13.416 -0.0558  0.2293  0.5568
11391TIP3    H155588   6.464   4.045  13.490 -0.8359  0.8052  0.2057
11391TIP3    H255589   6.463   4.054  13.339 -0.1513  1.8136  0.2524
11392TIP3   OH255590   2.322   5.256  14.673  0.2451 -0.5405  0.0950
11392TIP3    H155591   2.248   5.209  14.712  0.4645  0.3382  1.6680
11392TIP3    H255592   2.358   5.308  14.745 -0.0050  2.0789 -1.5111
11393TIP3   OH255593   5.730   4.951   4.848  0.1496  0.0259  0.1048
11393TIP3    H155594   5.648   4.964   4.895  0.0377 -1.0330  0.2336
11393TIP3    H255595   5.778   5.032   4.860  0.9567 -0.8156  3.6753
11394TIP3   OH255596   2.801   0.171   1.021 -0.5222 -0.0609 -0.2576
11394TIP3    H155597   2.811   0.154   0.927 -1.7004 -1.1957 -0.1984
11394TIP3    H255598   2.837   0.259   1.033 -2.7514  1.2504 -2.2713
11395TIP3   OH255599   1.242   5.575   4.985 -0.0294 -0.0198  0.0641
11395TIP3    H155600   1.331   5.604   4.969 -0.2772  0.9819  0.4645
11395TIP3    H255601   1.202   5.644   5.037 -1.4436  0.1759 -1.1997
11396TIP3   OH255602   5.626   4.112   3.476 -0.1890  0.4830 -0.3036
11396TIP3    H155603   5.697   4.141   3.420  1.8044  1.1036  2.3507
11396TIP3    H255604   5.595   4.191   3.520  0.6214 -0.3477  1.9149
11397TIP3   OH255605   6.507   6.098   5.416 -1.0284 -0.5236  0.1569
11397TIP3    H155606   6.477   6.066   5.332  1.1883  0.1509 -0.9676
11397TIP3    H255607   6.468   6.186   5.423 -0.3282 -0.1325 -0.7053
11398TIP3   OH255608   0.161   2.700   3.677  0.4496 -0.0254 -0.2309
11398TIP3    H155609   0.101   2.773   3.691 -0.4520 -0.7600 -0.1428
11398TIP3    H255610   0.123   2.652   3.604  0.9282 -0.5209 -0.1601
11399TIP3   OH255611   0.939   5.522  12.367 -0.0866 -0.2529  0.0252
11399TIP3    H155612   0.932   5.560  12.280  1.5879 -1.8933 -0.8827
11399TIP3    H255613   0.937   5.427  12.353  2.0100 -0.6073  1.5476
11400TIP3   OH255614   0.938   3.507   0.371 -0.4035  0.1273 -0.3793
11400TIP3    H155615   0.986   3.513   0.453  0.4143 -0.5198 -0.7977
11400TIP3    H255616   0.971   3.427   0.329 -2.1451 -0.5771 -0.5003
11401TIP3   OH255617   0.975   0.553   2.987 -0.0165 -0.0677 -0.7681
11401TIP3    H155618   0.939   0.506   3.063 -2.1353  0.8301 -1.1633
11401TIP3    H255619   0.984   0.643   3.017  0.9526 -0.0700 -1.0221
11402TIP3   OH255620   2.169   2.074  12.970  0.0273  0.0727  0.4176
11402TIP3    H155621   2.118   2.048  12.893  1.3097 -0.1976 -0.3868
11402TIP3    H255622   2.248   2.115  12.933  0.5131  0.2379  1.6034
11403TIP3   OH255623   1.807   4.252  13.005 -0.4761  0.2389  0.1536
11403TIP3    H155624   1.824   4.207  13.088  1.7742 -0.5389 -0.6391
11403TIP3    H255625   1.827   4.344  13.024  0.7836 -0.0488  0.3201
11404TIP3   OH255626   4.467   3.945  16.406  0.3822  0.3087  0.2005
11404TIP3    H155627   4.375   3.957  16.384  0.2273 -0.9366  0.0703
11404TIP3    H255628   4.482   3.851  16.394  1.6282  0.4708  0.3717
11405TIP3   OH255629   6.575   0.203  15.471  0.1666  0.5551  0.2358
11405TIP3    H155630   6.531   0.230  15.390 -2.4268  0.6832  1.5610
11405TIP3    H255631   6.601   0.112  15.455  0.3386  0.7929 -0.9618
11406TIP3   OH255632   4.820   2.695  16.273  0.2218  0.2310 -0.0479
11406TIP3    H155633   4.830   2.772  16.218 -1.6556  1.1812  0.8676
11406TIP3    H255634   4.726   2.687  16.288  0.2621 -2.7108 -0.7196
11407TIP3   OH255635   5.647   2.416   2.851  0.4264  0.2478  0.3139
11407TIP3    H155636   5.684   2.446   2.934  0.0717 -0.8474  0.8900
11407TIP3    H255637   5.559   2.385   2.873  0.8538 -1.4440 -0.1541
11408TIP3   OH255638   5.259   5.611   0.530  0.2863  0.1891 -0.0771
11408TIP3    H155639   5.313   5.534   0.544  1.2504  0.9929  0.7919
11408TIP3    H255640   5.296   5.652   0.452  1.1938  0.9321  0.7241
11409TIP3   OH255641   5.861   4.833  15.650  0.3047 -0.2267 -0.2622
11409TIP3    H155642   5.834   4.795  15.567  0.8634  0.5585 -0.8163
11409TIP3    H255643   5.781   4.836  15.702  0.5467 -4.0517  0.6352
11410TIP3   OH255644   6.139   4.858   4.437 -0.3968 -0.2279 -0.2987
11410TIP3    H155645   6.165   4.772   4.471 -1.3479 -1.1864 -1.8558
11410TIP3    H255646   6.173   4.859   4.347  0.1896  1.3275 -0.0777
11411TIP3   OH255647   6.336   5.630  13.893  0.2180  0.2562  0.1163
11411TIP3    H155648   6.329   5.717  13.933 -0.0833  0.6078 -0.6850
11411TIP3    H255649   6.249   5.614  13.856  0.2128 -0.4827  0.4364
11412TIP3   OH255650   4.359   1.221   4.899  0.5831  0.0836  0.3328
11412TIP3    H155651   4.332   1.241   4.809  1.3979 -0.0931  0.0462
11412TIP3    H255652   4.358   1.126   4.904 -0.3222  0.0997  0.7899
11413TIP3   OH255653   5.142   3.060  14.118  0.0639 -0.1211 -0.5972
11413TIP3    H155654   5.149   2.971  14.151  2.0624  0.0682 -0.4244
11413TIP3    H255655   5.098   3.108  14.187  0.3217 -0.6525 -0.0565
11414TIP3   OH255656   1.308   1.027   1.121  0.2770  0.1666  0.1571
11414TIP3    H155657   1.323   0.951   1.177 -0.6523  0.1612  0.4229
11414TIP3    H255658   1.341   1.101   1.172  1.2415 -0.0521 -0.1295
11415TIP3   OH255659   2.631   1.805  12.783 -0.6167  0.3426 -0.4178
11415TIP3    H155660   2.653   1.808  12.876  0.6220 -1.1130 -0.6163
11415TIP3    H255661   2.695   1.862  12.741  0.5434 -1.0366 -0.6104
11416TIP3   OH255662   5.104   0.033  17.119  0.3953 -0.2853  0.6783
11416TIP3    H155663   5.077   0.102  17.180 -0.1424 -0.3426  0.5110
11416TIP3    H255664   5.062  -0.046  17.153  1.0581 -0.5510  0.9039
11417TIP3   OH255665   3.165   2.389  12.649 -0.0815  0.1526 -0.1375
11417TIP3    H155666   3.140   2.309  12.603 -0.2863 -1.0413  1.8824
11417TIP3    H255667   3.259   2.396  12.636 -0.0421 -0.4996 -0.2547
11418TIP3   OH255668   0.468   6.629   5.522 -0.3695 -0.3851  0.1904
11418TIP3    H155669   0.540   6.589   5.572 -0.3445 -0.7189 -0.1095
11418TIP3    H255670   0.396   6.636   5.586  0.2778  1.0051  0.8023
11419TIP3   OH255671   6.441   2.167   3.288  0.4509  0.1899 -0.0856
11419TIP3    H155672   6.440   2.161   3.192 -0.3926  0.2646 -0.0867
11419TIP3    H255673   6.358   2.128   3.315  0.5150  0.5220  0.5970
11420TIP3   OH255674   1.924   2.772   3.886  0.1993 -0.1455 -0.3498
11420TIP3    H155675   1.992   2.705   3.892  0.6196  0.0747 -2.0942
11420TIP3    H255676   1.856   2.732   3.832 -0.6138  0.0075  0.5356
11421TIP3   OH255677   0.066   5.811  10.663 -0.3925  0.0905  0.8552
11421TIP3    H155678   0.027   5.862  10.592 -2.5047 -1.2191  0.9881
11421TIP3    H255679   0.076   5.874  10.735  3.0904  1.7897 -0.9091
11422TIP3   OH255680   5.477   0.581   5.365  0.6990  0.2337 -0.0486
11422TIP3    H155681   5.516   0.501   5.397 -0.1087  0.2800  1.0976
11422TIP3    H255682   5.515   0.593   5.277  0.9743 -1.2716 -0.1561
11423TIP3   OH255683   2.289   0.312  12.884  0.8162 -0.3067 -0.5410
11423TIP3    H155684   2.217   0.249  12.874  1.4303 -1.0270 -0.5224
11423TIP3    H255685   2.338   0.305  12.802 -0.4215  1.8870 -1.5690
11424TIP3   OH255686   6.414   4.765  10.813 -0.8313 -0.0490 -0.3871
11424TIP3    H155687   6.426   4.670  10.821 -2.3195 -0.2325 -0.0338
11424TIP3    H255688   6.386   4.793  10.900 -1.3602  0.5466 -0.7363
11425TIP3   OH255689   0.770   6.122  13.246 -0.1942 -0.3677  0.0487
11425TIP3    H155690   0.781   6.054  13.180 -2.1996  0.7760 -1.5939
11425TIP3    H255691   0.699   6.089  13.302 -0.4581 -0.0946 -0.1222
11426TIP3   OH255692   4.613   6.188  12.695 -0.1707  0.0623 -0.3784
11426TIP3    H155693   4.533   6.151  12.734 -1.4838  0.9486 -2.0915
11426TIP3    H255694   4.674   6.115  12.693 -1.3091 -0.9431  0.0013
11427TIP3   OH255695   1.934   1.848   1.145 -0.4031  0.5444 -0.6023
11427TIP3    H155696   1.922   1.795   1.225  0.1000  0.6561 -0.4539
11427TIP3    H255697   1.929   1.784   1.074 -0.4555  0.3893 -0.4621
11428TIP3   OH255698   0.247   2.308   4.049  0.0906  0.3753  0.0967
11428TIP3    H155699   0.326   2.270   4.012  1.3900  2.2770  0.7077
11428TIP3    H255700   0.178   2.244   4.033  2.0846 -2.1648  1.0897
11429TIP3   OH255701   5.319   6.082  16.865  0.5746  0.0743  0.3199
11429TIP3    H155702   5.251   6.098  16.931  0.5048 -2.3808  0.9377
11429TIP3    H255703   5.380   6.155  16.875 -1.1483  1.5294  0.7889
11430TIP3   OH255704   0.632   2.711   1.443  0.2726  0.4680  0.4391
11430TIP3    H155705   0.651   2.639   1.503 -3.5827 -1.4859 -0.4040
11430TIP3    H255706   0.630   2.789   1.499 -0.8223 -0.9177  2.4445
11431TIP3   OH255707   3.546   0.548   3.366 -0.0134 -0.2189 -0.2103
11431TIP3    H155708   3.569   0.607   3.438 -1.1483  1.1657 -0.9118
11431TIP3    H255709   3.463   0.508   3.394 -0.5201  0.4127 -0.7586
11432TIP3   OH255710   6.255   5.977   5.599 -0.0457 -0.5204  0.0738
11432TIP3    H155711   6.186   5.978   5.666 -1.5663  0.6251 -1.4152
11432TIP3    H255712   6.314   6.048   5.625  0.1716 -1.0080  0.9465
11433TIP3   OH255713   0.170   2.144   5.062  0.1767  0.2374  0.2499
11433TIP3    H155714   0.218   2.127   5.143  0.0028  1.2793  0.5902
11433TIP3    H255715   0.193   2.235   5.040 -1.2214  0.5850  0.1406
11434TIP3   OH255716   0.082   5.691   1.971  0.2525 -0.4495 -0.2051
11434TIP3    H155717   0.079   5.726   2.060  0.2938 -0.0763 -0.3502
11434TIP3    H255718   0.006   5.633   1.965 -1.2750  1.4968 -0.7420
11435TIP3   OH255719   2.152   5.403   3.555  0.1256 -0.1148 -0.0669
11435TIP3    H155720   2.232   5.384   3.603  0.2081 -0.8860 -0.4939
11435TIP3    H255721   2.179   5.402   3.463 -0.3440 -0.2374 -0.2061
11436TIP3   OH255722   4.074   1.680   0.889  0.0164 -0.2970 -0.1546
11436TIP3    H155723   4.025   1.762   0.881 -0.1858 -0.2714  1.1251
11436TIP3    H255724   4.128   1.691   0.967 -0.8038 -1.7488  0.6803
11437TIP3   OH255725   4.249   6.043  14.819  0.5781  0.1608 -0.5763
11437TIP3    H155726   4.200   6.112  14.773 -1.5670 -1.8048 -1.4943
11437TIP3    H255727   4.294   5.995  14.749  0.3797 -0.5592 -0.2251
11438TIP3   OH255728   2.004   1.596  14.619  0.3359  0.2682  0.1689
11438TIP3    H155729   1.939   1.651  14.574  0.1172  0.2864  0.4959
11438TIP3    H255730   2.024   1.645  14.699  1.5159  0.7528 -0.4053
11439TIP3   OH255731   3.999   5.512   6.023  0.3795 -0.4504 -0.5358
11439TIP3    H155732   3.961   5.436   5.980 -0.9588 -1.2896  1.9800
11439TIP3    H255733   3.927   5.574   6.032  0.5567 -0.3893  0.6685
11440TIP3   OH255734   4.723   2.109   1.597 -0.5783 -0.2756 -0.1974
11440TIP3    H155735   4.800   2.152   1.559 -1.3540  1.6359  0.2752
11440TIP3    H255736   4.651   2.169   1.578 -1.4688 -0.6419  1.7917
11441TIP3   OH255737   2.733   3.975  13.757  0.0657  0.1648 -0.7351
11441TIP3    H155738   2.814   3.996  13.803 -0.6860 -1.6567  1.7064
11441TIP3    H255739   2.757   3.906  13.695  0.4722 -0.2121 -0.1736
11442TIP3   OH255740   5.131   4.475  13.741 -0.3569 -0.0015  0.1408
11442TIP3    H155741   5.216   4.489  13.783 -1.0839  1.0214  1.3217
11442TIP3    H255742   5.070   4.529  13.790 -1.8193 -1.1329 -0.3404
11443TIP3   OH255743   0.853   0.481  14.160 -0.0996 -0.1451  0.2202
11443TIP3    H155744   0.829   0.541  14.231  0.2194  0.6569 -0.3286
11443TIP3    H255745   0.804   0.513  14.085  0.3028 -0.3884 -0.1497
11444TIP3   OH255746   2.450   4.774  13.519  0.7988  0.1966  0.4131
11444TIP3    H155747   2.355   4.764  13.515  0.4327  2.6176  1.4718
11444TIP3    H255748   2.483   4.685  13.531 -1.3590 -0.6340  0.6388
11445TIP3   OH255749   0.778   1.670   3.064 -0.2663  0.0126  0.4956
11445TIP3    H155750   0.688   1.637   3.071 -0.6067  0.8595  0.1813
11445TIP3    H255751   0.773   1.741   3.001  0.6937 -0.1355  0.2311
11446TIP3   OH255752   5.039   1.797  16.799  0.1002  0.1390  0.5564
11446TIP3    H155753   5.127   1.783  16.834 -0.0716  1.2492  1.4918
11446TIP3    H255754   4.989   1.721  16.829  0.4390  0.1132  1.0718
11447TIP3   OH255755   0.094   5.091   6.376  0.1873 -0.1108 -0.8850
11447TIP3    H155756   0.138   5.064   6.457 -0.3288 -1.1906 -0.9414
11447TIP3    H255757   0.151   5.059   6.306 -0.2889 -0.8491 -0.9501
11448TIP3   OH255758   2.612   4.039   0.966  0.0027  0.0556 -0.0508
11448TIP3    H155759   2.629   4.083   0.883  1.8442  1.6803  1.0916
11448TIP3    H255760   2.518   4.048   0.979 -0.4682 -0.9805 -2.3088
11449TIP3   OH255761   0.702   6.721   5.949  0.6172 -0.3855 -0.1940
11449TIP3    H155762   0.614   6.759   5.942  0.4514 -0.4997  1.0974
11449TIP3    H255763   0.761   6.790   5.919  0.1741  0.1194  0.0922
11450TIP3   OH255764   0.334   2.581  10.862 -1.0443  0.7669 -0.0413
11450TIP3    H155765   0.349   2.586  10.767 -0.8109  0.8542 -0.0015
11450TIP3    H255766   0.365   2.666  10.895 -2.2903  1.2424 -0.0357
11451TIP3   OH255767   6.252   3.003  11.060  0.0612 -0.8094  0.6682
11451TIP3    H155768   6.279   2.998  11.151 -1.3663  0.5369  1.2181
11451TIP3    H255769   6.175   3.060  11.061 -1.7657 -3.0117 -0.9674
11452TIP3   OH255770   1.351   6.304  17.202 -0.2576  0.0723 -0.2346
11452TIP3    H155771   1.403   6.383  17.214  0.9475 -0.7060 -0.2185
11452TIP3    H255772   1.414   6.237  17.176 -1.2013 -0.9831  0.1176
11453TIP3   OH255773   3.194   5.415  13.842  0.0073  0.4504  0.0753
11453TIP3    H155774   3.109   5.394  13.805  0.0533  1.8610 -0.9394
11453TIP3    H255775   3.186   5.506  13.871  0.5517 -0.0367  1.9069
11454TIP3   OH255776   3.239   5.170  14.087 -0.3414  0.0907  0.3327
11454TIP3    H155777   3.266   5.262  14.085  0.1012 -0.0497 -0.2067
11454TIP3    H255778   3.218   5.148  13.996 -3.0941  0.4176  0.7944
11455TIP3   OH255779   2.024   6.571  11.515 -0.1766 -0.0558  0.6460
11455TIP3    H155780   1.997   6.624  11.590 -1.9328 -0.2818  0.2218
11455TIP3    H255781   2.090   6.623  11.471 -0.6625  1.0418  1.1706
11456TIP3   OH255782   2.747   2.688   5.438  0.2237 -0.5232 -0.0540
11456TIP3    H155783   2.779   2.776   5.416 -0.3478 -0.5882 -1.2051
11456TIP3    H255784   2.779   2.673   5.527  0.2844  0.8714  0.1871
11457TIP3   OH255785   3.389   0.502   1.427 -0.0055  0.2280  0.3559
11457TIP3    H155786   3.296   0.526   1.432  0.3351  1.7042  0.0462
11457TIP3    H255787   3.401   0.440   1.499 -0.6281  2.2076  2.2794
11458TIP3   OH255788   3.788   4.146   3.944  0.5149  0.4771 -0.0260
11458TIP3    H155789   3.711   4.120   3.894  0.6017  0.3863 -0.1136
11458TIP3    H255790   3.858   4.153   3.879  0.5372  0.7427  0.0258
11459TIP3   OH255791   5.973   4.004   5.854 -0.3171 -0.4434 -0.4668
11459TIP3    H155792   5.911   4.059   5.902 -0.0078  0.5948 -1.2441
11459TIP3    H255793   5.963   4.030   5.763 -1.9131 -3.3286 -1.2704
11460TIP3   OH255794   3.454   2.332   5.236 -0.2342 -0.3322  0.3039
11460TIP3    H155795   3.477   2.424   5.223  0.2231 -0.4663  0.1395
11460TIP3    H255796   3.430   2.326   5.328 -1.4885  0.2108  0.0243
11461TIP3   OH255797   1.840   1.557  13.669 -0.4595  0.2945 -0.0008
11461TIP3    H155798   1.789   1.549  13.749 -0.5958 -0.1039 -0.1268
11461TIP3    H255799   1.804   1.490  13.610  0.2615 -0.0538 -0.0579
11462TIP3   OH255800   6.702   0.436   2.849  0.0029  0.1808  0.2181
11462TIP3    H155801   6.767   0.454   2.917 -0.3474 -0.2145  0.6635
11462TIP3    H255802   6.753   0.431   2.768  0.3335  1.3724  0.3300
11463TIP3   OH255803   5.646   0.994  16.213  0.4097 -0.0347  0.0655
11463TIP3    H155804   5.711   0.991  16.283  0.3278  1.6080  0.2591
11463TIP3    H255805   5.606   1.081  16.221 -0.1712 -0.1181 -1.5006
11464TIP3   OH255806   4.168   2.019   0.557 -0.0955  0.1317  0.1569
11464TIP3    H155807   4.215   2.088   0.603  0.2778  1.8970 -2.6644
11464TIP3    H255808   4.224   1.942   0.566 -0.2267  0.2448  2.8547
11465TIP3   OH255809   6.586   4.921  17.070  0.3865 -0.0789 -0.0640
11465TIP3    H155810   6.520   4.856  17.094  0.8211 -0.4005  0.2859
11465TIP3    H255811   6.649   4.874  17.016 -0.1381  0.4454 -1.1519
11466TIP3   OH255812   5.407   4.334   5.847  0.4137  0.6129 -0.4989
11466TIP3    H155813   5.411   4.284   5.766 -1.7256  0.2383 -0.4096
11466TIP3    H255814   5.456   4.281   5.910 -0.4883 -0.6200 -0.8010
11467TIP3   OH255815   0.494   1.374   2.649 -0.2475 -0.5510 -0.2864
11467TIP3    H155816   0.457   1.339   2.568 -0.0010 -1.3509 -0.0578
11467TIP3    H255817   0.535   1.299   2.691 -0.8134 -0.2603  0.8294
11468TIP3   OH255818   4.205   5.972   6.471  0.1624 -0.0011  0.7825
11468TIP3    H155819   4.197   6.039   6.538 -0.3549  0.3214  0.4056
11468TIP3    H255820   4.116   5.941   6.456  0.1968  0.2903 -0.1104
11469TIP3   OH255821   0.419   2.502  16.402 -0.0241 -0.3162 -0.2376
11469TIP3    H155822   0.433   2.575  16.463 -0.7999  0.1488 -0.6003
11469TIP3    H255823   0.448   2.536  16.317  0.3271 -0.6995 -0.2773
11470TIP3   OH255824   3.857   1.773   5.195  0.1120 -0.2378  0.3158
11470TIP3    H155825   3.852   1.794   5.288 -0.9138  0.0239  0.2141
11470TIP3    H255826   3.845   1.857   5.150  1.2644 -0.2526 -0.0601
11471TIP3   OH255827   3.656   5.878   4.758  0.3005  0.0397 -0.6334
11471TIP3    H155828   3.626   5.787   4.762 -1.1480  0.5286  1.0323
11471TIP3    H255829   3.710   5.888   4.836 -1.3882  1.1702  0.4463
11472TIP3   OH255830   2.541   0.838  16.943 -0.1300  0.1393  0.2011
11472TIP3    H155831   2.571   0.778  16.875  0.4923 -0.3635  0.8988
11472TIP3    H255832   2.563   0.925  16.910 -1.7430  0.0794 -1.1731
11473TIP3   OH255833   5.635   2.805   1.396 -0.0322  0.2372  0.1948
11473TIP3    H155834   5.609   2.723   1.437  2.4263 -1.5494 -1.4443
11473TIP3    H255835   5.641   2.868   1.467 -1.4340 -1.1579  1.6042
11474TIP3   OH255836   3.424   0.197  12.151 -0.4306  0.3071  0.2768
11474TIP3    H155837   3.504   0.145  12.147  0.6701  1.9813 -1.0465
11474TIP3    H255838   3.374   0.172  12.074 -0.2934  0.5752  0.0970
11475TIP3   OH255839   4.416   6.080  12.867  0.3244 -0.0064 -0.1471
11475TIP3    H155840   4.410   5.987  12.845  1.1627  0.0340 -0.5786
11475TIP3    H255841   4.441   6.081  12.960  3.0959 -0.2796 -0.8115
11476TIP3   OH255842   0.713   0.257  13.601 -0.4209  0.1474 -0.6787
11476TIP3    H155843   0.713   0.347  13.632 -1.8902 -0.2492  0.5961
11476TIP3    H255844   0.712   0.204  13.681 -1.0257 -0.9695 -1.3999
11477TIP3   OH255845   4.564   1.118  14.425 -0.2804 -0.5294  0.3975
11477TIP3    H155846   4.559   1.044  14.364  1.8134 -0.3877 -0.0231
11477TIP3    H255847   4.483   1.112  14.476 -0.6461 -2.4943 -0.3069
11478TIP3   OH255848   3.237   4.559   5.084 -0.2599 -0.1122  0.0333
11478TIP3    H155849   3.286   4.481   5.112 -0.6888  0.6231  3.3039
11478TIP3    H255850   3.284   4.632   5.124 -1.6229  0.9854 -0.3191
11479TIP3   OH255851   2.966   1.831  12.705 -0.5264  0.2408 -0.1961
11479TIP3    H155852   3.026   1.778  12.652 -1.3246 -0.3738 -0.5112
11479TIP3    H255853   2.969   1.791  12.792  2.0088  2.2126  0.7535
11480TIP3   OH255854   5.205   6.245   1.722 -0.0669  0.2612  0.1678
11480TIP3    H155855   5.115   6.255   1.691 -0.6375 -1.2468  1.2385
11480TIP3    H255856   5.196   6.212   1.811  1.5551 -0.2288  0.1793
11481TIP3   OH255857   4.376   1.433   0.761  0.3319 -0.3675 -0.5188
11481TIP3    H155858   4.312   1.373   0.798  0.2832  0.1083  0.2029
11481TIP3    H255859   4.386   1.501   0.828  1.0114 -0.0257 -0.9532
11482TIP3   OH255860   4.424   6.092   2.069 -0.5421  0.0906 -0.0231
11482TIP3    H155861   4.373   6.136   2.001  0.1090  2.4147  0.9079
11482TIP3    H255862   4.496   6.153   2.089  0.7261 -1.6427  0.9902
11483TIP3   OH255863   2.469   3.837  11.756 -0.3447 -0.3399  0.0149
11483TIP3    H155864   2.401   3.784  11.715 -2.1499  2.1348 -0.4344
11483TIP3    H255865   2.516   3.877  11.682 -1.0023  1.0021  0.2879
11484TIP3   OH255866   2.199   5.055  15.562 -0.0022 -0.1150 -0.3502
11484TIP3    H155867   2.172   5.122  15.625  3.9911  0.4631  0.9959
11484TIP3    H255868   2.270   5.096  15.513  0.3900 -2.3353 -1.7359
11485TIP3   OH255869   1.309   2.823   4.514 -0.0693 -0.0598 -0.1633
11485TIP3    H155870   1.226   2.776   4.517  0.9183 -1.8425  0.9588
11485TIP3    H255871   1.291   2.907   4.556 -1.3960 -0.2605 -0.3102
11486TIP3   OH255872   5.247   2.495   0.596 -0.5829 -0.3251 -0.2333
11486TIP3    H155873   5.234   2.416   0.649  0.5309 -0.5283 -0.2453
11486TIP3    H255874   5.340   2.494   0.573 -0.6069  0.8573 -0.4556
11487TIP3   OH255875   4.071   0.244  10.741  0.0622 -0.2672  0.0120
11487TIP3    H155876   3.998   0.305  10.739  0.1041 -0.2016  0.3188
11487TIP3    H255877   4.035   0.165  10.782  0.1528 -0.2429  0.1421
11488TIP3   OH255878   0.194   5.052   4.986 -0.1262  0.1426 -0.5836
11488TIP3    H155879   0.161   5.140   5.002 -0.0199  0.2683 -1.0413
11488TIP3    H255880   0.255   5.036   5.058 -0.6866  0.1614 -0.1018
11489TIP3   OH255881   2.255   3.118  12.077 -0.8158  0.2058 -0.7010
11489TIP3    H155882   2.204   3.040  12.097 -1.6181  0.5660 -1.2933
11489TIP3    H255883   2.268   3.161  12.162 -0.7008 -0.3670 -0.4271
11490TIP3   OH255884   6.106   3.811  13.002 -0.6538 -0.5432  0.0379
11490TIP3    H155885   6.077   3.902  12.998  0.0397 -0.2882  0.6530
11490TIP3    H255886   6.037   3.762  12.957  0.3622  0.5983 -3.0419
11491TIP3   OH255887   1.860   6.138   6.555 -0.1208  0.8375  0.0226
11491TIP3    H155888   1.833   6.227   6.576 -0.3426  0.7663  0.0363
11491TIP3    H255889   1.808   6.115   6.478 -1.4836  0.0294  1.1308
11492TIP3   OH255890   5.298   5.181   2.571  0.0895 -0.3309 -0.4686
11492TIP3    H155891   5.243   5.143   2.502  0.9813  0.6233 -1.7621
11492TIP3    H255892   5.299   5.275   2.551  2.8479 -0.3949 -1.0325
11493TIP3   OH255893   6.158   3.232   4.970  0.3162 -0.2930  0.5690
11493TIP3    H155894   6.077   3.240   4.919 -0.0248 -0.9439  1.0053
11493TIP3    H255895   6.137   3.170   5.040  0.2105  1.9241  2.6267
11494TIP3   OH255896   4.034   5.438   4.598  0.2247 -0.0866 -0.1280
11494TIP3    H155897   4.078   5.477   4.673  0.3944  0.1616 -0.3534
11494TIP3    H255898   3.941   5.457   4.611  0.4153  1.5788 -0.9001
11495TIP3   OH255899   6.355   2.770   1.913 -0.4562 -0.4369  0.5670
11495TIP3    H155900   6.348   2.864   1.902 -0.1418 -0.4975 -0.3136
11495TIP3    H255901   6.442   2.749   1.877 -0.6707 -1.0953  0.4156
11496TIP3   OH255902   0.606   3.382   1.552 -0.4498 -0.3079 -0.4523
11496TIP3    H155903   0.681   3.404   1.497  0.8341  0.4981  1.4846
11496TIP3    H255904   0.620   3.433   1.632 -3.7458  0.8356 -0.4609
11497TIP3   OH255905   6.078   6.240  12.207  1.1417  0.1508  0.0594
11497TIP3    H155906   5.993   6.283  12.198  0.5533 -0.3517  2.6142
11497TIP3    H255907   6.110   6.267  12.293  2.2026 -1.9649  0.3920
11498TIP3   OH255908   6.162   3.954  15.139 -0.6872  0.5286  0.0405
11498TIP3    H155909   6.080   3.940  15.092 -0.8172  1.4739 -0.0303
11498TIP3    H255910   6.136   4.000  15.219 -0.4623 -1.0057  1.0382
11499TIP3   OH255911   1.348   6.060   3.245 -0.1376  0.1930  0.4463
11499TIP3    H155912   1.333   6.096   3.333  0.5730 -1.4108  1.2595
11499TIP3    H255913   1.443   6.065   3.233 -0.0018 -1.3272  0.6012
11500TIP3   OH255914   0.714   5.840  15.866 -0.1494 -0.4413 -0.3659
11500TIP3    H155915   0.787   5.901  15.876  0.9216 -1.3317 -2.3243
11500TIP3    H255916   0.637   5.897  15.865  0.7990  0.8986 -1.8085
11501TIP3   OH255917   0.648   5.997  14.564 -0.5117 -0.4120 -0.2936
11501TIP3    H155918   0.739   5.988  14.539 -1.1348 -0.1890 -2.8547
11501TIP3    H255919   0.599   5.985  14.483 -2.8333 -1.4100  1.1434
11502TIP3   OH255920   1.807   5.489  15.287 -0.7954  0.1215  0.0440
11502TIP3    H155921   1.816   5.441  15.369 -1.9607 -0.6392 -0.2470
11502TIP3    H255922   1.877   5.554  15.289  1.5390 -2.2351 -0.0124
11503TIP3   OH255923   0.586   3.184   1.935 -0.0460 -0.3387 -0.4155
11503TIP3    H155924   0.509   3.202   1.988  0.9013  2.5775  0.1272
11503TIP3    H255925   0.639   3.126   1.989 -2.4337 -3.8829 -1.4836
11504TIP3   OH255926   2.118   3.794   4.656  0.5436 -0.2800  0.1660
11504TIP3    H155927   2.116   3.758   4.568  1.5426 -0.6384  0.2762
11504TIP3    H255928   2.056   3.739   4.705 -0.3757  0.2233 -0.4050
11505TIP3   OH255929   5.891   5.322   5.825 -0.2017  0.6861  0.1621
11505TIP3    H155930   5.894   5.384   5.752 -0.2333 -0.7087 -1.0926
11505TIP3    H255931   5.801   5.288   5.824  0.0758 -0.0685  0.2018
11506TIP3   OH255932   5.675   5.251   3.947  0.2809 -0.0778  0.0853
11506TIP3    H155933   5.685   5.254   4.042 -0.3672  0.1413  0.1526
11506TIP3    H255934   5.756   5.211   3.916 -0.0809 -1.4532  0.8361
11507TIP3   OH255935   3.316   1.920   4.783 -0.3063 -0.4966  0.1898
11507TIP3    H155936   3.356   1.865   4.852 -0.6935 -2.3153 -0.9605
11507TIP3    H255937   3.384   1.927   4.716  0.1425  1.4400  0.7867
11508TIP3   OH255938   4.095   0.554  13.442  0.1710  0.1648 -0.2765
11508TIP3    H155939   4.077   0.461  13.435 -0.4715  0.1144  1.4738
11508TIP3    H255940   4.105   0.584  13.352 -0.8327 -1.3590 -0.9252
11509TIP3   OH255941   3.397   1.674  14.718 -0.4266  0.1804  0.2503
11509TIP3    H155942   3.318   1.713  14.757 -0.8571  0.9895 -1.3807
11509TIP3    H255943   3.381   1.676  14.624  0.3968 -2.1483  0.0069
11510TIP3   OH255944   2.954   4.861   2.918 -0.0190 -0.3937 -0.0693
11510TIP3    H155945   2.877   4.879   2.971  0.2728 -1.8480  0.9170
11510TIP3    H255946   2.934   4.899   2.832 -0.8156  1.3512  0.8356
11511TIP3   OH255947   4.533   0.264  16.585 -0.1312  0.3065 -0.4642
11511TIP3    H155948   4.567   0.352  16.567 -0.4175  0.9773  1.9247
11511TIP3    H255949   4.504   0.268  16.676 -1.2952 -1.9337 -0.6793
11512TIP3   OH255950   0.213   0.315  11.577  0.3555 -0.0924 -0.3145
11512TIP3    H155951   0.149   0.317  11.507 -0.8501 -1.6918  0.6678
11512TIP3    H255952   0.289   0.270  11.539 -0.2631 -0.8924 -0.6204
11513TIP3   OH255953   3.731   5.168   4.810 -0.5207 -0.2736 -0.1424
11513TIP3    H155954   3.732   5.072   4.813 -0.0809 -0.2667  0.1752
11513TIP3    H255955   3.727   5.190   4.717  0.8426 -0.6088 -0.3072
11514TIP3   OH255956   2.584   2.405  17.227  0.1673  0.6243 -0.0696
11514TIP3    H155957   2.511   2.467  17.223  0.0603  0.4519 -1.4032
11514TIP3    H255958   2.658   2.457  17.256 -0.2629  1.0224  0.3386
11515TIP3   OH255959   4.603   6.309   2.718  0.2485 -0.3959 -0.6608
11515TIP3    H155960   4.535   6.325   2.653 -0.6430  0.4365  0.4430
11515TIP3    H255961   4.649   6.231   2.686 -1.9631 -1.7072 -0.8378
11516TIP3   OH255962   1.511   2.053   5.533 -0.0105 -0.2387  0.2884
11516TIP3    H155963   1.434   2.062   5.589 -0.2383 -0.9585  0.1045
11516TIP3    H255964   1.476   2.030   5.447  0.3982 -0.4271  0.1674
11517TIP3   OH255965   4.659   6.509   0.463 -0.1843  0.9222  0.6198
11517TIP3    H155966   4.594   6.476   0.524 -1.1467  0.1660 -0.7491
11517TIP3    H255967   4.742   6.503   0.510 -0.7494 -0.5687  1.4920
11518TIP3   OH255968   4.319   5.508  13.621  0.8914 -0.3577 -0.3988
11518TIP3    H155969   4.290   5.590  13.659 -0.6757 -0.6104 -0.9910
11518TIP3    H255970   4.392   5.533  13.563  0.3668  0.6323 -0.6460
11519TIP3   OH255971   1.490   3.829  12.445 -0.0525  0.1627  0.3890
11519TIP3    H155972   1.576   3.807  12.481  0.8958  0.5951 -1.4712
11519TIP3    H255973   1.447   3.879  12.514  1.1667 -0.1178  1.3827
11520TIP3   OH255974   6.638   3.799   0.330  0.5483 -0.0468  0.0323
11520TIP3    H155975   6.577   3.832   0.396  0.4127  2.7198 -1.3252
11520TIP3    H255976   6.634   3.704   0.339 -1.7327  0.1398  1.9591
11521TIP3   OH255977   1.064   3.912   2.330  0.4006  0.1667 -0.1359
11521TIP3    H155978   1.035   3.984   2.274  0.7980 -1.4512 -2.5630
11521TIP3    H255979   1.155   3.933   2.351 -0.0549  1.2924  0.8335
11522TIP3   OH255980   2.778   6.022  11.430 -0.6921 -0.2316 -0.7564
11522TIP3    H155981   2.788   5.943  11.483  0.4596  1.3692  1.5872
11522TIP3    H255982   2.710   6.073  11.474  1.7825  2.1280  0.6364
11523TIP3   OH255983   5.054   1.014  12.850  0.0037  0.3426 -0.4494
11523TIP3    H155984   4.980   0.971  12.894  1.4637 -1.6983  0.1657
11523TIP3    H255985   5.084   1.081  12.912  0.4378 -0.7811  0.5888
11524TIP3   OH255986   1.919   5.810   5.556  0.3962 -1.1177  0.1415
11524TIP3    H155987   2.002   5.839   5.517  0.6993 -0.3668  1.2877
11524TIP3    H255988   1.904   5.871   5.628 -1.5273 -0.8232 -0.4578
11525TIP3   OH255989   2.117   6.535   2.406  0.2099  0.1625 -0.2011
11525TIP3    H155990   2.177   6.496   2.470 -1.4121 -0.1359  1.2016
11525TIP3    H255991   2.103   6.624   2.437  0.2486  0.3784 -0.7799
11526TIP3   OH255992   3.467   0.679  12.730  0.0127 -0.6533  0.4543
11526TIP3    H155993   3.530   0.656  12.799 -0.0733 -0.6782  0.5247
11526TIP3    H255994   3.497   0.764  12.698  1.5233 -1.7355 -1.1865
11527TIP3   OH255995   6.003   1.402  12.820  0.4018  0.2519  0.2177
11527TIP3    H155996   6.084   1.351  12.825  1.6848  2.2285  0.7532
11527TIP3    H255997   5.940   1.342  12.780  2.3318 -1.0993 -1.0098
11528TIP3   OH255998   0.684   0.798  17.391 -0.1404 -0.3805  0.1334
11528TIP3    H155999   0.632   0.863  17.343  1.2516 -0.3808 -1.4664
11528TIP3    H256000   0.670   0.820  17.484 -1.1798  1.0122 -0.3223
11529TIP3   OH256001   0.685   2.540   2.568  0.1725 -0.8753 -0.0303
11529TIP3    H156002   0.750   2.503   2.508  0.7120  0.7502 -0.4905
11529TIP3    H256003   0.737   2.586   2.635 -0.4775 -0.3859  0.1455
11530TIP3   OH256004   2.396   3.619  13.637 -0.4926 -0.3099  0.4071
11530TIP3    H156005   2.407   3.658  13.550 -1.0886 -1.4501 -0.2153
11530TIP3    H256006   2.479   3.575  13.655 -0.8456 -1.2867 -0.2511
11531TIP3   OH256007   4.652   1.593   3.651  0.4865  0.6298  0.1916
11531TIP3    H156008   4.572   1.545   3.632  0.3167  0.1853  1.9287
11531TIP3    H256009   4.716   1.557   3.588 -0.1465 -0.4784  0.1497
11532TIP3   OH256010   1.605   1.113  17.415 -0.0927  0.0903 -0.3369
11532TIP3    H156011   1.629   1.202  17.389  0.3738  0.1442  0.2790
11532TIP3    H256012   1.686   1.063  17.408 -0.3692 -0.3129 -0.7523
11533TIP3   OH256013   4.378   4.602  11.285  0.1194  0.1287  0.4358
11533TIP3    H156014   4.418   4.632  11.203  1.1611  1.4197  1.3707
11533TIP3    H256015   4.290   4.575  11.261  0.9758 -1.1952 -1.4167
11534TIP3   OH256016   0.777   5.510  17.335 -0.0442 -0.3759  0.2589
11534TIP3    H156017   0.750   5.567  17.407  0.3606 -0.1677  0.2492
11534TIP3    H256018   0.734   5.546  17.258 -0.1123 -0.3267  0.3203
11535TIP3   OH256019   2.494   2.592  13.457 -0.3392  0.1461  0.0769
11535TIP3    H156020   2.414   2.627  13.417  0.7780  0.0452 -2.3575
11535TIP3    H256021   2.462   2.530  13.522 -2.2567  1.6174  0.6469
11536TIP3   OH256022   2.230   2.808  13.350  0.1608  0.6104 -0.5593
11536TIP3    H156023   2.274   2.849  13.425  2.3890 -0.8300 -0.9916
11536TIP3    H256024   2.160   2.756  13.389  0.8306  0.4471  0.4672
11537TIP3   OH256025   1.455   0.037   3.359  0.3779  0.6598  0.6822
11537TIP3    H156026   1.475  -0.056   3.350  0.7347  0.8700 -1.0837
11537TIP3    H256027   1.499   0.078   3.285 -1.8081  1.8978 -0.0210
11538TIP3   OH256028   4.550   3.572  15.027 -0.2303 -0.5498  0.0372
11538TIP3    H156029   4.617   3.505  15.042  0.2414  0.2318  1.6245
11538TIP3    H256030   4.467   3.524  15.030  0.0539 -0.9980  1.8326
11539TIP3   OH256031   6.051   4.706  13.669  0.3556 -0.7697  0.0395
11539TIP3    H156032   6.065   4.754  13.587 -1.6466  0.2655  0.2491
11539TIP3    H256033   5.985   4.640  13.647 -1.3111  0.4655  1.0988
11540TIP3   OH256034   0.488   3.389   2.240 -0.1252 -0.8063  0.0755
11540TIP3    H156035   0.459   3.356   2.155 -0.3502 -1.8730  0.5497
11540TIP3    H256036   0.555   3.455   2.219 -1.3530  0.1644 -0.9633
11541TIP3   OH256037   0.849   0.243   1.086 -0.4609  0.3228  0.0251
11541TIP3    H156038   0.771   0.286   1.051 -0.8664 -1.1979 -1.0784
11541TIP3    H256039   0.920   0.303   1.066 -1.2445  1.4346  0.4546
11542TIP3   OH256040   2.871   0.437   4.232 -0.2980  0.3889  0.8256
11542TIP3    H156041   2.810   0.384   4.284 -1.8734  1.0061 -0.3188
11542TIP3    H256042   2.867   0.524   4.272  2.0741 -0.1627  2.5239
11543TIP3   OH256043   6.091   1.909   1.895 -0.0368  0.1651  0.2803
11543TIP3    H156044   6.002   1.921   1.925  0.2444 -0.6100  1.5091
11543TIP3    H256045   6.118   1.994   1.862 -1.1412  0.4589  0.1060
11544TIP3   OH256046   0.954   2.862  15.735 -0.2851 -0.0825  0.3822
11544TIP3    H156047   0.882   2.881  15.796  0.4964  0.2858  1.2136
11544TIP3    H256048   0.912   2.857  15.649 -1.5888 -1.6386  1.0401
11545TIP3   OH256049   6.244   4.269   0.592 -0.3953 -0.0249  0.2274
11545TIP3    H156050   6.274   4.209   0.660  1.5193 -0.5843 -1.0196
11545TIP3    H256051   6.303   4.345   0.599 -0.8374  0.3626 -0.1503
11546TIP3   OH256052   4.328   2.826   3.501 -0.1463 -0.1719 -0.3850
11546TIP3    H156053   4.403   2.818   3.560 -0.7931  0.8324  0.6100
11546TIP3    H256054   4.285   2.907   3.527 -1.1851 -0.3630 -1.4063
11547TIP3   OH256055   5.542   3.098  16.439 -0.4785 -0.5252  0.2136
11547TIP3    H156056   5.612   3.159  16.462 -1.2936  0.5842 -0.1600
11547TIP3    H256057   5.586   3.014  16.428  1.1244  0.4983 -1.8847
11548TIP3   OH256058   4.504   2.692   0.973 -0.3438 -0.6868  0.0709
11548TIP3    H156059   4.561   2.767   0.990 -1.5233  0.1828  0.2836
11548TIP3    H256060   4.565   2.620   0.954  0.8000  0.4867 -0.9340
11549TIP3   OH256061   4.045   3.588   2.163  0.2887  0.0117 -0.4141
11549TIP3    H156062   4.076   3.498   2.165  1.2768  0.3187 -0.9624
11549TIP3    H256063   3.962   3.584   2.115 -0.5083 -0.8087  0.9700
11550TIP3   OH256064   1.302   0.407  16.672 -0.1469 -0.5090  0.3024
11550TIP3    H156065   1.235   0.380  16.734 -0.0388 -0.4700  0.4387
11550TIP3    H256066   1.290   0.501  16.662 -0.8822 -0.6859 -0.6004
11551TIP3   OH256067   1.300   0.486   5.140  0.3058 -0.0079 -0.0641
11551TIP3    H156068   1.273   0.574   5.114 -1.5911 -0.6039 -0.2624
11551TIP3    H256069   1.221   0.446   5.175  1.0418 -1.7443 -0.2750
11552TIP3   OH256070   0.404   5.601  12.712 -0.4611 -0.6721  0.1002
11552TIP3    H156071   0.441   5.565  12.632  0.2019  0.4732 -0.1393
11552TIP3    H256072   0.480   5.636  12.760 -1.2045  2.3533 -0.7104
11553TIP3   OH256073   0.939   5.625   5.024  0.7299 -0.0734 -0.4587
11553TIP3    H156074   0.874   5.663   4.965 -1.3415 -1.2439  0.9477
11553TIP3    H256075   0.949   5.690   5.093 -0.6877 -0.8152  0.4826
11554TIP3   OH256076   6.206   1.451   4.053 -0.2907  0.3697  0.8307
11554TIP3    H156077   6.176   1.525   4.106 -0.7976  0.2937  0.6532
11554TIP3    H256078   6.167   1.465   3.967  0.0649  0.1869  0.6346
11555TIP3   OH256079   0.324   2.238   4.573  0.2532 -0.4110  0.1165
11555TIP3    H156080   0.281   2.247   4.488 -1.8344 -0.7697  1.0599
11555TIP3    H256081   0.379   2.316   4.581 -0.8778  0.5263 -0.8414
11556TIP3   OH256082   1.077   3.420   5.225 -0.4986  0.4422  0.0292
11556TIP3    H156083   1.115   3.405   5.311 -0.4741  2.8592  0.4854
11556TIP3    H256084   0.984   3.436   5.242 -1.4046 -2.8687 -0.8427
11557TIP3   OH256085   5.970   3.420   4.286  0.5820 -0.0375  0.6447
11557TIP3    H156086   6.062   3.412   4.309  1.1965 -1.2848 -1.9141
11557TIP3    H256087   5.970   3.466   4.202 -1.1170 -0.4312  0.3896
11558TIP3   OH256088   2.885   6.686  16.373  0.1704 -0.0269  0.0797
11558TIP3    H156089   2.906   6.639  16.454  1.1381 -1.8511 -1.1429
11558TIP3    H256090   2.941   6.763  16.375  1.4951 -0.9619  0.3673
11559TIP3   OH256091   2.595   6.081   4.404 -0.6511  0.4794  0.1461
11559TIP3    H156092   2.521   6.027   4.433  0.2012 -0.9812 -0.3320
11559TIP3    H256093   2.664   6.063   4.467 -0.1238  0.4405 -0.4384
11560TIP3   OH256094   3.093   3.875  16.900  0.1752  0.5378  0.1341
11560TIP3    H156095   3.150   3.934  16.852  1.4316  0.0707  1.0171
11560TIP3    H256096   3.033   3.932  16.948  0.8304  1.0692  0.3177
11561TIP3   OH256097   1.101   0.971  15.132 -0.1202  0.1368  0.3076
11561TIP3    H156098   1.098   1.065  15.148  0.8349  0.4454 -1.0968
11561TIP3    H256099   1.161   0.937  15.198  0.7327  0.7687 -0.1230
11562TIP3   OH256100   1.121   2.005   5.487  0.4590  0.1038 -0.4777
11562TIP3    H156101   1.163   2.089   5.505  0.0177  0.5363 -1.4236
11562TIP3    H256102   1.180   1.940   5.526  0.7492  0.8520  0.3509
11563TIP3   OH256103   1.532   3.939   6.103 -0.2129 -0.6640  0.0277
11563TIP3    H156104   1.557   4.021   6.146 -0.3727 -0.0941 -0.9348
11563TIP3    H256105   1.524   3.962   6.011 -2.9511 -1.1024  0.0687
11564TIP3   OH256106   1.658   4.662   2.398 -0.0145 -0.4705  0.6214
11564TIP3    H156107   1.582   4.608   2.378  2.2212 -2.8748 -2.5491
11564TIP3    H256108   1.727   4.599   2.418  1.6972  1.4709  1.1586
11565TIP3   OH256109   0.357   5.380   5.693  0.5126  0.5454  0.0533
11565TIP3    H156110   0.340   5.395   5.786  1.5710  0.8792  0.2143
11565TIP3    H256111   0.341   5.464   5.651 -1.1194  0.0992 -0.2679
11566TIP3   OH256112   3.800   6.263  13.533 -0.6225  0.3931 -0.1788
11566TIP3    H156113   3.894   6.261  13.552 -0.9872 -0.8863  1.8492
11566TIP3    H256114   3.793   6.308  13.449  2.0653 -2.0702 -1.9181
11567TIP3   OH256115   5.224   2.540   5.918 -0.2426  0.6993  0.2086
11567TIP3    H156116   5.134   2.508   5.922 -0.1078  0.3998  1.3351
11567TIP3    H256117   5.218   2.631   5.948 -0.1522  0.6177  0.4821
11568TIP3   OH256118   3.722   3.283  12.438 -0.5859 -0.1397 -0.1896
11568TIP3    H156119   3.666   3.206  12.427 -1.6717  0.2563  2.0027
11568TIP3    H256120   3.808   3.247  12.460 -0.7758 -0.7477 -0.4306
11569TIP3   OH256121   4.716   5.745   0.876  0.3464  0.3958 -0.3196
11569TIP3    H156122   4.741   5.765   0.967 -2.8390  0.0767  0.7520
11569TIP3    H256123   4.761   5.663   0.857  0.0029 -0.2919  1.5435
11570TIP3   OH256124   6.647   3.125  14.188  0.3220 -0.1222  0.3115
11570TIP3    H156125   6.693   3.203  14.218 -0.2035  0.5543 -0.5971
11570TIP3    H256126   6.554   3.145  14.201  0.0922  0.0584 -1.3811
11571TIP3   OH256127   0.599   4.893  14.734 -0.1845 -0.4582 -0.1658
11571TIP3    H156128   0.543   4.826  14.693 -0.4371 -1.9980  2.4161
11571TIP3    H256129   0.604   4.865  14.826  2.1191  1.5205  0.3851
11572TIP3   OH256130   5.722   3.437  12.747 -0.1373  0.2878 -0.3622
11572TIP3    H156131   5.644   3.487  12.775 -0.8163 -0.8006 -0.2648
11572TIP3    H256132   5.727   3.365  12.809  1.9130  1.2061  0.6390
11573TIP3   OH256133   4.131   0.393  13.163 -0.1985 -0.1262 -0.9906
11573TIP3    H156134   4.219   0.399  13.201 -0.7310  1.6518  0.0699
11573TIP3    H256135   4.144   0.350  13.079  1.5251 -0.8916 -0.3850
11574TIP3   OH256136   4.735   1.722   0.873 -0.5317  0.3868 -0.0621
11574TIP3    H156137   4.773   1.802   0.909 -2.0774  1.2194 -0.1863
11574TIP3    H256138   4.775   1.713   0.786 -0.0456  0.7943  0.1148
11575TIP3   OH256139   0.763   2.877  16.229 -0.4603 -0.4265 -0.1743
11575TIP3    H156140   0.792   2.820  16.300  0.8495  0.3393 -0.0669
11575TIP3    H256141   0.675   2.905  16.255 -0.5808 -1.3025  0.4171
11576TIP3   OH256142   0.936   0.144  13.808 -0.3840 -0.2785  0.4899
11576TIP3    H156143   0.889   0.098  13.738 -0.9012 -0.7380  1.1256
11576TIP3    H256144   1.015   0.177  13.766  0.0625 -1.8441  0.0142
11577TIP3   OH256145   4.367   0.707   5.123 -0.6798  0.0084 -0.3833
11577TIP3    H156146   4.280   0.729   5.091 -0.3711 -0.1952 -1.4301
11577TIP3    H256147   4.413   0.791   5.128 -0.5971  0.0035 -0.9340
11578TIP3   OH256148   5.096   5.424   3.988 -0.3303  0.0904  0.4052
11578TIP3    H156149   5.151   5.501   4.004 -2.4764  1.5675  1.1225
11578TIP3    H256150   5.021   5.436   4.045 -0.5330 -2.8337  0.8867
11579TIP3   OH256151   5.372   4.809  11.858 -0.0577  0.3065  0.2879
11579TIP3    H156152   5.308   4.769  11.916  0.2066 -0.0583  0.3277
11579TIP3    H256153   5.415   4.736  11.815 -0.7798  0.5842 -0.9540
11580TIP3   OH256154   0.420   1.638  13.129 -0.0562 -0.3226 -0.0401
11580TIP3    H156155   0.391   1.688  13.205  1.2771  2.6663 -1.3646
11580TIP3    H256156   0.512   1.659  13.119 -0.5178  0.7196 -3.3473
11581TIP3   OH256157   2.055   0.488  11.490  0.3100 -0.1778  0.4854
11581TIP3    H156158   2.098   0.418  11.539 -1.3395 -1.2462  0.4827
11581TIP3    H256159   1.998   0.530  11.554  1.6292  1.5273  0.6109
11582TIP3   OH256160   4.432   1.093   1.308  0.4074  0.0534 -0.3484
11582TIP3    H156161   4.390   1.162   1.258 -0.6647 -0.5516 -0.3142
11582TIP3    H256162   4.383   1.089   1.390  0.5452 -0.6456 -0.2926
11583TIP3   OH256163   6.427   3.166  10.877 -0.1864 -0.0413  0.4679
11583TIP3    H156164   6.387   3.092  10.922 -0.1563 -1.2039 -1.3340
11583TIP3    H256165   6.361   3.236  10.883 -0.8207 -0.6666  0.9500
11584TIP3   OH256166   6.158   5.224  14.483 -0.5609 -0.6019 -0.0554
11584TIP3    H156167   6.106   5.260  14.410  0.4144 -1.6683 -1.3008
11584TIP3    H256168   6.134   5.280  14.557 -2.7155 -0.4061 -0.8100
11585TIP3   OH256169   4.130   0.221  11.919 -0.1413  0.3729  1.0038
11585TIP3    H156170   4.144   0.129  11.895 -2.1394 -0.4380  2.6046
11585TIP3    H256171   4.088   0.259  11.842  0.5416 -0.0880  0.3858
11586TIP3   OH256172   1.618   4.265  12.783 -0.7366  0.0600 -0.0735
11586TIP3    H156173   1.660   4.245  12.867 -1.4297  0.1089  0.2922
11586TIP3    H256174   1.690   4.268  12.720 -0.0456  1.2547  0.7344
11587TIP3   OH256175   3.256   4.944   4.912  0.2984  0.1796 -0.5280
11587TIP3    H156176   3.185   4.882   4.927 -0.4945  1.3091  0.5319
11587TIP3    H256177   3.252   4.963   4.819 -0.7356  0.1635 -0.4984
11588TIP3   OH256178   3.880   2.672  14.890  0.1749  0.2647  0.1994
11588TIP3    H156179   3.874   2.732  14.815  0.6190 -0.1778 -0.2014
11588TIP3    H256180   3.874   2.729  14.967  2.1298  1.0167 -0.1473
11589TIP3   OH256181   0.232   2.697  12.776 -0.0964  0.7093 -0.1501
11589TIP3    H156182   0.207   2.762  12.711 -0.0839  0.4451 -0.4172
11589TIP3    H256183   0.321   2.672  12.752  0.3413  1.4455  0.6367
11590TIP3   OH256184   5.952   4.185  14.464  0.3879  0.0391 -0.7515
11590TIP3    H156185   5.877   4.171  14.407 -1.3687 -0.1175  1.4644
11590TIP3    H256186   5.989   4.097  14.477  1.6931  0.2411 -2.6794
11591TIP3   OH256187   1.226   6.306   2.100 -0.2411 -0.1480 -0.0505
11591TIP3    H156188   1.287   6.380   2.093  0.3419 -0.6986 -1.0149
11591TIP3    H256189   1.265   6.238   2.045 -1.4835 -0.6853 -0.2982
11592TIP3   OH256190   3.364   6.170   5.674 -0.1065  0.5142  0.8479
11592TIP3    H156191   3.433   6.113   5.708  0.0630 -0.7002 -1.3569
11592TIP3    H256192   3.408   6.226   5.611 -0.9968  0.0761 -0.2092
11593TIP3   OH256193   5.024   2.394  16.374  0.1316  0.6970 -0.0991
11593TIP3    H156194   5.034   2.471  16.430 -0.1281  0.7040 -0.0620
11593TIP3    H256195   5.055   2.423  16.288 -0.5318  1.0271 -0.2331
11594TIP3   OH256196   4.417   3.169  15.770  0.2784  0.3926  0.2007
11594TIP3    H156197   4.405   3.111  15.694 -0.6476  1.6980 -0.7079
11594TIP3    H256198   4.476   3.122  15.828 -0.2621 -1.3500 -0.6025
11595TIP3   OH256199   2.907   5.391   0.230  0.3465  0.5781 -0.3083
11595TIP3    H156200   2.987   5.411   0.279  1.2568 -1.4319 -0.8464
11595TIP3    H256201   2.857   5.333   0.287  1.0634 -1.1628 -1.3494
11596TIP3   OH256202   1.218   4.400   3.493 -0.6421 -0.0720  0.6236
11596TIP3    H156203   1.145   4.356   3.449  0.0123  0.1241 -0.7343
11596TIP3    H256204   1.248   4.337   3.558 -0.4688 -1.1978 -0.4953
11597TIP3   OH256205   6.032   2.910  15.221 -0.1555  0.9282  0.2426
11597TIP3    H156206   6.037   2.984  15.282 -1.2752  2.1294 -1.0571
11597TIP3    H256207   5.959   2.857  15.255 -1.3143  2.0240 -0.4601
11598TIP3   OH256208   5.049   4.032  11.762 -0.8433 -0.6139  0.3344
11598TIP3    H156209   5.019   4.102  11.703 -1.0364  0.4456  1.6282
11598TIP3    H256210   5.059   3.956  11.706  1.2247  0.9084 -1.5098
11599TIP3   OH256211   6.522   2.181  13.930  0.0581  0.2716 -0.1815
11599TIP3    H156212   6.533   2.111  13.864  0.1912  0.4926 -0.3965
11599TIP3    H256213   6.483   2.137  14.005 -0.3769  0.0751 -0.5192
11600TIP3   OH256214   4.144   0.784   4.081  0.3841  0.0465  0.1791
11600TIP3    H156215   4.095   0.810   4.004  0.4242 -0.6067 -0.0784
11600TIP3    H256216   4.078   0.760   4.145  0.3546 -0.4895 -0.0446
11601TIP3   OH256217   3.235   0.541  11.649 -0.2159  0.0794 -0.0027
11601TIP3    H156218   3.325   0.564  11.625  0.3537 -0.4755  1.5055
11601TIP3    H256219   3.194   0.624  11.669  0.3507  0.2326  0.5533
11602TIP3   OH256220   6.440   0.595   4.860 -0.3230 -0.3357  0.4812
11602TIP3    H156221   6.374   0.652   4.821 -1.3842 -1.3498  0.7474
11602TIP3    H256222   6.485   0.555   4.786  1.4085  1.8424  0.2427
11603TIP3   OH256223   3.108   3.777   6.532  0.5718  0.2060 -0.2556
11603TIP3    H156224   3.102   3.708   6.597  0.3155  0.0300 -0.4643
11603TIP3    H256225   3.027   3.827   6.542  1.1554  1.0411  0.5178
11604TIP3   OH256226   4.159   2.317   5.331 -0.1337 -0.1542 -0.8063
11604TIP3    H156227   4.153   2.237   5.382 -1.4845 -0.5081 -1.4736
11604TIP3    H256228   4.070   2.331   5.297  0.0208  1.7113 -0.5797
11605TIP3   OH256229   1.237   0.749   0.292  0.5261  0.1365 -0.8332
11605TIP3    H156230   1.325   0.725   0.262  1.1202  1.4703 -0.2271
11605TIP3    H256231   1.181   0.733   0.216  1.3767 -0.2778 -1.3829
11606TIP3   OH256232   5.203   1.960  13.621 -0.6454  0.2646 -0.4322
11606TIP3    H156233   5.238   2.046  13.601 -1.6340  0.9036  0.4312
11606TIP3    H256234   5.137   1.944  13.554  0.8618 -0.7119 -1.7519
11607TIP3   OH256235   0.895   1.706   1.448 -0.1490 -0.0077  0.1729
11607TIP3    H156236   0.921   1.729   1.537 -0.1782 -1.5174  0.5968
11607TIP3    H256237   0.902   1.611   1.445 -0.2388  0.0137 -1.4177
11608TIP3   OH256238   0.552   1.462  15.652  0.1578 -0.1276 -0.3704
11608TIP3    H156239   0.609   1.471  15.728  0.6566 -1.0786 -0.6193
11608TIP3    H256240   0.464   1.479  15.686  0.3302 -0.8924  0.5028
11609TIP3   OH256241   6.211   5.834   6.427 -0.2522 -0.3865 -0.0521
11609TIP3    H156242   6.168   5.917   6.448  1.7383  1.1773 -1.7383
11609TIP3    H256243   6.143   5.768   6.441 -2.4452  1.6790 -0.3159
11610TIP3   OH256244   2.657   1.073  11.260  0.4146  0.3081 -0.3952
11610TIP3    H156245   2.694   1.106  11.178  0.0964  2.0745  0.1332
11610TIP3    H256246   2.563   1.085  11.250  0.1621 -1.5702 -0.6274
11611TIP3   OH256247   3.511   4.198   2.149  0.0896  0.4875 -0.7240
11611TIP3    H156248   3.561   4.242   2.218 -0.0329  0.0444 -0.3527
11611TIP3    H256249   3.577   4.174   2.084  0.4740 -0.6199  0.0320
11612TIP3   OH256250   6.042   2.293   5.875 -0.0649 -0.1923 -0.3547
11612TIP3    H156251   6.127   2.302   5.831  0.3424 -1.0220  0.2339
11612TIP3    H256252   5.985   2.355   5.830  1.2855  1.6508  0.3705
11613TIP3   OH256253   2.112   5.339   4.229 -0.1679  0.8879  0.0071
11613TIP3    H156254   2.074   5.386   4.303 -0.7003 -1.6685  1.4771
11613TIP3    H256255   2.042   5.283   4.196  0.6009  0.6110 -1.2624
11614TIP3   OH256256   2.940   1.755  15.491  0.7634  0.5283  0.1022
11614TIP3    H156257   2.854   1.761  15.532  1.5567 -2.5289  2.5746
11614TIP3    H256258   2.921   1.742  15.398 -1.4376  0.5796  0.4887
11615TIP3   OH256259   3.940   0.055  16.146 -0.5017  0.0556 -1.0133
11615TIP3    H156260   3.912  -0.030  16.112 -1.1440 -0.2152  0.1311
11615TIP3    H256261   4.016   0.034  16.200 -0.9715  0.1214 -0.3152
11616TIP3   OH256262   1.962   0.901  14.245 -0.2118  0.5269  0.4520
11616TIP3    H156263   1.993   0.842  14.176 -0.6043  1.1127 -0.2388
11616TIP3    H256264   2.024   0.889  14.317  0.8692  0.7298 -0.4147
11617TIP3   OH256265   1.801   0.480  13.793 -0.6978 -0.1364 -0.0173
11617TIP3    H156266   1.891   0.493  13.765 -1.0970 -0.1277 -1.3798
11617TIP3    H256267   1.805   0.408  13.856  0.2238 -0.2976 -0.2515
11618TIP3   OH256268   2.776   3.512  11.832  0.6184 -0.2377 -0.5641
11618TIP3    H156269   2.762   3.563  11.912  2.4930  0.1838 -0.4593
11618TIP3    H256270   2.809   3.427  11.864 -0.9831 -0.9920 -0.8092
11619TIP3   OH256271   2.988   3.466  16.506 -0.5771 -0.3627 -0.6471
11619TIP3    H156272   3.062   3.511  16.466  0.9444 -0.4879  1.7831
11619TIP3    H256273   2.963   3.399  16.443  0.6782  0.3906 -1.9909
11620TIP3   OH256274   2.541   1.549  11.129  0.0655 -0.0734  0.1894
11620TIP3    H156275   2.606   1.482  11.109  0.3685  0.0170  0.8460
11620TIP3    H256276   2.488   1.556  11.049  1.3178  0.3700 -0.6425
11621TIP3   OH256277   4.750   2.405   4.624  0.0912  0.0958  0.8819
11621TIP3    H156278   4.715   2.366   4.704  1.0424  1.8807  2.2669
11621TIP3    H256279   4.676   2.454   4.587 -0.0297  0.3089  1.3947
11622TIP3   OH256280   3.341   6.465   4.572  0.7497 -0.1750  0.4525
11622TIP3    H156281   3.287   6.530   4.528  0.6752 -0.6153 -0.1230
11622TIP3    H256282   3.416   6.515   4.605  0.6668  0.2092  0.0691
11623TIP3   OH256283   6.005   6.050  16.507  0.2127  0.0753  0.4193
11623TIP3    H156284   6.084   6.083  16.551  0.1549  1.0042 -0.1379
11623TIP3    H256285   5.980   6.121  16.447  0.4779 -1.2720 -1.3565
11624TIP3   OH256286   1.292   1.777   1.697  0.4590  0.4484  0.1943
11624TIP3    H156287   1.233   1.794   1.623  1.9385  1.8193 -0.7428
11624TIP3    H256288   1.235   1.780   1.774 -1.5978 -3.5228 -0.9281
11625TIP3   OH256289   1.667   1.786  16.633 -0.0101  0.0510  0.3610
11625TIP3    H156290   1.664   1.824  16.545 -0.7038  2.0160  1.1798
11625TIP3    H256291   1.638   1.695  16.621  1.6755 -0.3050 -1.6712
11626TIP3   OH256292   2.673   2.245   3.497  0.3942 -0.3291 -0.3027
11626TIP3    H156293   2.618   2.245   3.575  0.0654  0.0846 -0.5291
11626TIP3    H256294   2.723   2.327   3.503 -0.1816  0.0756 -0.9024
11627TIP3   OH256295   2.532   3.528  15.419  0.3296  0.2224 -0.5181
11627TIP3    H156296   2.513   3.597  15.356 -1.6687  0.2281  0.0048
11627TIP3    H256297   2.523   3.571  15.504 -2.6536 -0.9304 -0.1195
11628TIP3   OH256298   1.230   2.087  12.878 -0.1257  1.2742 -0.0906
11628TIP3    H156299   1.169   2.098  12.806 -0.6979  1.8401  0.4681
11628TIP3    H256300   1.220   2.167  12.931  0.1619  0.8028  0.6964
11629TIP3   OH256301   2.471   2.685  17.094 -0.6099  0.5390  0.2355
11629TIP3    H156302   2.437   2.651  17.177 -0.5306  0.3308  0.1824
11629TIP3    H256303   2.403   2.746  17.064 -1.0430 -0.0394  0.0231
11630TIP3   OH256304   1.896   0.185  13.496  0.1696  0.3953 -0.2909
11630TIP3    H156305   1.892   0.278  13.475  0.6018  0.4505 -0.1355
11630TIP3    H256306   1.805   0.161  13.516  0.1213  0.8913  0.1286
11631TIP3   OH256307   1.379   2.888  15.885 -0.1828 -0.3059  0.4021
11631TIP3    H156308   1.440   2.838  15.939 -0.4737 -0.0868  0.9425
11631TIP3    H256309   1.309   2.826  15.864  0.3681 -0.6480 -0.4800
11632TIP3   OH256310   0.616   0.757  15.021 -0.6025 -0.0178  0.2575
11632TIP3    H156311   0.533   0.797  15.046 -1.2188 -0.4183 -1.0278
11632TIP3    H256312   0.601   0.727  14.931  1.0916  0.3499 -0.1750
11633TIP3   OH256313   2.578   3.848  12.820 -1.0905 -0.0906  0.1980
11633TIP3    H156314   2.609   3.938  12.812 -2.7237  0.6184  1.3211
11633TIP3    H256315   2.643   3.805  12.875  0.1376  0.1337 -1.0127
11634TIP3   OH256316   1.780   5.695   5.214  0.2105  0.7070 -0.5623
11634TIP3    H156317   1.685   5.693   5.227  0.1917  1.7308 -0.5374
11634TIP3    H256318   1.814   5.641   5.286 -0.2913  1.1734  0.0393
11635TIP3   OH256319   1.793   1.709  12.738  0.8620  0.4329 -0.2096
11635TIP3    H156320   1.793   1.753  12.653 -2.1492 -1.4341 -1.3348
11635TIP3    H256321   1.792   1.780  12.802  1.6896  1.8991 -1.7500
11636TIP3   OH256322   2.810   4.749  15.040 -0.6744 -0.1002  0.2110
11636TIP3    H156323   2.739   4.767  14.979 -0.1936 -0.6964 -0.5510
11636TIP3    H256324   2.851   4.834  15.056 -0.8217  0.0651 -0.2837
11637TIP3   OH256325   1.062   5.401   1.408 -0.2790  0.5336  0.3285
11637TIP3    H156326   1.022   5.410   1.322 -0.0086  1.1666  0.2674
11637TIP3    H256327   0.989   5.412   1.469 -0.1924  1.9226  0.2230
11638TIP3   OH256328   0.318   0.761   0.028  0.4651  0.1661  0.2745
11638TIP3    H156329   0.367   0.763   0.110 -1.1662 -0.1068  1.2944
11638TIP3    H256330   0.344   0.679  -0.014 -0.3821 -0.8398  1.6395
11639TIP3   OH256331   5.901   5.062   4.070  0.1712 -0.3355 -0.0691
11639TIP3    H156332   5.864   4.977   4.045  0.2019 -0.1577 -0.7511
11639TIP3    H256333   5.919   5.105   3.986 -0.7217  0.7252  0.2640
11640TIP3   OH256334   3.835   3.825  15.760 -0.6952 -0.4106 -0.4989
11640TIP3    H156335   3.889   3.897  15.792 -0.0611 -0.4319 -1.4828
11640TIP3    H256336   3.861   3.749  15.811 -0.6707 -0.1521 -0.1294
11641TIP3   OH256337   6.281   2.632   0.586  0.6107  0.4462  0.8761
11641TIP3    H156338   6.227   2.554   0.597 -0.9545  1.5918  1.5950
11641TIP3    H256339   6.274   2.653   0.493  0.9341 -0.1817  0.7053
11642TIP3   OH256340   6.070   3.402  15.815  0.4440 -0.2759  0.7764
11642TIP3    H156341   6.082   3.317  15.772  0.2097  1.2476 -2.6500
11642TIP3    H256342   5.984   3.432  15.784  1.1512  1.8002  0.6720
11643TIP3   OH256343   0.296   3.775  11.471  0.1330 -0.2480  0.2534
11643TIP3    H156344   0.252   3.754  11.553  3.3786 -3.4312  1.4510
11643TIP3    H256345   0.389   3.775  11.493  1.0841  0.2201 -3.1897
11644TIP3   OH256346   1.578   1.480   3.141  0.5184  0.3227  0.3732
11644TIP3    H156347   1.557   1.573   3.146 -0.0570  0.1952  0.3189
11644TIP3    H256348   1.544   1.451   3.057  3.1908  0.6777 -0.9310
11645TIP3   OH256349   2.894   5.016   2.006 -0.0799  0.2683 -0.7081
11645TIP3    H156350   2.895   4.920   2.011  1.1554  0.2821 -0.1205
11645TIP3    H256351   2.975   5.038   1.959 -1.4328  0.9733 -2.8232
11646TIP3   OH256352   0.588   2.013   1.639  0.5508 -0.8302 -0.2697
11646TIP3    H156353   0.543   1.995   1.722 -2.3382  1.6949 -1.1228
11646TIP3    H256354   0.562   1.942   1.581 -0.5153 -0.6114 -0.0718
11647TIP3   OH256355   1.757   3.276   4.813  0.1858 -0.5077 -0.0646
11647TIP3    H156356   1.811   3.198   4.824  1.6931  0.6978  1.6327
11647TIP3    H256357   1.818   3.349   4.822 -1.3824  0.9009 -0.3244
11648TIP3   OH256358   3.648   6.252   1.081  0.4116 -0.2677  0.0617
11648TIP3    H156359   3.699   6.311   1.137  0.0535 -0.3123  0.4457
11648TIP3    H256360   3.567   6.300   1.065  0.5896 -0.1751 -0.5841
11649TIP3   OH256361   1.021   5.653  12.119 -0.1141  0.4836  0.1719
11649TIP3    H156362   1.100   5.634  12.069 -0.5993  0.0235 -0.4528
11649TIP3    H256363   1.050   5.706  12.193  0.9035 -0.4163  0.4432
11650TIP3   OH256364   5.594   0.954  15.365  0.7883 -0.4230  0.1535
11650TIP3    H156365   5.686   0.957  15.338  1.1546 -3.6059  0.7267
11650TIP3    H256366   5.592   1.001  15.448  1.6045  0.7217 -0.4415
11651TIP3   OH256367   0.266   3.247  12.781 -0.5533 -0.0319  0.4778
11651TIP3    H156368   0.265   3.152  12.795  0.7978 -0.4338 -1.6597
11651TIP3    H256369   0.290   3.283  12.867  0.3251 -1.7185  0.9926
11652TIP3   OH256370   6.624   3.577  11.684 -0.1466 -0.0638 -0.4484
11652TIP3    H156371   6.530   3.595  11.673  0.0161  1.7636  0.6524
11652TIP3    H256372   6.655   3.648  11.741  2.2442  0.2886 -2.0559
11653TIP3   OH256373   0.324   4.196   0.295 -0.1387  0.2571  0.1611
11653TIP3    H156374   0.235   4.161   0.301  0.4661 -1.2470  0.8901
11653TIP3    H256375   0.378   4.120   0.274  1.0220  1.0844  0.0717
11654TIP3   OH256376   0.158   1.999  11.143 -0.0952  0.2606  0.0066
11654TIP3    H156377   0.192   1.931  11.085 -1.7403 -0.2263 -0.4176
11654TIP3    H256378   0.106   2.056  11.086  0.4710  1.3481  0.5308
11655TIP3   OH256379   1.257   5.676   6.768 -0.0443  0.2665 -0.4449
11655TIP3    H156380   1.337   5.708   6.807 -0.7499 -0.8061  2.0597
11655TIP3    H256381   1.203   5.649   6.842 -2.0194 -0.6696 -2.1243
11656TIP3   OH256382   2.241   4.102   5.344 -0.0735 -0.1301 -0.2919
11656TIP3    H156383   2.240   4.186   5.296  1.1263  1.6638  2.5654
11656TIP3    H256384   2.334   4.079   5.349 -0.2443 -0.6489  0.5417
11657TIP3   OH256385   5.770   0.757  14.377 -0.2766 -0.0907 -0.4563
11657TIP3    H156386   5.764   0.809  14.458  1.5485 -0.0876 -0.2830
11657TIP3    H256387   5.684   0.766  14.337 -0.7372  1.1975  0.7213
11658TIP3   OH256388   2.391   4.420   0.511  0.1777  0.1204 -0.2679
11658TIP3    H156389   2.400   4.509   0.544 -1.7085  0.2624 -0.0247
11658TIP3    H256390   2.449   4.417   0.435 -1.2219  2.2531 -1.5440
11659TIP3   OH256391   5.621   0.095   4.218  0.8670  0.2124  0.0457
11659TIP3    H156392   5.535   0.106   4.259 -0.3446  0.1207 -2.3056
11659TIP3    H256393   5.666   0.178   4.236 -0.0362  0.6015  0.6045
11660TIP3   OH256394   6.351   5.112   3.281  0.1651 -0.5630  0.4471
11660TIP3    H156395   6.267   5.113   3.326 -0.0596  1.6988  0.0941
11660TIP3    H256396   6.415   5.136   3.349  0.0813  0.8487  0.0618
11661TIP3   OH256397   5.390   4.179  11.366  0.5092 -0.6660  0.5007
11661TIP3    H156398   5.453   4.198  11.436  0.1626 -1.3569  1.0115
11661TIP3    H256399   5.444   4.154  11.291  0.9385  1.2986  0.1028
11662TIP3   OH256400   2.521   0.944  12.442 -0.3733  0.5420 -0.2814
11662TIP3    H156401   2.457   0.948  12.371  0.4977  2.4245 -1.0369
11662TIP3    H256402   2.605   0.957  12.399  0.4240 -0.6661  0.8339
11663TIP3   OH256403   1.847   3.099   3.034 -0.0826 -0.5601  0.0935
11663TIP3    H156404   1.893   3.156   3.097 -0.7724  0.6895 -0.4906
11663TIP3    H256405   1.776   3.059   3.085  1.0738 -1.8131  0.7834
11664TIP3   OH256406   0.209   0.760  12.131  0.1857  0.0535 -0.3566
11664TIP3    H156407   0.287   0.718  12.095 -0.6360 -0.5589 -1.4934
11664TIP3    H256408   0.181   0.822  12.063 -1.1930 -0.8503 -0.6574
11665TIP3   OH256409   6.302   0.069   2.621  0.3978  0.1021 -0.1301
11665TIP3    H156410   6.311   0.047   2.714 -2.0339 -0.5980  0.0109
11665TIP3    H256411   6.342   0.156   2.614  1.6469 -0.2973  1.3054
11666TIP3   OH256412   1.638   6.437  11.837  0.1375  0.0428 -0.0937
11666TIP3    H156413   1.645   6.509  11.774 -0.8425 -0.2197 -0.5266
11666TIP3    H256414   1.622   6.480  11.921 -1.9814  0.3432 -0.5793
11667TIP3   OH256415   5.492   2.637  17.317 -0.1196 -0.0689  0.0966
11667TIP3    H156416   5.399   2.634  17.341 -0.0349 -0.8888  0.3567
11667TIP3    H256417   5.492   2.664  17.225 -0.5465  1.0896  0.4159
11668TIP3   OH256418   2.136   2.962  11.243 -0.4566 -0.3912  0.2719
11668TIP3    H156419   2.092   3.010  11.173 -1.4231  0.1808  1.2397
11668TIP3    H256420   2.065   2.916  11.288  0.3688 -2.2118 -0.2064
11669TIP3   OH256421   4.581   0.046  13.683 -0.0916 -0.3193  0.0566
11669TIP3    H156422   4.550   0.047  13.773  0.4696 -0.0140  0.2473
11669TIP3    H256423   4.673   0.069  13.688  0.4612 -2.2581 -0.4037
11670TIP3   OH256424   5.475   0.480   1.792  0.2043  0.1326 -0.2850
11670TIP3    H156425   5.485   0.451   1.883  3.2390 -0.4023 -0.6746
11670TIP3    H256426   5.514   0.567   1.791 -1.1061  0.7350 -0.8444
11671TIP3   OH256427   1.762   2.289   6.370 -0.6627  0.2366 -0.2014
11671TIP3    H156428   1.719   2.203   6.365 -1.1102  0.5350 -1.9338
11671TIP3    H256429   1.786   2.297   6.462  1.6227 -2.8220 -0.3790
11672TIP3   OH256430   5.367   5.136  15.920  0.0556 -0.4465 -0.3817
11672TIP3    H156431   5.384   5.229  15.931 -0.7602 -0.2806 -0.4232
11672TIP3    H256432   5.315   5.130  15.840 -1.5731 -0.6968  0.6293
11673TIP3   OH256433   5.574   4.114  13.599 -0.0628 -0.3496  0.4441
11673TIP3    H156434   5.621   4.169  13.536 -1.6746  2.1622  1.2863
11673TIP3    H256435   5.491   4.093  13.556 -0.1671 -0.6615  0.7990
11674TIP3   OH256436   0.095   1.724  15.586 -0.7253  0.7662  0.8195
11674TIP3    H156437   0.163   1.792  15.578  0.3674 -0.3987 -0.2315
11674TIP3    H256438   0.017   1.764  15.547 -0.4111  1.7952  1.1943
11675TIP3   OH256439   5.886   5.686  13.892 -0.4154  0.6960 -0.6266
11675TIP3    H156440   5.859   5.640  13.971  0.6278  0.0304 -0.6298
11675TIP3    H256441   5.804   5.718  13.853 -1.0716 -0.2433 -0.0592
11676TIP3   OH256442   4.652   2.547  16.720  0.0921  0.3684  0.2157
11676TIP3    H156443   4.615   2.472  16.675 -1.2668 -0.6801  2.8406
11676TIP3    H256444   4.732   2.514  16.761  0.6656  0.9740 -0.3851
11677TIP3   OH256445   4.985   5.037  15.610  0.8083  0.3560 -0.6994
11677TIP3    H156446   5.010   4.975  15.542 -1.2912  0.7931 -1.9931
11677TIP3    H256447   4.955   5.114  15.561 -1.7106  0.3220  0.6315
11678TIP3   OH256448   2.278   2.923  12.441 -0.3684 -0.7104  0.2748
11678TIP3    H156449   2.319   2.979  12.376  0.4066 -0.8412  0.6405
11678TIP3    H256450   2.185   2.921  12.416 -0.2321 -0.0696 -0.3115
11679TIP3   OH256451   5.891   5.498   2.852  0.0019  0.2856 -0.2229
11679TIP3    H156452   5.931   5.531   2.933  0.4509 -0.1811 -0.2480
11679TIP3    H256453   5.800   5.482   2.876  0.7890 -2.8860  1.1640
11680TIP3   OH256454   5.338   6.551   3.515 -0.0243 -0.5886 -0.3784
11680TIP3    H156455   5.262   6.588   3.470 -1.1484 -0.1681  1.7483
11680TIP3    H256456   5.318   6.458   3.525  0.4593 -0.7882 -1.1377
11681TIP3   OH256457   5.213   1.741  16.023  0.5678  0.0843  0.6405
11681TIP3    H156458   5.257   1.820  16.054  1.3347 -0.6254  1.4216
11681TIP3    H256459   5.133   1.736  16.075  0.7230  0.1205  0.8814
11682TIP3   OH256460   2.760   3.147   2.821  0.4432 -0.0654 -0.2264
11682TIP3    H156461   2.792   3.060   2.795  2.5668  0.5038  0.2476
11682TIP3    H256462   2.814   3.208   2.770 -0.5159  0.9925 -0.0189
11683TIP3   OH256463   1.477   5.228  14.999  0.6202  0.0404 -0.4413
11683TIP3    H156464   1.397   5.223  15.052 -0.6620 -2.1763 -2.3835
11683TIP3    H256465   1.475   5.315  14.961 -0.3699  0.3493  0.2710
11684TIP3   OH256466   1.436   3.356  12.111  0.1655 -0.3009  0.3935
11684TIP3    H156467   1.495   3.429  12.132 -0.0501  0.2034 -0.6649
11684TIP3    H256468   1.479   3.311  12.039 -0.5307 -0.1813 -0.1060
11685TIP3   OH256469   3.019   1.487   0.225  0.7942  0.1353 -0.1510
11685TIP3    H156470   3.049   1.571   0.189  2.6757 -0.1891  0.5409
11685TIP3    H256471   2.940   1.509   0.274 -0.2335  1.0463 -2.1010
11686TIP3   OH256472   1.095   2.315  16.513  1.1068 -0.5386  0.4021
11686TIP3    H156473   1.093   2.410  16.503 -0.0213 -0.6788 -1.0466
11686TIP3    H256474   1.187   2.295  16.531  1.6489  0.7018 -0.7886
11687TIP3   OH256475   2.951   5.752  17.229  0.3618  0.2305  0.0801
11687TIP3    H156476   2.857   5.737  17.214  0.4836 -0.0694 -0.3908
11687TIP3    H256477   2.992   5.731  17.146  0.9114 -0.1535  0.4473
11688TIP3   OH256478   5.073   6.749   0.858  0.1208  0.1740 -0.2347
11688TIP3    H156479   5.004   6.781   0.915  2.3742  3.5871  0.8909
11688TIP3    H256480   5.126   6.692   0.913 -0.2294 -0.2091 -0.2899
11689TIP3   OH256481   5.150   1.342   5.579  0.2777 -0.2801 -0.8237
11689TIP3    H156482   5.145   1.387   5.663 -1.2687 -2.0804  0.1234
11689TIP3    H256483   5.068   1.364   5.535 -0.3514 -1.8191 -0.4794
11690TIP3   OH256484   3.942   3.639   4.678  0.1782  0.1059  0.2693
11690TIP3    H156485   3.978   3.555   4.647 -1.0769 -0.4445  0.2497
11690TIP3    H256486   4.014   3.679   4.726  1.4047 -0.1456 -1.2564
11691TIP3   OH256487   3.561   6.084   4.404 -0.6278  0.0976  0.2597
11691TIP3    H156488   3.513   6.131   4.336 -0.9177  0.6832  0.8682
11691TIP3    H256489   3.493   6.044   4.459 -0.4045  0.1566  0.5817
11692TIP3   OH256490   5.941   0.436  11.978  0.3285  0.5014 -0.3055
11692TIP3    H156491   5.964   0.369  12.042 -1.4275  0.7319  0.6531
11692TIP3    H256492   5.881   0.393  11.918  1.0318  0.6059 -1.0896
11693TIP3   OH256493   4.627   0.684  15.864 -0.2073  0.0245  1.3456
11693TIP3    H156494   4.659   0.694  15.775  0.6204 -1.7838  1.3838
11693TIP3    H256495   4.635   0.771  15.903  0.0310  0.6869 -0.1422
11694TIP3   OH256496   5.656   1.219   3.604 -0.5336  0.9140 -0.2074
11694TIP3    H156497   5.577   1.165   3.603 -0.4617  0.7589  0.8210
11694TIP3    H256498   5.722   1.166   3.559 -0.8805  0.8386 -0.6390
11695TIP3   OH256499   0.310   1.850  12.016 -0.1446  0.9059  0.0143
11695TIP3    H156500   0.340   1.768  11.978  0.2947  1.0009  0.1529
11695TIP3    H256501   0.311   1.912  11.943  2.8268  1.6619  0.5738
11696TIP3   OH256502   3.599   1.636   3.212  0.3048  0.6178  0.1570
11696TIP3    H156503   3.685   1.621   3.252 -0.1398  1.2947  1.4209
11696TIP3    H256504   3.570   1.719   3.249 -0.5906  0.7442 -0.8103
11697TIP3   OH256505   4.148   5.095   3.153 -0.4204 -0.1957  0.5082
11697TIP3    H156506   4.069   5.053   3.187 -0.7100  1.1560  1.5751
11697TIP3    H256507   4.123   5.186   3.139  0.7323  0.0729  0.0848
11698TIP3   OH256508   2.537   0.174  11.443 -0.3608 -0.1773 -0.0141
11698TIP3    H156509   2.596   0.183  11.369 -2.2414 -2.8620 -2.0497
11698TIP3    H256510   2.456   0.215  11.414 -0.4031  1.0004  1.6392
11699TIP3   OH256511   3.284   3.109   4.719  0.7527 -0.1568  0.1057
11699TIP3    H156512   3.379   3.099   4.718  0.8703  0.9573 -0.1633
11699TIP3    H256513   3.254   3.064   4.640  1.0460 -0.5139  0.1944
11700TIP3   OH256514   5.561   3.341  16.955  0.5958 -0.3754  0.2475
11700TIP3    H156515   5.631   3.365  16.894  1.0345 -2.1508  0.0123
11700TIP3    H256516   5.511   3.422  16.967  1.1711  0.2990 -1.5713
11701TIP3   OH256517   0.081   0.589  11.403 -0.1390 -0.4007  0.3459
11701TIP3    H156518   0.056   0.502  11.372 -2.4433 -0.1873  1.3920
11701TIP3    H256519   0.073   0.584  11.498  0.8062  0.6459  0.4995
11702TIP3   OH256520   1.125   2.484  16.777  0.2448 -0.0367  0.5305
11702TIP3    H156521   1.088   2.396  16.767  3.0659 -1.2059 -0.4446
11702TIP3    H256522   1.115   2.524  16.691  0.7168 -0.1142  0.4433
11703TIP3   OH256523   4.998   5.021   3.300  0.7445  0.1747 -0.4298
11703TIP3    H156524   5.002   5.103   3.349  1.8666 -0.4739  0.6512
11703TIP3    H256525   5.087   4.985   3.307 -0.0490 -1.7972  0.3589
11704TIP3   OH256526   0.674   1.312   1.753  0.0217 -0.0576 -0.2057
11704TIP3    H156527   0.718   1.229   1.769 -0.8257 -0.1995  1.6510
11704TIP3    H256528   0.658   1.313   1.659  0.9223 -1.5465 -0.4002
11705TIP3   OH256529   5.214   4.837   5.787 -0.4583  0.4261  0.1530
11705TIP3    H156530   5.137   4.792   5.751 -0.3963  0.6477 -0.2557
11705TIP3    H256531   5.213   4.814   5.880 -0.9846  0.3764  0.1386
11706TIP3   OH256532   6.075   2.912   4.906  0.1971  0.0729  0.4658
11706TIP3    H156533   6.156   2.963   4.910  0.5882 -0.6107  2.0750
11706TIP3    H256534   6.070   2.880   4.816  0.8266  1.5083 -0.1073
11707TIP3   OH256535   3.820   6.395  14.401 -0.1026  0.2585 -0.1238
11707TIP3    H156536   3.825   6.353  14.487 -0.7880 -0.5302 -0.4536
11707TIP3    H256537   3.900   6.446  14.395  0.3538 -0.3354  0.6493
11708TIP3   OH256538   3.268   4.991  17.066  0.0208  0.2547  0.3057
11708TIP3    H156539   3.311   4.906  17.063  0.8917  0.7128 -0.5337
11708TIP3    H256540   3.236   5.006  16.977 -0.3547  0.6875  0.5068
11709TIP3   OH256541   1.407   4.948   5.174  1.2062  0.2461 -0.0343
11709TIP3    H156542   1.326   4.985   5.139  0.1039  0.3702  2.4249
11709TIP3    H256543   1.459   4.927   5.097 -1.3970 -0.3927 -1.7627
11710TIP3   OH256544   6.548   1.721  11.599 -0.6218  0.0469 -0.1854
11710TIP3    H156545   6.599   1.714  11.679 -1.8499  0.8772  0.7003
11710TIP3    H256546   6.595   1.786  11.546 -0.7048  0.7614  0.5935
11711TIP3   OH256547   4.726   3.461   0.509 -0.3707  0.3060 -0.2273
11711TIP3    H156548   4.729   3.375   0.552  1.5051 -0.4105 -1.6787
11711TIP3    H256549   4.632   3.480   0.501 -0.8431 -1.7826 -0.2208
11712TIP3   OH256550   3.205   2.956   4.491  0.3583 -0.1224  0.0098
11712TIP3    H156551   3.133   3.008   4.454  1.2918  0.5578 -0.9076
11712TIP3    H256552   3.161   2.881   4.531 -1.1423  1.7158  2.1425
11713TIP3   OH256553   3.570   4.758   1.354 -0.4158 -0.4806 -0.0735
11713TIP3    H156554   3.548   4.850   1.338 -1.6450 -0.9329 -1.1119
11713TIP3    H256555   3.514   4.709   1.295  0.4659 -1.9033  0.2207
11714TIP3   OH256556   5.048   0.527  15.066  0.3389 -0.3546  0.2774
11714TIP3    H156557   5.120   0.560  15.119 -0.0492 -0.6754  1.0255
11714TIP3    H256558   5.087   0.508  14.981  1.0222 -0.0455  0.5177
11715TIP3   OH256559   0.964   0.614   3.406 -0.1477  0.1009 -0.0850
11715TIP3    H156560   1.032   0.560   3.448 -0.1703  0.3620  0.2924
11715TIP3    H256561   0.942   0.680   3.472 -1.4936 -0.5799  0.1845
11716TIP3   OH256562   2.903   2.094  14.670  0.3787 -0.2456  0.6571
11716TIP3    H156563   2.981   2.046  14.641 -0.7634 -3.0848  1.9158
11716TIP3    H256564   2.855   2.111  14.589  1.5871  0.2393  0.0108
11717TIP3   OH256565   1.564   2.295  13.978  0.1287 -0.0900 -0.5200
11717TIP3    H156566   1.548   2.211  13.935  0.1268 -0.7322  0.6755
11717TIP3    H256567   1.619   2.343  13.916  0.2527 -1.0290 -1.1714
11718TIP3   OH256568   2.885   5.262  12.781  0.0053  0.0645  0.4129
11718TIP3    H156569   2.894   5.332  12.716  1.4212  0.5176  1.0660
11718TIP3    H256570   2.827   5.198  12.739  1.3799  0.0362 -1.5858
11719TIP3   OH256571   5.045   4.441   2.173  0.2772  0.3764 -0.2022
11719TIP3    H156572   5.130   4.400   2.188 -0.9576 -2.7322 -0.9605
11719TIP3    H256573   5.053   4.482   2.086  1.0465  0.3429 -0.1513
11720TIP3   OH256574   2.137   3.359  12.933 -0.5551  0.1509 -0.3165
11720TIP3    H156575   2.140   3.344  13.027 -0.8458 -1.6103 -0.5646
11720TIP3    H256576   2.137   3.272  12.894 -2.5996  0.7713 -1.8928
11721TIP3   OH256577   6.226   2.963   0.362 -0.2249  0.2622 -0.4754
11721TIP3    H156578   6.283   2.990   0.291  0.5784  0.0685  0.0824
11721TIP3    H256579   6.153   2.918   0.318  1.5215 -2.1672 -1.0854
11722TIP3   OH256580   0.987   4.485   3.712 -0.3919 -0.5858 -0.3750
11722TIP3    H156581   0.900   4.522   3.699 -0.7955 -0.6076  1.7688
11722TIP3    H256582   1.015   4.457   3.625 -1.7550  1.0469 -1.4084
11723TIP3   OH256583   3.363   3.239   3.959 -0.1338  0.0366 -1.1420
11723TIP3    H156584   3.425   3.213   3.891 -0.6166 -2.3761 -0.7528
11723TIP3    H256585   3.291   3.177   3.951 -2.1524  2.2068 -1.0145
11724TIP3   OH256586   3.356   3.841  14.855 -0.1483 -0.7084 -0.0312
11724TIP3    H156587   3.287   3.783  14.824 -1.6634  1.5556 -1.1788
11724TIP3    H256588   3.314   3.926  14.863  1.4153 -0.0967  3.6969
11725TIP3   OH256589   5.873   5.594  14.946  0.6588  0.3277  0.1776
11725TIP3    H156590   5.910   5.679  14.922  0.1465  1.1991  2.1873
11725TIP3    H256591   5.872   5.595  15.042 -1.1840 -1.1556  0.2377
11726TIP3   OH256592   5.957   5.325  13.869 -0.2671  0.0339 -0.4540
11726TIP3    H156593   6.040   5.352  13.828  1.0492  0.0347  1.9944
11726TIP3    H256594   5.952   5.231  13.851  0.9787 -0.2351  0.4435
11727TIP3   OH256595   5.174   3.338   2.950 -0.6422  0.4275  0.5583
11727TIP3    H156596   5.254   3.350   3.002 -1.4477 -0.1615  2.0075
11727TIP3    H256597   5.203   3.291   2.872  0.5428  0.9311  0.6716
11728TIP3   OH256598   5.936   0.480   2.671  0.5390  0.3626 -0.1625
11728TIP3    H156599   5.893   0.429   2.739 -0.8929 -1.1364 -2.0789
11728TIP3    H256600   6.023   0.500   2.707  1.6040 -4.2469  0.4113
11729TIP3   OH256601   2.277   3.649  15.172  0.3064 -0.6285 -0.0758
11729TIP3    H156602   2.350   3.700  15.135  1.7070 -1.0568  1.9187
11729TIP3    H256603   2.253   3.696  15.252  1.0611 -2.5375  1.3585
11730TIP3   OH256604   1.676   0.277  11.549  0.7235 -0.1138  0.2885
11730TIP3    H156605   1.603   0.320  11.592 -0.4237 -2.0065  0.3193
11730TIP3    H256606   1.723   0.232  11.620  2.2829  1.4966  0.3539
11731TIP3   OH256607   5.588   0.721   1.800 -0.2602 -0.3580 -0.4106
11731TIP3    H156608   5.675   0.740   1.834 -0.9731  0.7606  0.9529
11731TIP3    H256609   5.565   0.798   1.748 -1.0220  0.1148  0.5718
11732TIP3   OH256610   1.541   1.973  15.925 -0.0045  0.0806  0.1222
11732TIP3    H156611   1.523   1.879  15.922  2.1425 -0.3729 -0.0159
11732TIP3    H256612   1.636   1.980  15.913  0.1107  2.1753  1.6924
11733TIP3   OH256613   1.706   0.430  17.081  0.6385 -0.1064 -0.6781
11733TIP3    H156614   1.736   0.473  17.162  0.8536  2.2451 -1.9291
11733TIP3    H256615   1.620   0.468  17.064  0.3230 -1.0461 -1.2429
11734TIP3   OH256616   4.224   2.669  15.333 -0.1728 -0.3645 -0.3913
11734TIP3    H156617   4.264   2.741  15.286 -1.1163 -0.1766 -0.9411
11734TIP3    H256618   4.144   2.706  15.371 -2.7798 -1.8962 -3.8721
11735TIP3   OH256619   4.712   3.990  12.523  0.3988 -0.4649  0.0344
11735TIP3    H156620   4.803   3.971  12.500  0.3448 -0.4581 -0.1887
11735TIP3    H256621   4.676   4.033  12.446  1.3880  3.5591  1.5719
11736TIP3   OH256622   1.746   3.917   0.926  0.1589 -0.1699  0.0824
11736TIP3    H156623   1.739   3.850   0.859  1.4931  0.3197 -0.5724
11736TIP3    H256624   1.781   3.871   1.003  1.0068 -0.2442 -0.3422
11737TIP3   OH256625   4.161   2.282  15.743  0.4627 -0.0169 -0.0934
11737TIP3    H156626   4.117   2.364  15.765  1.1814  0.4561 -0.3775
11737TIP3    H256627   4.221   2.267  15.816  0.6871 -0.0188 -0.2739
11738TIP3   OH256628   4.187   4.803  16.494  0.1294  0.1678  0.1847
11738TIP3    H156629   4.234   4.804  16.577  0.9780 -0.5364 -0.2757
11738TIP3    H256630   4.195   4.893  16.461  1.0802  0.0795  0.1598
11739TIP3   OH256631   3.690   3.394   3.110 -0.4068  0.5113 -0.2658
11739TIP3    H156632   3.608   3.422   3.070 -0.1301  3.5647  1.0246
11739TIP3    H256633   3.755   3.405   3.042 -0.7561  0.1454 -0.6628
11740TIP3   OH256634   3.189   0.781   3.171  0.3285 -0.1496  0.4425
11740TIP3    H156635   3.140   0.768   3.091  0.5178 -1.9747  0.5785
11740TIP3    H256636   3.277   0.749   3.151  1.0855  1.6491  0.6624
11741TIP3   OH256637   5.629   6.386  14.314  0.0085  0.3024 -0.3615
11741TIP3    H156638   5.704   6.384  14.256 -0.7819  2.1798 -1.5183
11741TIP3    H256639   5.622   6.477  14.342  0.7323 -0.5982  3.2780
11742TIP3   OH256640   5.926   4.951  16.444  0.0801 -0.1577  0.6471
11742TIP3    H156641   5.959   4.891  16.510  1.0139  0.2204  0.5379
11742TIP3    H256642   5.862   4.900  16.394  0.7343 -1.0035  0.6622
11743TIP3   OH256643   0.171   0.525   0.920 -0.2550  0.3182  0.6646
11743TIP3    H156644   0.144   0.533   0.829 -2.1156 -0.6421  1.0844
11743TIP3    H256645   0.231   0.598   0.934  0.9385 -0.1680 -1.6121
11744TIP3   OH256646   6.450   1.357   4.103  0.0628 -0.1594 -0.0591
11744TIP3    H156647   6.499   1.403   4.034  1.3420 -0.1522  0.8071
11744TIP3    H256648   6.362   1.394   4.099  0.1315 -0.0931 -1.6140
11745TIP3   OH256649   0.468   6.492   1.355 -0.4349  0.1013  0.1230
11745TIP3    H156650   0.450   6.561   1.291 -0.8556  1.0784  1.2471
11745TIP3    H256651   0.561   6.503   1.377  0.4094 -1.8361 -2.1011
11746TIP3   OH256652   3.130   3.347   1.704 -0.2396 -0.3101  0.0936
11746TIP3    H156653   3.121   3.276   1.641  1.1534  0.3115 -0.8528
11746TIP3    H256654   3.170   3.307   1.781 -1.2200 -0.9086  0.3119
11747TIP3   OH256655   5.937   5.547   1.610  0.5287  0.2606  0.7750
11747TIP3    H156656   5.893   5.630   1.589  0.1250 -0.1588 -0.1036
11747TIP3    H256657   5.966   5.557   1.701  1.8697  1.9747  0.2246
11748TIP3   OH256658   1.841   1.413   4.055 -0.2283 -0.5762  0.5328
11748TIP3    H156659   1.850   1.318   4.062  1.2365 -0.4680  0.3425
11748TIP3    H256660   1.862   1.446   4.142 -2.8289 -0.5110  1.2231
11749TIP3   OH256661   0.419   0.574   3.878  0.0793  0.1184 -0.0391
11749TIP3    H156662   0.407   0.487   3.916 -0.5534  0.0039 -0.4761
11749TIP3    H256663   0.475   0.621   3.941 -0.6987 -0.1584  0.8894
11750TIP3   OH256664   3.779   0.963  14.923 -0.5459 -0.7147 -0.0284
11750TIP3    H156665   3.718   1.029  14.957  2.2842  1.2428  1.5853
11750TIP3    H256666   3.768   0.888  14.982 -2.2184 -0.9272 -0.5449
11751TIP3   OH256667   1.760   2.593   3.707  1.1008  0.0736  0.0151
11751TIP3    H156668   1.768   2.616   3.614  1.2106 -2.7341 -0.7833
11751TIP3    H256669   1.691   2.526   3.709  1.8741 -0.7363  1.7700
11752TIP3   OH256670   0.747   6.515   1.320 -0.4460 -0.2126 -0.1814
11752TIP3    H156671   0.811   6.444   1.332 -1.5259 -1.2473 -0.3639
11752TIP3    H256672   0.749   6.533   1.226 -0.7223 -0.5380 -0.2508
11753TIP3   OH256673   6.212   2.232   2.972 -0.2204 -0.0636  0.1388
11753TIP3    H156674   6.165   2.315   2.974 -0.7595 -0.3720  0.8041
11753TIP3    H256675   6.208   2.205   2.881  0.4705  0.9176 -0.1946
11754TIP3   OH256676   1.359   2.154   3.956 -0.1489 -0.4642  0.5942
11754TIP3    H156677   1.308   2.235   3.960 -0.6122 -0.4793 -2.4401
11754TIP3    H256678   1.293   2.085   3.948  0.2406 -1.2550  3.1733
11755TIP3   OH256679   2.188   4.503   4.918  0.1619  0.1406  0.1489
11755TIP3    H156680   2.264   4.480   4.865 -1.3634  0.7050 -2.4770
11755TIP3    H256681   2.146   4.419   4.938  0.4580 -0.0431 -0.0010
11756TIP3   OH256682   6.240   1.188  12.077  0.2637 -0.1693  0.4065
11756TIP3    H156683   6.165   1.131  12.061  0.2821 -0.3659  1.0098
11756TIP3    H256684   6.241   1.248  12.002  0.3070 -1.0178 -0.2788
11757TIP3   OH256685   4.244   0.801   6.459  0.0074  0.0717  0.4318
11757TIP3    H156686   4.267   0.883   6.416  0.0005 -0.9024 -1.5116
11757TIP3    H256687   4.324   0.748   6.454 -0.1964 -0.3042  1.0415
11758TIP3   OH256688   1.253   4.281  15.999 -0.4420  0.3025 -0.0466
11758TIP3    H156689   1.292   4.344  15.939 -0.8810 -0.1968 -0.8835
11758TIP3    H256690   1.297   4.199  15.979 -0.9775  0.0191 -0.0714
11759TIP3   OH256691   3.668   3.486   0.539 -0.2840 -0.1601 -0.6633
11759TIP3    H156692   3.716   3.526   0.612 -1.7161  1.9031 -0.7661
11759TIP3    H256693   3.731   3.483   0.468  0.1847  1.0221 -0.3291
11760TIP3   OH256694   5.363   0.082   2.603  0.0485  0.3873  0.1815
11760TIP3    H156695   5.449   0.044   2.622  0.2655  1.5947  1.8530
11760TIP3    H256696   5.346   0.141   2.676 -2.0863  0.4179 -0.2588
11761TIP3   OH256697   0.208   2.933  16.019  0.4614 -0.7606  0.0239
11761TIP3    H156698   0.229   2.928  16.113  0.5964  0.5988  0.0810
11761TIP3    H256699   0.141   2.866  16.006 -0.5574 -0.0649  1.3838
11762TIP3   OH256700   5.412   2.016   4.266 -0.1805 -0.1236 -0.4172
11762TIP3    H156701   5.341   1.991   4.206  0.3076  0.0543 -1.0703
11762TIP3    H256702   5.420   1.941   4.325 -2.0524  0.5287  0.7568
11763TIP3   OH256703   1.528   0.484   2.412 -0.4078  0.3866  0.8662
11763TIP3    H156704   1.496   0.444   2.492 -0.6028  0.2797  0.7350
11763TIP3    H256705   1.461   0.549   2.389  0.3063  1.3935  1.5407
11764TIP3   OH256706   0.919   0.069  15.137 -0.3081  0.0973 -0.4376
11764TIP3    H156707   0.980   0.032  15.073  0.3403 -0.9674  0.7416
11764TIP3    H256708   0.942   0.161  15.143 -0.4249  0.2266 -1.7666
11765TIP3   OH256709   5.859   4.074   4.987 -0.0064 -0.3830 -0.2160
11765TIP3    H156710   5.851   4.154   4.934 -0.1311  0.1243  0.5549
11765TIP3    H256711   5.800   4.088   5.061  1.3121 -0.3888  0.8920
11766TIP3   OH256712   3.570   5.077  13.516 -0.1733 -0.1772 -0.2588
11766TIP3    H156713   3.542   5.004  13.460 -1.5940  1.2715 -1.5116
11766TIP3    H256714   3.540   5.155  13.471  0.7772  1.1874  1.3647
11767TIP3   OH256715   2.529   2.997  12.833  0.0554  0.1583  0.1418
11767TIP3    H156716   2.500   2.958  12.916 -0.6249  1.7062  0.6722
11767TIP3    H256717   2.602   3.053  12.858  0.2673  0.1304 -0.4181
11768TIP3   OH256718   6.568   4.328  12.809  0.2626  0.3333 -0.2725
11768TIP3    H156719   6.545   4.245  12.850 -3.1824  0.2664 -2.0264
11768TIP3    H256720   6.624   4.305  12.735  0.4527 -0.2464  0.0497
11769TIP3   OH256721   4.311   3.922   1.719  0.2947 -0.2956  0.2158
11769TIP3    H156722   4.262   3.842   1.741  1.3868 -1.7996 -2.4162
11769TIP3    H256723   4.363   3.898   1.643  1.2800  2.7465 -0.1867
11770TIP3   OH256724   1.527   1.710   2.863 -0.2572  0.0727 -0.7694
11770TIP3    H156725   1.600   1.769   2.845  2.1387 -2.4607  0.0028
11770TIP3    H256726   1.542   1.636   2.805 -1.0792 -1.3680  0.7938
11771TIP3   OH256727   1.178   0.179   5.148  0.2759 -0.4563 -0.1548
11771TIP3    H156728   1.147   0.238   5.079 -0.0915 -0.2204  0.2014
11771TIP3    H256729   1.111   0.111   5.154 -0.1033 -0.0389  0.5038
11772TIP3   OH256730   2.734   2.283   5.337 -0.2158  0.4370  0.1516
11772TIP3    H156731   2.806   2.229   5.370  0.3596  2.0075  1.5836
11772TIP3    H256732   2.658   2.225   5.339  0.6480 -0.7198  0.3282
11773TIP3   OH256733   6.436   4.961   4.703  0.2776 -0.5952 -0.0390
11773TIP3    H156734   6.518   4.989   4.745 -0.0441 -1.8942  1.5646
11773TIP3    H256735   6.371   4.964   4.774 -0.9805 -0.0273 -1.1765
11774TIP3   OH256736   3.825   3.718  11.300  0.7220  0.0737 -0.1694
11774TIP3    H156737   3.747   3.706  11.354  1.0918 -0.0002  0.3525
11774TIP3    H256738   3.882   3.645  11.323  0.9116  0.0845 -0.6065
11775TIP3   OH256739   2.825   3.253  14.339 -0.6131  0.2817 -0.3542
11775TIP3    H156740   2.747   3.288  14.381  0.8248  1.3243  1.5675
11775TIP3    H256741   2.823   3.159  14.360 -0.5523  0.5772  1.0616
11776TIP3   OH256742   3.531   4.391   3.018 -0.1643 -0.8185 -0.1909
11776TIP3    H156743   3.586   4.323   3.057 -1.2440 -1.5499  0.1107
11776TIP3    H256744   3.508   4.356   2.931 -0.0887 -0.4845 -0.3464
11777TIP3   OH256745   1.947   4.965  14.442  0.2520  0.4962  0.2105
11777TIP3    H156746   1.945   5.032  14.374  0.6489 -0.6429 -0.9643
11777TIP3    H256747   1.997   5.004  14.513 -0.1356  1.7008 -0.1545
11778TIP3   OH256748   0.064   0.352  15.527 -0.0001  0.6409 -0.1024
11778TIP3    H156749   0.063   0.416  15.456  0.5149  1.4813  0.6240
11778TIP3    H256750  -0.021   0.308  15.521  1.4022 -2.1071 -3.6851
11779TIP3   OH256751   2.675   2.795  13.110 -0.9416  0.0154 -0.0187
11779TIP3    H156752   2.724   2.807  13.028  2.1839 -2.7911  1.1871
11779TIP3    H256753   2.595   2.846  13.098 -1.1096 -0.8894 -5.1583
11780TIP3   OH256754   6.446   4.038   1.971 -0.0507 -0.6277 -0.3202
11780TIP3    H156755   6.512   4.106   1.955 -0.0162 -0.2541  1.2092
11780TIP3    H256756   6.400   4.029   1.888  0.5944  0.5759 -0.8360
11781TIP3   OH256757   4.284   4.334   1.735  0.2047  0.2629  0.5804
11781TIP3    H156758   4.357   4.320   1.675 -0.7128  1.4308 -0.9085
11781TIP3    H256759   4.314   4.404   1.793  0.4908  0.3402  0.3450
11782TIP3   OH256760   5.297   5.722   3.721  0.2352 -0.0583 -0.5412
11782TIP3    H156761   5.243   5.741   3.797 -0.9171  0.1551 -1.3760
11782TIP3    H256762   5.234   5.715   3.648  1.1653 -1.5481 -1.2501
11783TIP3   OH256763   5.535   1.880  15.883  0.4832  0.6883 -0.4006
11783TIP3    H156764   5.549   1.973  15.864  2.4847  0.3511 -0.7009
11783TIP3    H256765   5.478   1.850  15.812 -0.9497  1.8392  0.1894
11784TIP3   OH256766   1.659   5.032   3.249 -0.1555 -0.6037  0.5955
11784TIP3    H156767   1.716   5.014   3.323 -0.8809 -0.3052  1.2487
11784TIP3    H256768   1.609   5.109   3.276 -0.3241 -0.3961 -0.2700
11785TIP3   OH256769   5.074   3.920  12.961 -0.2696 -0.1933  0.0558
11785TIP3    H156770   5.168   3.904  12.969 -0.0392 -0.0497 -1.9533
11785TIP3    H256771   5.066   4.016  12.962 -0.7889 -0.1324  3.3836
11786TIP3   OH256772   1.898   5.639   4.949 -0.1324  0.0193 -0.4562
11786TIP3    H156773   1.844   5.665   5.024  0.3489 -2.0778  0.6925
11786TIP3    H256774   1.928   5.722   4.911  0.3208  1.1451  2.1843
11787TIP3   OH256775   0.556   5.491   3.729 -0.1038 -0.5876 -0.8502
11787TIP3    H156776   0.534   5.584   3.717 -0.9487 -1.0004 -3.0548
11787TIP3    H256777   0.641   5.481   3.686  1.1673 -0.4278  1.4647
11788TIP3   OH256778   4.549   1.823   5.230  0.1542 -0.3840  0.3199
11788TIP3    H156779   4.519   1.737   5.200  1.4071 -0.9244  0.5369
11788TIP3    H256780   4.636   1.807   5.265  0.0480  0.8240  1.2155
11789TIP3   OH256781   2.680   6.332  15.964  0.3550  0.1643  0.3538
11789TIP3    H156782   2.691   6.353  15.871 -1.5880 -0.7782 -0.1591
11789TIP3    H256783   2.732   6.253  15.977 -1.1289 -1.0273 -0.5668
11790TIP3   OH256784   4.265   1.563  16.265 -0.5841 -0.3128  0.0207
11790TIP3    H156785   4.247   1.657  16.276 -1.5592 -0.6589  1.8308
11790TIP3    H256786   4.183   1.526  16.233 -0.0469 -0.5099 -1.1946
11791TIP3   OH256787   4.858   5.678  11.669  0.1031 -0.2822 -0.1407
11791TIP3    H156788   4.785   5.642  11.618  0.2701  0.2185 -0.7424
11791TIP3    H256789   4.895   5.602  11.714 -1.2184 -0.4374  0.7270
11792TIP3   OH256790   6.078   1.524   4.499 -0.5723 -0.0592 -0.3780
11792TIP3    H156791   6.071   1.603   4.553 -3.3242  0.7488 -1.7618
11792TIP3    H256792   6.101   1.455   4.562  0.1243  1.4866  1.1645
11793TIP3   OH256793   4.978   6.312  11.083  0.1632  0.5352 -0.0749
11793TIP3    H156794   4.923   6.389  11.075  0.2334  0.7701  1.4382
11793TIP3    H256795   4.976   6.272  10.996 -1.4147  1.1836 -0.3664
11794TIP3   OH256796   2.145   6.353   1.245  0.1610 -0.2220  0.3945
11794TIP3    H156797   2.105   6.323   1.164  0.3482  0.0664  0.1931
11794TIP3    H256798   2.193   6.432   1.220  0.3685 -0.2351  0.7496
11795TIP3   OH256799   2.431   5.108  15.408  0.3541  0.0098  0.5310
11795TIP3    H156800   2.475   5.049  15.347  0.0394  0.4885 -0.1786
11795TIP3    H256801   2.485   5.187  15.408 -0.9773  0.9901 -1.1225
11796TIP3   OH256802   2.322   3.602   1.899  0.3108  0.5899  0.1309
11796TIP3    H156803   2.358   3.628   1.814  1.5581  0.0243  0.4672
11796TIP3    H256804   2.314   3.683   1.948 -1.2369  1.0439 -0.8045
11797TIP3   OH256805   3.761   2.574   0.715 -0.3302 -0.3323 -0.5593
11797TIP3    H156806   3.683   2.550   0.766  0.7534 -0.3176  1.1767
11797TIP3    H256807   3.826   2.508   0.737  1.5087  1.9512  1.4153
11798TIP3   OH256808   4.377   5.666   4.837 -0.0963 -0.5117  0.1974
11798TIP3    H156809   4.441   5.737   4.840 -0.5047  0.1389 -3.1859
11798TIP3    H256810   4.400   5.615   4.760 -1.1364 -2.8491  1.3155
11799TIP3   OH256811   2.003   3.921   3.649  0.3319 -0.2106 -0.0595
11799TIP3    H156812   2.010   3.891   3.739 -0.6391 -0.4124 -0.0336
11799TIP3    H256813   2.046   4.006   3.648 -2.4442  1.3448  1.3861
11800TIP3   OH256814   6.139   1.650  15.933 -0.4594 -0.7316  0.6816
11800TIP3    H156815   6.127   1.744  15.941 -0.7358 -0.8268  1.6217
11800TIP3    H256816   6.128   1.631  15.840 -0.7699  0.1150  0.5408
11801TIP3   OH256817   4.373   0.288  11.771  0.1984  0.1174 -0.6224
11801TIP3    H156818   4.454   0.237  11.769 -0.0115 -0.3894  1.5355
11801TIP3    H256819   4.319   0.243  11.836 -1.1924  1.3718 -0.8784
11802TIP3   OH256820   1.323   2.104   2.952 -0.1121  0.2577  0.6994
11802TIP3    H156821   1.304   2.196   2.969  1.2368  0.3450  1.9585
11802TIP3    H256822   1.377   2.105   2.873  2.7405  0.9422  2.5131
11803TIP3   OH256823   4.179   3.175  17.222 -0.1969  0.8241  0.2461
11803TIP3    H156824   4.262   3.172  17.174 -0.4057  0.0242 -0.0819
11803TIP3    H256825   4.132   3.096  17.194 -1.0056  1.1905  0.5424
11804TIP3   OH256826   6.091   0.602   5.133  0.2970  0.0312 -0.4731
11804TIP3    H156827   6.143   0.521   5.137  1.1904  0.6414  1.1256
11804TIP3    H256828   6.142   0.666   5.183  0.1245  1.9108 -2.5260
11805TIP3   OH256829   4.799   1.455  14.012  0.0419 -0.3108 -0.5972
11805TIP3    H156830   4.762   1.379  13.967 -2.8834  1.7881 -2.0050
11805TIP3    H256831   4.763   1.450  14.101 -1.0273 -0.0011 -1.0096
11806TIP3   OH256832   6.192   2.039   6.486 -0.0587 -0.0054  0.1442
11806TIP3    H156833   6.246   2.117   6.494  1.5715 -1.1785  1.4017
11806TIP3    H256834   6.111   2.060   6.533  0.3696  0.9016  0.4896
11807TIP3   OH256835   6.508   1.797   3.727 -0.6110  0.6817  0.3733
11807TIP3    H156836   6.528   1.795   3.634  1.4337  0.6215  0.7608
11807TIP3    H256837   6.452   1.874   3.738 -0.1786  1.1770 -0.7771
11808TIP3   OH256838   1.762   1.096   4.790  0.6089  0.1024  0.1537
11808TIP3    H156839   1.738   1.087   4.882 -0.3491  0.2739 -0.0659
11808TIP3    H256840   1.694   1.047   4.743  3.3091 -3.7119 -0.2868
11809TIP3   OH256841   1.290   2.855  11.464  0.4901  0.3446  0.3540
11809TIP3    H156842   1.279   2.842  11.558  0.9002  0.2338  0.3881
11809TIP3    H256843   1.367   2.802  11.442  0.9198  1.0612  0.1115
11810TIP3   OH256844   2.045   3.032   3.800  0.3497  0.2905  0.1729
11810TIP3    H156845   1.986   2.957   3.807 -1.8505  1.6611 -1.8761
11810TIP3    H256846   2.123   3.006   3.847 -0.7431 -2.8353  0.4873
11811TIP3   OH256847   1.299   3.549   3.683  0.0931 -0.5655  0.0943
11811TIP3    H156848   1.272   3.572   3.594 -2.4286 -1.2198  0.6242
11811TIP3    H256849   1.326   3.632   3.722 -0.4755  0.0208 -0.7282
11812TIP3   OH256850   3.791   2.457  16.283 -0.2707 -0.1966  0.0008
11812TIP3    H156851   3.851   2.512  16.233 -1.7406  2.3208  0.8633
11812TIP3    H256852   3.767   2.386  16.223  0.7270  0.7729 -1.5940
11813TIP3   OH256853   5.482   2.484   5.118  0.2724 -0.0977  0.3902
11813TIP3    H156854   5.433   2.423   5.173  0.4974  1.1547  2.0175
11813TIP3    H256855   5.560   2.434   5.091 -0.0174 -0.8365  0.8862
11814TIP3   OH256856   4.896   2.940  16.103 -0.1970  0.3210  0.3240
11814TIP3    H156857   4.938   2.964  16.185 -1.4763 -1.6749  1.6720
11814TIP3    H256858   4.907   3.016  16.046  1.4240  1.4558  2.0591
11815TIP3   OH256859   2.964   4.333   6.619  0.3285  0.7684  0.2347
11815TIP3    H156860   3.060   4.336   6.622  0.3056  1.2030  0.5442
11815TIP3    H256861   2.943   4.326   6.526  0.6617  0.5507  0.1736
11816TIP3   OH256862   4.164   1.858   1.820  0.9087  0.6568 -0.3119
11816TIP3    H156863   4.151   1.947   1.853  0.5972  0.1479  1.0050
11816TIP3    H256864   4.230   1.820   1.879 -0.1008 -0.4730  0.1365
11817TIP3   OH256865   3.058   0.121  14.197 -0.6235 -0.2517  0.5706
11817TIP3    H156866   3.092   0.210  14.189 -0.1347 -0.4974 -0.1611
11817TIP3    H256867   3.119   0.078  14.257 -1.0273 -0.0109  1.1539
11818TIP3   OH256868   0.802   5.527  15.266 -0.2661  0.0104  0.1157
11818TIP3    H156869   0.720   5.537  15.219 -1.0722  0.5929  1.5752
11818TIP3    H256870   0.779   5.479  15.346  0.4774  1.5220  1.2967
11819TIP3   OH256871   4.085   5.032   2.847 -0.0585  0.2229 -0.0969
11819TIP3    H156872   4.132   5.037   2.930  0.7114  0.2263 -0.5234
11819TIP3    H256873   3.996   5.006   2.871  0.5321 -1.2871  0.6212
11820TIP3   OH256874   6.384   2.046  14.871 -0.1273  0.1963  0.1049
11820TIP3    H156875   6.317   1.999  14.921  0.3484  0.5314  1.0757
11820TIP3    H256876   6.381   2.006  14.784  1.0232 -2.4325  1.1701
11821TIP3   OH256877   0.922   5.799   6.590  0.0130 -0.8117 -0.0611
11821TIP3    H156878   0.844   5.747   6.607  0.3363 -1.1450  0.4141
11821TIP3    H256879   0.984   5.738   6.550 -0.4564 -0.2222 -1.7937
11822TIP3   OH256880   3.834   0.042   1.741  0.3312  0.4083  0.6366
11822TIP3    H156881   3.904   0.104   1.720  0.1721  1.0478  1.9590
11822TIP3    H256882   3.796   0.019   1.656  0.9824  1.4176  0.0621
11823TIP3   OH256883   4.466   1.682  15.180  0.2338 -0.1552 -0.1789
11823TIP3    H156884   4.396   1.627  15.143 -2.2353  3.0947 -0.8353
11823TIP3    H256885   4.450   1.681  15.274 -0.6864  0.4222 -0.3085
11824TIP3   OH256886   2.773   5.686   4.486  0.1642 -0.6620  0.1870
11824TIP3    H156887   2.678   5.680   4.484  0.2161 -1.9198  0.5158
11824TIP3    H256888   2.802   5.595   4.496  1.3913 -0.2843  0.1679
11825TIP3   OH256889   5.351   4.411  15.991 -0.0685 -0.2668  0.4401
11825TIP3    H156890   5.436   4.409  16.033  0.4448 -1.2593 -0.5999
11825TIP3    H256891   5.318   4.322  15.999 -1.2516  0.2202  1.2779
11826TIP3   OH256892   5.522   2.794  12.396  0.0234 -0.0384  0.0502
11826TIP3    H156893   5.564   2.831  12.319  3.7674  1.2689  2.4682
11826TIP3    H256894   5.482   2.870  12.440  0.5577 -0.2420  0.8995
11827TIP3   OH256895   4.330   4.294  17.292  0.1161 -0.1102 -0.1913
11827TIP3    H156896   4.242   4.277  17.259  0.7986 -0.5985 -1.8501
11827TIP3    H256897   4.325   4.383  17.329 -0.5597  0.8015 -2.3057
11828TIP3   OH256898   4.807   5.046  14.511  0.1563 -0.2940 -0.3444
11828TIP3    H156899   4.787   5.023  14.602  1.0573  0.1195 -0.0220
11828TIP3    H256900   4.892   5.005  14.494  0.1920 -0.0164 -0.8613
11829TIP3   OH256901   3.647   2.567   4.803  0.4874 -0.2768  0.2212
11829TIP3    H156902   3.682   2.490   4.846  0.8282 -0.6882 -0.7659
11829TIP3    H256903   3.554   2.546   4.788  0.4471 -0.2651  0.4565
11830TIP3   OH256904   0.511   0.496  16.900  0.1844  0.3953 -0.1858
11830TIP3    H156905   0.433   0.520  16.849  0.6884  0.2580 -1.0537
11830TIP3    H256906   0.495   0.405  16.926 -0.5354  0.7905  0.8038
11831TIP3   OH256907   2.461   3.696   0.741 -0.2938 -0.4826 -0.3276
11831TIP3    H156908   2.417   3.774   0.773 -0.2584 -0.1150 -1.1508
11831TIP3    H256909   2.548   3.699   0.781 -0.2408 -0.0231 -0.4796
11832TIP3   OH256910   3.002   1.379  14.582 -0.6250  0.4640 -0.5161
11832TIP3    H156911   3.093   1.361  14.560 -0.0164  0.0279  2.0540
11832TIP3    H256912   2.954   1.302  14.552  0.4174 -0.9126  1.1661
11833TIP3   OH256913   0.087   0.077  16.464 -0.1564  0.4592  0.0155
11833TIP3    H156914   0.021   0.049  16.528  1.3887 -0.2988  1.3569
11833TIP3    H256915   0.088   0.173  16.472 -0.7257  0.4459  0.3481
11834TIP3   OH256916   4.254   4.874   1.034 -0.8543 -0.3363 -0.8893
11834TIP3    H156917   4.213   4.798   0.992 -0.3761 -1.5732  0.7887
11834TIP3    H256918   4.201   4.890   1.112  0.4398 -0.4630  0.0441
11835TIP3   OH256919   6.463   1.463  11.542 -0.0645  0.2019 -0.3669
11835TIP3    H156920   6.547   1.459  11.588 -1.5555 -0.4611  2.5083
11835TIP3    H256921   6.447   1.557  11.531  0.1381  0.4135  0.9415
11836TIP3   OH256922   0.543   3.700  15.810  0.6003  0.1194 -0.1113
11836TIP3    H156923   0.568   3.608  15.800 -1.0402 -0.2392 -1.3375
11836TIP3    H256924   0.580   3.744  15.734  0.8111  0.3437  0.1183
11837TIP3   OH256925   6.699   6.366   4.319  0.8044  0.5183  0.3040
11837TIP3    H156926   6.612   6.389   4.350  0.1260 -1.8331  0.3146
11837TIP3    H256927   6.751   6.353   4.398  0.3379 -0.9395  0.3921
11838TIP3   OH256928   1.435   3.675  13.437  0.4748  0.2471 -0.3785
11838TIP3    H156929   1.373   3.680  13.364  0.2506  2.3038 -0.1134
11838TIP3    H256930   1.460   3.583  13.442 -2.6596 -0.7042 -0.4004
11839TIP3   OH256931   3.813   5.712  14.479  0.4181  0.0164  0.2211
11839TIP3    H156932   3.787   5.732  14.569 -0.5494  0.9710 -0.2433
11839TIP3    H256933   3.810   5.617  14.473 -1.5474  0.0158  0.6385
11840TIP3   OH256934   1.372   0.350   0.287 -0.7176  0.0894  0.6485
11840TIP3    H156935   1.383   0.295   0.210  0.8586  1.4451 -0.1551
11840TIP3    H256936   1.329   0.429   0.253  1.7351  1.5372  0.6939
11841TIP3   OH256937   5.150   3.426   1.821  0.3017 -0.0478 -0.7005
11841TIP3    H156938   5.055   3.418   1.810  0.3786 -1.5303 -0.5133
11841TIP3    H256939   5.185   3.417   1.733  0.3056 -0.3769 -0.6675
11842TIP3   OH256940   3.943   4.200   2.518  0.3941  0.1199  0.3140
11842TIP3    H156941   3.991   4.166   2.593 -1.3947  1.4179  2.1493
11842TIP3    H256942   3.879   4.260   2.556 -2.0315 -0.8022 -2.0632
11843TIP3   OH256943   2.557   0.490   2.997  0.1956 -0.8113 -0.3828
11843TIP3    H156944   2.487   0.475   2.933 -1.2790 -2.1753  1.4567
11843TIP3    H256945   2.565   0.586   3.002 -0.8925 -0.6563 -1.2988
11844TIP3   OH256946   6.311   5.827  12.453  0.2791  0.0859  0.2892
11844TIP3    H156947   6.241   5.802  12.513 -0.4664  2.6130  0.6189
11844TIP3    H256948   6.391   5.800  12.497 -0.3894 -1.2588  0.7388
11845TIP3   OH256949   1.530   0.561  16.372  0.0521  0.4354 -0.1359
11845TIP3    H156950   1.503   0.481  16.328  0.9978  0.4888 -0.8533
11845TIP3    H256951   1.478   0.630  16.330 -0.1257  0.3002 -0.1371
11846TIP3   OH256952   2.181   1.391  11.266 -0.1630 -0.3464 -0.1829
11846TIP3    H156953   2.115   1.342  11.314 -0.2813  0.7533  0.8127
11846TIP3    H256954   2.142   1.405  11.179 -0.0628 -2.0856 -0.5532
11847TIP3   OH256955   5.204   1.733  11.552 -0.2680  0.0035 -0.5799
11847TIP3    H156956   5.120   1.714  11.511  0.1097  0.3021 -1.5127
11847TIP3    H256957   5.266   1.672  11.511 -0.0740 -0.4089  0.3035
11848TIP3   OH256958   1.657   2.561  11.221 -0.6301 -0.4717 -0.1736
11848TIP3    H156959   1.640   2.644  11.176  0.4695 -0.4374 -0.5460
11848TIP3    H256960   1.735   2.526  11.179 -0.4416 -1.1665  0.7179
11849TIP3   OH256961   2.590   2.034   6.530 -0.2105  0.1864  0.2862
11849TIP3    H156962   2.644   1.990   6.595  0.8934  0.0371 -0.6914
11849TIP3    H256963   2.561   1.965   6.471  1.7381  0.7104 -1.4029
11850TIP3   OH256964   0.867   0.899   3.973 -0.3977 -0.5532  0.0692
11850TIP3    H156965   0.872   0.990   4.003  1.2985 -1.0500  1.4162
11850TIP3    H256966   0.775   0.875   3.986 -0.7237  0.7420  0.3412
11851TIP3   OH256967   1.401   3.384  16.876  0.4887  0.1796 -0.4132
11851TIP3    H156968   1.406   3.467  16.923 -0.5423  0.3429 -0.5734
11851TIP3    H256969   1.346   3.328  16.931 -1.0107  0.4811 -1.5241
11852TIP3   OH256970   6.682   4.773   2.200  0.7519 -0.0917 -0.3344
11852TIP3    H156971   6.765   4.740   2.235  0.6150  0.1171  0.2078
11852TIP3    H256972   6.702   4.861   2.168  0.5274  0.3956  0.7849
11853TIP3   OH256973   0.740   2.600   5.185 -0.2132  0.1410 -0.7927
11853TIP3    H156974   0.745   2.520   5.237  0.5503  2.1161  2.4593
11853TIP3    H256975   0.767   2.573   5.097  1.0644 -2.9584  0.4004
11854TIP3   OH256976   3.108   1.847  15.742  0.2990 -0.3819  0.0827
11854TIP3    H156977   3.053   1.925  15.736 -0.3095 -0.9265 -2.5984
11854TIP3    H256978   3.055   1.784  15.791  0.1790  0.3556  0.9266
11855TIP3   OH256979   2.074   1.130  17.136 -0.2406  0.1813  0.2553
11855TIP3    H156980   2.024   1.174  17.068 -2.5471 -0.8543  1.1708
11855TIP3    H256981   2.041   1.167  17.218  1.4448  0.3726  0.8893
11856TIP3   OH256982   0.573   4.365   6.142  0.1082 -0.0023 -0.2206
11856TIP3    H156983   0.494   4.331   6.183 -0.2981  0.7768 -0.3331
11856TIP3    H256984   0.645   4.333   6.198 -0.4360  1.1177  1.2063
11857TIP3   OH256985   3.684   1.197  16.101  0.1978 -0.0277 -0.1516
11857TIP3    H156986   3.772   1.177  16.070  0.0840  0.0862 -0.5630
11857TIP3    H256987   3.645   1.248  16.030  0.8500  2.6396  1.2949
11858TIP3   OH256988   4.860   0.451   0.018 -0.2547 -0.0353  0.2350
11858TIP3    H156989   4.858   0.544  -0.006  2.1931 -0.1967 -0.8963
11858TIP3    H256990   4.922   0.446   0.090 -0.5449 -0.7863  0.4447
11859TIP3   OH256991   1.118   3.695  13.100 -0.0788 -0.6187  0.4190
11859TIP3    H156992   1.063   3.719  13.175  1.3916  1.6012  0.8930
11859TIP3    H256993   1.194   3.652  13.139  0.7504  0.6522  0.2671
11860TIP3   OH256994   2.380   4.708   5.784 -0.1243  0.4103  0.3725
11860TIP3    H156995   2.463   4.695   5.739 -0.4659 -0.6743  0.0165
11860TIP3    H256996   2.375   4.802   5.800  0.1042  0.8244 -1.6871
11861TIP3   OH256997   5.312   3.625   6.161  0.1531 -0.3515 -0.3223
11861TIP3    H156998   5.346   3.691   6.221 -0.7048  0.0490 -0.2491
11861TIP3    H256999   5.297   3.548   6.216 -0.1282 -0.1566 -0.1191
11862TIP3   OH257000   5.141   5.268   0.717 -0.3985  0.4990 -0.0111
11862TIP3    H157001   5.077   5.318   0.767 -0.0157  0.4510  0.5286
11862TIP3    H257002   5.216   5.327   0.707 -0.7301  0.7656 -1.1339
11863TIP3   OH257003   0.197   2.808   1.764 -0.1104 -0.2816 -0.3234
11863TIP3    H157004   0.153   2.756   1.697  1.2462 -0.2813 -1.2481
11863TIP3    H257005   0.132   2.872   1.792 -1.2850 -1.4363 -0.3145
11864TIP3   OH257006   4.720   0.330  13.504 -0.1607  0.0614  0.2292
11864TIP3    H157007   4.802   0.375  13.482  0.3224 -1.5968 -1.7097
11864TIP3    H257008   4.732   0.242  13.469 -1.0407 -1.6617  3.8879
11865TIP3   OH257009   4.661   0.502  16.473 -0.0230 -0.3217 -0.4086
11865TIP3    H157010   4.712   0.530  16.397 -2.9590 -1.5307 -3.0336
11865TIP3    H257011   4.619   0.582  16.505 -1.6362 -0.2395 -2.4904
11866TIP3   OH257012   5.443   3.688   5.736  0.0691  0.5450 -0.3076
11866TIP3    H157013   5.525   3.721   5.698  0.1593 -0.0843 -0.6830
11866TIP3    H257014   5.392   3.659   5.660  0.5996 -1.5292  0.0562
11867TIP3   OH257015   0.335   2.117   4.808  0.8218 -0.4553 -0.2232
11867TIP3    H157016   0.319   2.151   4.720 -0.5297 -0.9495 -0.2002
11867TIP3    H257017   0.322   2.193   4.865  1.3334 -0.2185 -0.4110
11868TIP3   OH257018   4.322   0.437   5.177  0.0259 -0.1749 -0.1823
11868TIP3    H157019   4.312   0.532   5.164  0.2501 -0.1699 -0.3175
11868TIP3    H257020   4.371   0.408   5.100 -0.8282 -0.5461 -0.6036
11869TIP3   OH257021   5.132   1.778   2.905 -0.0431  0.2042 -0.3060
11869TIP3    H157022   5.187   1.856   2.902  0.4728 -0.1349  0.3267
11869TIP3    H257023   5.050   1.806   2.864 -0.4596  1.5749  1.3227
11870TIP3   OH257024   5.693   6.097  17.026 -0.0321  0.0946  0.4635
11870TIP3    H157025   5.754   6.119  17.097  1.0961 -1.5523  0.0564
11870TIP3    H257026   5.639   6.027  17.062 -1.5707  1.3806  0.7336
11871TIP3   OH257027   5.318   5.049  12.725 -0.5610  0.3935  0.7185
11871TIP3    H157028   5.300   5.136  12.761  1.7266  1.1151  0.3266
11871TIP3    H257029   5.334   5.064  12.632 -0.2931 -0.4645  0.6111
11872TIP3   OH257030   4.031   1.577  10.776  0.0791 -0.9075 -0.0870
11872TIP3    H157031   3.962   1.641  10.793 -0.2603 -0.9286 -1.2791
11872TIP3    H257032   4.089   1.584  10.851 -0.0164  0.7177 -0.1279
11873TIP3   OH257033   5.312   0.225  16.859 -0.9073 -0.4123 -0.0800
11873TIP3    H157034   5.225   0.196  16.831 -0.4395 -0.8544 -1.1257
11873TIP3    H257035   5.322   0.313  16.820 -0.4813 -0.7968 -0.8732
11874TIP3   OH257036   4.525   2.912  13.961  0.1807  0.6032 -0.6605
11874TIP3    H157037   4.560   2.860  13.889  0.7045 -2.1842  1.4516
11874TIP3    H257038   4.434   2.883  13.969  0.8604 -1.2356  1.4340
11875TIP3   OH257039   1.062   1.018  11.765 -0.6560  0.1971 -0.1395
11875TIP3    H157040   1.044   1.094  11.820 -0.9480 -0.3630  0.5454
11875TIP3    H257041   1.101   1.055  11.686 -0.1780  1.0105  0.4601
11876TIP3   OH257042   5.245   0.786  15.933  0.1232 -0.1798  0.3488
11876TIP3    H157043   5.240   0.867  15.883 -1.8745  0.3420  1.3163
11876TIP3    H257044   5.193   0.723  15.883 -3.9242  0.9664  2.6991
11877TIP3   OH257045   3.174   5.391   4.212  0.1962 -0.8342  0.6943
11877TIP3    H157046   3.204   5.310   4.254 -0.8052 -0.6764  1.7951
11877TIP3    H257047   3.234   5.458   4.244  0.6028 -1.0322  0.3452
11878TIP3   OH257048   0.946   4.622   3.453  0.2458 -0.3171 -0.1458
11878TIP3    H157049   1.039   4.613   3.432  0.1912 -3.8440  0.5596
11878TIP3    H257050   0.905   4.542   3.420 -2.7563  1.4282 -1.1000
11879TIP3   OH257051   2.726   5.124   3.158  0.0969 -0.3274 -0.2905
11879TIP3    H157052   2.696   5.041   3.122 -0.1720  0.0802 -1.0276
11879TIP3    H257053   2.760   5.172   3.082 -1.1554  0.8463 -0.1478
11880TIP3   OH257054   4.509   2.953  12.773  0.4853 -0.1330  0.1540
11880TIP3    H157055   4.476   2.931  12.686 -2.6004  2.1655  0.6018
11880TIP3    H257056   4.528   2.868  12.814 -1.8954 -1.4916 -1.3504
11881TIP3   OH257057   2.416   6.301  16.049  0.5359 -0.2948 -0.1265
11881TIP3    H157058   2.508   6.281  16.070  0.3433 -0.2666  0.7969
11881TIP3    H257059   2.413   6.302  15.953  1.2963 -1.2333 -0.1762
11882TIP3   OH257060   2.026   0.732   5.691 -0.2378  0.3389  0.1093
11882TIP3    H157061   1.993   0.814   5.727  1.1014  0.6087  0.8116
11882TIP3    H257062   1.957   0.668   5.707 -0.5349  0.9300  1.2617
11883TIP3   OH257063   4.131   0.464  15.397  0.2441 -0.0587 -0.3099
11883TIP3    H157064   4.161   0.470  15.488 -0.4188  0.1929 -0.1039
11883TIP3    H257065   4.038   0.442  15.404 -0.1749  1.4338 -0.9058
11884TIP3   OH257066   1.498   4.455   1.433  0.3857 -0.2423 -0.4259
11884TIP3    H157067   1.483   4.412   1.518 -1.3172  1.9775  0.4930
11884TIP3    H257068   1.590   4.482   1.436  0.5662 -0.8984  0.3571
11885TIP3   OH257069   5.602   6.261   3.841  0.6147  0.3989  0.7540
11885TIP3    H157070   5.535   6.213   3.890  0.8469 -1.4968 -0.6602
11885TIP3    H257071   5.553   6.313   3.778  0.4214 -0.9283 -0.2288
11886TIP3   OH257072   5.989   4.765  16.633 -0.2302 -0.1131 -0.0392
11886TIP3    H157073   5.918   4.736  16.690  0.6740 -2.8113 -0.1427
11886TIP3    H257074   6.064   4.776  16.692  0.1749 -0.8767 -0.3995
11887TIP3   OH257075   1.014   2.565  11.752 -0.2415  0.0290 -0.4373
11887TIP3    H157076   1.080   2.502  11.780 -0.7633  0.0401  0.8750
11887TIP3    H257077   0.938   2.511  11.730  0.6466 -0.1371 -3.5455
11888TIP3   OH257078   4.914   2.287   0.621 -0.2543  0.3883  0.1350
11888TIP3    H157079   4.919   2.291   0.526 -1.6683 -0.5310 -0.0069
11888TIP3    H257080   5.005   2.276   0.649  0.1114 -0.1153 -1.1578
11889TIP3   OH257081   6.402   2.598   6.135 -0.4387 -0.4833  0.1869
11889TIP3    H157082   6.486   2.557   6.156 -0.0387 -0.1347 -0.6822
11889TIP3    H257083   6.338   2.547   6.184  0.2192 -1.0941  0.4407
11890TIP3   OH257084   2.247   2.067  14.959 -0.7904 -0.3718  0.0445
11890TIP3    H157085   2.269   2.053  14.867  1.3458  2.9102 -0.0811
11890TIP3    H257086   2.325   2.041  15.007 -0.5786  1.1675  0.5882
11891TIP3   OH257087   3.510   0.781   5.416  0.4628 -0.6036  0.7598
11891TIP3    H157088   3.466   0.702   5.382  0.7332 -0.9365  1.1773
11891TIP3    H257089   3.589   0.788   5.363 -0.4042  0.3864 -0.4613
11892TIP3   OH257090   4.316   3.841   2.495  0.1564  0.0997 -0.5551
11892TIP3    H157091   4.348   3.754   2.471 -1.6160 -0.5225 -0.7989
11892TIP3    H257092   4.339   3.850   2.587 -0.0793 -0.8644 -0.3829
11893TIP3   OH257093   5.294   0.913   3.929  0.1678  0.0072 -0.6524
11893TIP3    H157094   5.201   0.921   3.905 -0.8631 -0.0455  2.8108
11893TIP3    H257095   5.314   0.821   3.918 -0.1153  0.0419 -1.5663
11894TIP3   OH257096   4.637   3.612  11.417 -0.1446 -0.1439 -0.6180
11894TIP3    H157097   4.712   3.577  11.370 -0.0091 -2.7945  1.3431
11894TIP3    H257098   4.583   3.535  11.437 -1.1301  1.0805  1.8586
11895TIP3   OH257099   3.463   1.878  13.200  0.6811  0.6888  0.1953
11895TIP3    H157100   3.483   1.943  13.132  1.5858 -0.2003 -0.4431
11895TIP3    H257101   3.549   1.850  13.231  0.2827  1.7587  2.4365
11896TIP3   OH257102   5.277   5.718  15.552 -0.0323 -0.6781  0.5136
11896TIP3    H157103   5.190   5.757  15.559 -0.6300 -2.0357  0.9396
11896TIP3    H257104   5.329   5.783  15.504 -1.5256 -0.2362 -0.5679
11897TIP3   OH257105   3.800   5.205  14.764 -0.0704  0.9034 -0.7151
11897TIP3    H157106   3.737   5.211  14.835  1.4737  1.2338  0.6826
11897TIP3    H257107   3.773   5.127  14.715 -0.8913  0.3935  0.4948
11898TIP3   OH257108   5.500   0.011   3.381  0.1426 -0.6507  0.8678
11898TIP3    H157109   5.551  -0.065   3.408  2.7227  1.0910  1.2555
11898TIP3    H257110   5.561   0.064   3.329 -1.8710  0.6904 -0.2789
11899TIP3   OH257111   2.375   3.343   1.560  0.6471  0.5581  0.2566
11899TIP3    H157112   2.444   3.330   1.625 -0.8746  1.4554  2.1235
11899TIP3    H257113   2.303   3.383   1.608 -0.6131  1.1386 -1.9645
11900TIP3   OH257114   4.580   5.933   0.282  0.0835  0.5501 -0.2712
11900TIP3    H157115   4.614   6.018   0.254 -0.4020  0.7678 -0.2210
11900TIP3    H257116   4.495   5.926   0.238  0.9768 -0.8147 -1.8900
11901TIP3   OH257117   3.033   5.397   3.374 -0.4147  0.1581 -0.0155
11901TIP3    H157118   3.036   5.302   3.368  0.2573  0.0013  2.0296
11901TIP3    H257119   2.980   5.424   3.299  0.9105 -1.6600 -1.6937
11902TIP3   OH257120   3.070   2.866  14.212 -0.0785 -0.4333 -0.0186
11902TIP3    H157121   3.158   2.882  14.247 -0.6798  0.7846  1.0152
11902TIP3    H257122   3.017   2.847  14.289 -0.9592 -0.0018 -0.5077
11903TIP3   OH257123   2.107   1.569  13.070 -0.9469 -0.0269  0.2577
11903TIP3    H157124   2.022   1.537  13.100 -0.6255 -0.7464  0.4403
11903TIP3    H257125   2.135   1.502  13.007 -0.5419  0.2362  0.1604
11904TIP3   OH257126   0.788   3.518   2.541 -0.1488  0.5149 -0.4299
11904TIP3    H157127   0.828   3.431   2.545  1.5900  1.2800  2.9456
11904TIP3    H257128   0.850   3.570   2.490  0.0907  0.3341 -0.3271
11905TIP3   OH257129   6.224   2.284  16.272 -0.2758 -0.0448 -0.2444
11905TIP3    H157130   6.248   2.302  16.363  1.0261 -0.6170 -0.4472
11905TIP3    H257131   6.181   2.198  16.275 -0.1146 -0.1249 -0.1733
11906TIP3   OH257132   3.673   6.226   4.032 -0.5222 -0.6705 -0.1097
11906TIP3    H157133   3.702   6.294   3.972  1.0246 -1.6261 -0.5013
11906TIP3    H257134   3.753   6.196   4.075 -1.3157 -1.4916  0.8507
11907TIP3   OH257135   3.003   0.016   4.311 -0.1381  0.0161 -0.2429
11907TIP3    H157136   2.980   0.020   4.218  0.3853  1.1574 -0.3404
11907TIP3    H257137   2.920   0.031   4.357 -0.1657  0.8335 -0.5484
11908TIP3   OH257138   2.240   4.916   1.075  0.0707  0.2926 -0.0190
11908TIP3    H157139   2.324   4.894   1.114 -0.8722 -2.3820  0.7072
11908TIP3    H257140   2.175   4.897   1.143 -1.1902  1.8218 -0.7109
11909TIP3   OH257141   2.952   1.440  13.505  0.5645  0.6015  0.5059
11909TIP3    H157142   2.914   1.355  13.529 -2.0476  1.2892 -0.8510
11909TIP3    H257143   2.933   1.449  13.411  1.0662  2.5503  0.5503
11910TIP3   OH257144   1.800   5.041   5.184  0.2303 -0.2524 -0.0345
11910TIP3    H157145   1.855   5.001   5.116  1.4818  1.5823 -0.1804
11910TIP3    H257146   1.712   5.038   5.147  0.9004  0.9132 -1.9536
11911TIP3   OH257147   3.208   3.421   0.533 -0.3122 -0.3047  0.2913
11911TIP3    H157148   3.145   3.360   0.572 -1.5154  0.1185 -0.8975
11911TIP3    H257149   3.197   3.410   0.439  1.2030  0.0120  0.0553
11912TIP3   OH257150   5.833   4.126   1.485  0.3955 -0.2303  0.1616
11912TIP3    H157151   5.777   4.200   1.508  1.4330  1.1872 -1.5743
11912TIP3    H257152   5.784   4.049   1.511 -2.0498  0.9618 -0.6703
11913TIP3   OH257153   4.798   4.215  16.742 -0.3717 -0.1363 -0.1399
11913TIP3    H157154   4.745   4.275  16.795 -1.7193  0.1283 -1.7241
11913TIP3    H257155   4.805   4.257  16.657 -3.1290 -3.0052 -2.0076
11914TIP3   OH257156   3.842   1.681   3.319 -0.2933 -0.8136  0.1272
11914TIP3    H157157   3.872   1.750   3.260 -2.4343 -0.5115 -0.6978
11914TIP3    H257158   3.868   1.712   3.406 -0.7029  0.8030 -0.2824
11915TIP3   OH257159   5.044   1.806  15.801  0.3508  0.4582  0.3373
11915TIP3    H157160   4.970   1.748  15.822  0.3206  0.7235  1.0010
11915TIP3    H257161   5.120   1.763  15.840  0.6113  0.0244 -0.6172
11916TIP3   OH257162   0.449   0.798  14.119 -0.4263 -0.6789 -0.0493
11916TIP3    H157163   0.449   0.758  14.206  0.3098 -0.0395  0.2604
11916TIP3    H257164   0.473   0.728  14.059 -1.3074 -1.2162  0.2168
11917TIP3   OH257165   5.851   6.234   3.684  0.4169 -0.4578 -0.8398
11917TIP3    H157166   5.780   6.245   3.747  1.7873  1.7942  0.4650
11917TIP3    H257167   5.824   6.160   3.630 -1.0717 -2.2331  2.0516
11918TIP3   OH257168   3.067   3.452  16.952  0.5015 -0.5230  0.0391
11918TIP3    H157169   3.129   3.466  16.880  1.5256 -0.0382  0.9940
11918TIP3    H257170   2.982   3.475  16.914  0.8931 -1.1369 -1.2741
11919TIP3   OH257171   4.965   5.459   4.246 -0.0881 -0.0736  0.4057
11919TIP3    H157172   4.886   5.507   4.270 -1.4798 -1.4513 -1.0967
11919TIP3    H257173   4.959   5.377   4.295  1.0436  0.2699  1.1595
11920TIP3   OH257174   3.007   3.095   4.336  0.1362  0.5067  0.5264
11920TIP3    H157175   2.971   3.150   4.267  0.4799 -0.3728 -0.3853
11920TIP3    H257176   3.031   3.014   4.292  0.4428 -0.0520  1.6719
11921TIP3   OH257177   5.003   0.091  16.837 -0.2472  0.5169  0.4571
11921TIP3    H157178   4.985   0.030  16.908  0.1083  0.7830  0.7810
11921TIP3    H257179   5.003   0.177  16.879  1.3608  0.5755  0.4179
11922TIP3   OH257180   0.927   2.905   3.301 -0.5979 -0.0515 -0.0522
11922TIP3    H157181   0.911   2.999   3.291 -1.0058  0.0857  1.5726
11922TIP3    H257182   0.939   2.873   3.212  1.0690  1.8073 -0.5705
11923TIP3   OH257183   4.754   5.009  12.026 -0.4878  0.3778 -0.0935
11923TIP3    H157184   4.741   5.097  12.061  0.6046  0.4407  0.1953
11923TIP3    H257185   4.799   4.962  12.097  0.5123  0.1079 -0.8798
11924TIP3   OH257186   6.546   5.465  13.945  0.0296  0.0561  0.4949
11924TIP3    H157187   6.507   5.539  13.900  0.5516 -0.3381 -0.6421
11924TIP3    H257188   6.593   5.417  13.877  0.4880 -0.7987  1.3809
11925TIP3   OH257189   0.856   5.113   1.138  0.2372  0.0488 -0.3564
11925TIP3    H157190   0.945   5.086   1.161 -0.4165  0.3459  3.0027
11925TIP3    H257191   0.861   5.208   1.132  0.4285 -0.0302 -1.8715
11926TIP3   OH257192   6.474   3.789  16.767  0.0228  0.0785 -1.0445
11926TIP3    H157193   6.379   3.801  16.767  0.0092 -0.0081 -1.5900
11926TIP3    H257194   6.492   3.740  16.847 -0.4423 -0.2584 -1.1415
11927TIP3   OH257195   5.690   5.578   3.868  0.4645 -0.3233 -0.4250
11927TIP3    H157196   5.773   5.531   3.866  1.2023  0.9390 -0.6774
11927TIP3    H257197   5.623   5.509   3.870  1.5009 -1.3588 -0.4474
11928TIP3   OH257198   3.091   2.744  13.739  0.2142 -0.3705  0.4849
11928TIP3    H157199   3.129   2.751  13.826 -0.0177 -1.4239  0.6802
11928TIP3    H257200   2.996   2.745  13.754  0.1539 -1.8884  0.3931
11929TIP3   OH257201   2.298   6.267   2.220 -0.2689 -0.3627  0.8237
11929TIP3    H157202   2.315   6.234   2.308  0.6496 -1.2081  0.3404
11929TIP3    H257203   2.217   6.317   2.229 -0.5992 -1.0691  1.9925
11930TIP3   OH257204   1.081   4.921  17.011 -0.0879  0.2964  0.2517
11930TIP3    H157205   0.986   4.927  17.005 -0.3704  0.5177  3.2918
11930TIP3    H257206   1.114   4.997  16.963 -1.4454  0.3880 -0.5621
11931TIP3   OH257207   0.452   5.214  12.064 -0.3043  0.7145 -0.0117
11931TIP3    H157208   0.374   5.243  12.016 -1.3073 -1.5672  0.1117
11931TIP3    H257209   0.499   5.157  12.004  0.0009  0.1924  0.6964
11932TIP3   OH257210   2.020   4.420  13.242  0.5654 -0.1176 -0.0752
11932TIP3    H157211   2.098   4.451  13.289 -0.1048  2.7004 -0.6052
11932TIP3    H257212   2.045   4.336  13.206  3.7510  1.0941 -1.0115
11933TIP3   OH257213   6.417   4.088  12.511 -0.8430  0.2234  0.0639
11933TIP3    H157214   6.360   4.124  12.443 -1.8121 -0.3096  0.5770
11933TIP3    H257215   6.504   4.121  12.489 -1.2699  0.6897 -0.9896
11934TIP3   OH257216   0.594   5.292   0.630  0.2452 -0.1955 -0.0228
11934TIP3    H157217   0.603   5.287   0.725 -0.8199  0.9870  0.1722
11934TIP3    H257218   0.607   5.202   0.600  0.6174 -0.5837  1.2409
11935TIP3   OH257219   4.685   1.707   0.596 -0.0865 -0.6439 -0.2765
11935TIP3    H157220   4.779   1.688   0.604 -0.4440 -2.4280  0.0505
11935TIP3    H257221   4.682   1.791   0.549  1.6598 -0.8942 -0.9284
11936TIP3   OH257222   3.647   6.075  17.089 -0.1682 -0.6274 -0.0881
11936TIP3    H157223   3.648   6.169  17.072  0.5459 -0.6064  0.0182
11936TIP3    H257224   3.559   6.058  17.122 -1.1473 -0.4414 -2.4090
11937TIP3   OH257225   3.317   1.902   2.991 -0.2783 -0.5218  0.3330
11937TIP3    H157226   3.282   1.818   3.022 -0.8914 -0.3308  0.1642
11937TIP3    H257227   3.257   1.929   2.922 -0.2370  0.1961  0.5743
11938TIP3   OH257228   3.409   6.310   2.032 -0.0303 -0.1648  0.5772
11938TIP3    H157229   3.504   6.313   2.032 -0.0299 -0.1753  0.4110
11938TIP3    H257230   3.387   6.245   2.100  0.0958 -0.5559  0.2514
11939TIP3   OH257231   0.663   1.650  12.481  0.4443 -0.2086 -0.5415
11939TIP3    H157232   0.670   1.733  12.435  0.3251 -0.2809 -0.6924
11939TIP3    H257233   0.616   1.671  12.562  1.4276  0.0817 -0.0301
11940TIP3   OH257234   0.797   3.282  16.290  0.2345  0.2792  0.3106
11940TIP3    H157235   0.797   3.312  16.199  1.2044  0.3160  0.3114
11940TIP3    H257236   0.717   3.231  16.299 -0.5730  1.4216 -0.1733
11941TIP3   OH257237   3.247   5.530   5.018  0.7471 -0.0313 -0.0941
11941TIP3    H157238   3.278   5.609   4.975 -0.5490  0.2345 -0.5848
11941TIP3    H257239   3.158   5.517   4.985  1.0275 -1.8636 -0.2566
11942TIP3   OH257240   0.248   6.428  14.748 -0.4520 -0.3860 -0.0348
11942TIP3    H157241   0.278   6.473  14.827 -4.5482  0.5850  1.2197
11942TIP3    H257242   0.244   6.496  14.681  0.0655 -0.5283 -0.2192
11943TIP3   OH257243   0.234   1.898  15.296  0.9895  0.1982 -0.0575
11943TIP3    H157244   0.293   1.947  15.353 -0.4050  1.2545  0.5175
11943TIP3    H257245   0.148   1.934  15.313 -0.1189 -2.3995  0.3397
11944TIP3   OH257246   0.924   1.900  12.102  0.4766 -0.4479  0.1497
11944TIP3    H157247   0.879   1.816  12.113  0.2120 -0.4861 -1.0907
11944TIP3    H257248   1.012   1.885  12.136  0.1764 -0.9690  0.7243
11945TIP3   OH257249   6.123   4.919  16.206  0.0597  0.1565 -0.3463
11945TIP3    H157250   6.067   4.966  16.268 -0.9935 -1.3666 -0.0873
11945TIP3    H257251   6.203   4.971  16.202 -0.8112  1.6275  0.3757
11946TIP3   OH257252   3.816   6.654  11.699  0.1191  0.3761 -0.4740
11946TIP3    H157253   3.832   6.677  11.790 -1.7634 -0.9042  0.2257
11946TIP3    H257254   3.899   6.616  11.669  0.6318  0.4216  0.8223
11947TIP3   OH257255   3.138   5.849  13.500 -1.0776 -0.1070  0.1323
11947TIP3    H157256   3.180   5.866  13.416 -0.5884  1.8393  0.7069
11947TIP3    H257257   3.080   5.924  13.513 -2.1237 -1.0224  0.9565
11948TIP3   OH257258   2.667   2.971  11.204  0.3316 -0.3238 -0.1780
11948TIP3    H157259   2.585   2.966  11.155  0.6385  0.3036 -0.7737
11948TIP3    H257260   2.640   2.976  11.296 -0.2804 -0.4835 -0.3439
11949TIP3   OH257261   0.103   5.553   0.918  0.0164  0.3990 -0.2621
11949TIP3    H157262   0.142   5.629   0.875  0.0394  0.7368  0.3395
11949TIP3    H257263   0.021   5.586   0.956  0.9387  0.6038  1.6248
11950TIP3   OH257264   3.324   1.119  15.993 -0.0355 -0.4586  0.3267
11950TIP3    H157265   3.247   1.086  15.947 -0.2019  1.9996 -1.3293
11950TIP3    H257266   3.398   1.077  15.949 -0.3421 -1.5677  0.8390
11951TIP3   OH257267   1.653   5.483  15.004  0.0895  0.6522  0.2089
11951TIP3    H157268   1.613   5.567  15.025 -1.4735 -0.3233  1.3889
11951TIP3    H257269   1.701   5.459  15.083 -2.6174 -1.2394  1.4659
11952TIP3   OH257270   4.104   1.531   4.794  0.2807  0.1590  0.6127
11952TIP3    H157271   4.011   1.532   4.769  0.6792 -1.4533 -1.1944
11952TIP3    H257272   4.131   1.623   4.788 -0.7088  0.3922 -0.9749
11953TIP3   OH257273   3.143   0.960   3.820  0.1009  0.2580 -0.1185
11953TIP3    H157274   3.139   0.992   3.730  0.5120 -0.5816 -0.4486
11953TIP3    H257275   3.056   0.924   3.837  0.3665 -0.6288 -0.5912
11954TIP3   OH257276   0.643   6.065  14.120 -0.1296 -0.0872  0.1105
11954TIP3    H157277   0.571   6.019  14.163 -0.6114 -0.1872 -0.7785
11954TIP3    H257278   0.611   6.155  14.110  0.3897  0.1948  0.8769
11955TIP3   OH257279   6.127   1.621  16.376  0.0426 -0.0344  0.0235
11955TIP3    H157280   6.089   1.606  16.290  0.1667 -0.3866  0.0284
11955TIP3    H257281   6.101   1.545  16.428 -0.7674  0.5983  0.5602
11956TIP3   OH257282   1.572   0.328  13.477  0.0350 -0.4908 -0.5372
11956TIP3    H157283   1.584   0.254  13.537  0.9789  0.4359  0.4736
11956TIP3    H257284   1.598   0.294  13.391 -1.1411 -1.7849 -0.4095
11957TIP3   OH257285   1.640   2.899  12.877  0.2576  0.0837 -0.1643
11957TIP3    H157286   1.638   2.944  12.792 -0.3433  3.6217  1.5284
11957TIP3    H257287   1.560   2.847  12.878  1.0805 -1.3834 -2.3197
11958TIP3   OH257288   0.796   2.401   5.365  0.3618  0.0712  0.5050
11958TIP3    H157289   0.835   2.317   5.339  1.5555  0.7128  0.1901
11958TIP3    H257290   0.870   2.455   5.391 -0.5290  0.4398  2.4794
11959TIP3   OH257291   2.273   4.534   2.405  0.8556 -0.6403 -0.5411
11959TIP3    H157292   2.250   4.582   2.325 -0.5562  0.4179  0.4557
11959TIP3    H257293   2.317   4.599   2.460  0.3311 -0.9143  0.2100
11960TIP3   OH257294   0.995   4.898   2.488 -0.1476 -0.0017 -0.2632
11960TIP3    H157295   1.030   4.979   2.525  1.3443 -0.2006 -1.1299
11960TIP3    H257296   0.944   4.926   2.412  0.6930  0.1209 -0.7961
11961TIP3   OH257297   3.145   3.198   1.198  0.1732  0.4038 -1.2203
11961TIP3    H157298   3.096   3.187   1.116 -0.2365 -0.5844 -0.8488
11961TIP3    H257299   3.221   3.141   1.188 -0.0043  0.0941 -0.8128
11962TIP3   OH257300   4.678   0.488   0.294  0.3518  0.0994 -0.4766
11962TIP3    H157301   4.698   0.485   0.388  0.3089 -0.0455 -0.4721
11962TIP3    H257302   4.685   0.398   0.265  0.0882  0.1026 -0.5537
11963TIP3   OH257303   6.132   0.789  11.125 -0.6703  0.2058 -0.2409
11963TIP3    H157304   6.063   0.850  11.099 -2.9821 -2.0682  0.1627
11963TIP3    H257305   6.140   0.728  11.051  1.3375  0.7049 -0.4962
11964TIP3   OH257306   6.047   2.390   0.258 -0.0808  0.2769 -0.3522
11964TIP3    H157307   6.033   2.347   0.342  1.6627  1.6410  0.7258
11964TIP3    H257308   6.075   2.320   0.199  1.6090 -0.2941  1.0391
11965TIP3   OH257309   5.384   2.261  17.259 -0.3174  0.1894  0.2204
11965TIP3    H157310   5.477   2.252  17.280 -0.5284 -1.8287  0.4914
11965TIP3    H257311   5.364   2.183  17.206 -1.9748  0.2883  0.6495
11966TIP3   OH257312   0.234   4.506   1.432  0.1309 -0.2133 -0.6643
11966TIP3    H157313   0.319   4.469   1.459  0.2281  0.1062 -0.5299
11966TIP3    H257314   0.248   4.601   1.433  0.4907 -0.1779 -2.9797
11967TIP3   OH257315   5.890   3.837  13.289 -0.4021  0.4869  0.1281
11967TIP3    H157316   5.829   3.878  13.228  1.2863  4.1455  0.6011
11967TIP3    H257317   5.836   3.817  13.366 -1.7532 -0.3412 -0.9974
11968TIP3   OH257318   0.464   2.335   2.521 -0.3422  0.0092 -0.1578
11968TIP3    H157319   0.542   2.304   2.477  0.1538  0.2700  0.5225
11968TIP3    H257320   0.489   2.419   2.559 -0.1770 -0.9971  2.1374
11969TIP3   OH257321   0.136   1.561   6.542 -0.0681  0.4156  0.3215
11969TIP3    H157322   0.069   1.535   6.479 -0.3680  0.9916  0.3977
11969TIP3    H257323   0.135   1.491   6.607 -0.7826  0.5360  0.4560
11970TIP3   OH257324   1.318   5.316   0.572 -0.2629 -0.4974  0.2758
11970TIP3    H157325   1.275   5.375   0.511 -0.0543 -0.8028 -0.1724
11970TIP3    H257326   1.390   5.367   0.608 -1.2441  0.1653  1.3686
11971TIP3   OH257327   3.743   3.555  12.258 -0.5094 -0.2896 -0.1845
11971TIP3    H157328   3.778   3.513  12.336 -0.0943 -0.0081 -0.2154
11971TIP3    H257329   3.812   3.545  12.192 -0.8079 -0.4205 -0.4816
11972TIP3   OH257330   1.614   4.795   0.774  0.4153 -0.0497  0.1485
11972TIP3    H157331   1.539   4.800   0.833  0.0171 -0.0780 -0.3493
11972TIP3    H257332   1.575   4.791   0.686  0.9863 -0.5122 -0.0863
11973TIP3   OH257333   6.081   1.989  14.582  0.1788 -0.0968  0.2753
11973TIP3    H157334   6.048   2.078  14.597  0.1357 -0.0096 -0.3150
11973TIP3    H257335   6.009   1.944  14.539  1.2224  0.4657 -2.2198
11974TIP3   OH257336   0.430   2.418   5.191 -0.3019 -0.6749 -0.6463
11974TIP3    H157337   0.413   2.361   5.266 -1.0262 -1.0162 -1.0674
11974TIP3    H257338   0.464   2.359   5.123 -0.7464 -0.5535 -0.9748
11975TIP3   OH257339   6.680   5.124   0.445  0.0706  0.5771  0.2235
11975TIP3    H157340   6.763   5.160   0.416  0.8548 -1.7064 -0.5850
11975TIP3    H257341   6.623   5.128   0.368  0.3502 -0.3562 -0.0503
11976TIP3   OH257342   5.598   5.249  10.853 -1.1427  0.4806  0.2374
11976TIP3    H157343   5.546   5.195  10.794 -0.9513 -0.8570  1.2440
11976TIP3    H257344   5.554   5.243  10.938  1.7736 -2.7113  1.7828
11977TIP3   OH257345   0.646   4.506   5.474  0.4902 -0.3938 -0.3510
11977TIP3    H157346   0.661   4.507   5.379 -0.5853  0.6496 -0.5328
11977TIP3    H257347   0.733   4.493   5.511  0.9528 -0.6589 -1.4811
11978TIP3   OH257348   4.206   0.168  15.459 -0.1192 -0.5888 -0.6640
11978TIP3    H157349   4.241   0.242  15.510  0.6198 -1.3351 -0.0630
11978TIP3    H257350   4.143   0.209  15.399 -1.3452  0.2987  1.0994
11979TIP3   OH257351   6.069   3.466   0.217 -0.2902  0.0570 -0.2224
11979TIP3    H157352   6.036   3.391   0.266 -0.6103  0.8907  0.8665
11979TIP3    H257353   6.070   3.437   0.126  1.1313 -1.8196  0.3302
11980TIP3   OH257354   2.087   0.710  14.059  0.6946  0.0518  0.0486
11980TIP3    H157355   2.136   0.675  13.984 -0.6416 -0.2093 -0.7476
11980TIP3    H257356   2.129   0.671  14.135  0.2240 -2.1414 -0.7339
11981TIP3   OH257357   5.989   6.091  12.513 -0.2635 -0.0781  0.5839
11981TIP3    H157358   5.919   6.031  12.538 -0.4225 -0.1057  0.0714
11981TIP3    H257359   5.983   6.098  12.418  0.2339  0.1582  0.5637
11982TIP3   OH257360   4.543   2.175   3.633  0.4524 -0.1799  0.5406
11982TIP3    H157361   4.594   2.134   3.563 -0.5116 -1.5236  0.5740
11982TIP3    H257362   4.505   2.101   3.680  0.1838  0.7385  1.8013
11983TIP3   OH257363   2.801   1.025   0.162  0.1596 -0.1756  0.4706
11983TIP3    H157364   2.816   1.083   0.237 -0.2604  0.6526 -0.0698
11983TIP3    H257365   2.831   0.939   0.192 -0.9027 -0.0764  1.9155
11984TIP3   OH257366   3.807   2.220  13.637 -0.3126 -0.3449 -0.4327
11984TIP3    H157367   3.860   2.254  13.565 -0.3495  0.9040  0.1022
11984TIP3    H257368   3.838   2.268  13.714 -1.4241 -0.4390  0.0888
11985TIP3   OH257369   2.958   0.557   2.413 -0.0929  1.6387 -0.3146
11985TIP3    H157370   2.991   0.639   2.450 -0.9822  1.1174  1.7820
11985TIP3    H257371   3.015   0.489   2.449 -0.0610  1.2201 -1.1256
11986TIP3   OH257372   5.822   2.097   4.174 -0.0425 -0.0755  0.0087
11986TIP3    H157373   5.888   2.047   4.126 -0.5281 -1.6670  0.8952
11986TIP3    H257374   5.867   2.177   4.201  1.3746 -0.8704  0.1269
11987TIP3   OH257375   1.139   5.978  10.999  0.1224 -0.3040  0.0574
11987TIP3    H157376   1.096   6.040  10.940 -0.3970 -1.1799 -0.5040
11987TIP3    H257377   1.112   6.006  11.086 -0.7864 -0.2259 -0.2340
11988TIP3   OH257378   4.936   2.551   5.573  0.3588 -0.6356  0.2607
11988TIP3    H157379   4.930   2.608   5.496  0.8201 -1.3873 -0.3483
11988TIP3    H257380   5.024   2.514   5.569 -0.2336 -2.0944  0.1195
11989TIP3   OH257381   2.484   2.144  15.390 -0.3855 -0.4526 -0.0916
11989TIP3    H157382   2.536   2.173  15.464 -0.7906  0.7807 -0.2760
11989TIP3    H257383   2.453   2.057  15.415  0.6849 -0.6670  0.5506
11990TIP3   OH257384   6.306   1.261  16.660  0.0192 -0.5010  0.2831
11990TIP3    H157385   6.321   1.223  16.573  0.3070 -2.2206  1.0410
11990TIP3    H257386   6.304   1.185  16.719 -2.3394  0.4384  1.5125
11991TIP3   OH257387   0.646   2.856   2.831 -0.6413 -0.3822 -0.2069
11991TIP3    H157388   0.585   2.900   2.772  1.0640  0.4793 -1.4288
11991TIP3    H257389   0.713   2.922   2.849 -1.2868 -0.4548  3.1015
11992TIP3   OH257390   3.796   6.369   5.940  0.1616  0.5415  0.0984
11992TIP3    H157391   3.845   6.398   5.863 -0.0293 -1.3923 -0.8256
11992TIP3    H257392   3.713   6.416   5.935  0.2393  0.6090 -0.7558
11993TIP3   OH257393   1.709   4.662   3.191  0.5289 -0.7081 -0.4464
11993TIP3    H157394   1.677   4.748   3.162  1.4245 -0.5614 -1.0295
11993TIP3    H257395   1.677   4.654   3.281 -1.0858 -0.5507 -0.9751
11994TIP3   OH257396   4.972   5.017   6.854  0.2143  0.0171 -0.4780
11994TIP3    H157397   5.024   5.026   6.934 -0.4553 -0.2252 -0.0138
11994TIP3    H257398   5.011   4.942   6.809  1.8149  1.2913 -1.3301
11995TIP3   OH257399   0.224   2.072  12.434  0.4366 -0.1240 -0.0815
11995TIP3    H157400   0.169   2.145  12.406  0.3928  0.7903  2.1745
11995TIP3    H257401   0.308   2.087  12.391  0.2501  0.9661 -0.0863
11996TIP3   OH257402   3.745   1.341  16.582 -0.7200 -0.3217 -0.3393
11996TIP3    H157403   3.799   1.372  16.509 -1.5580  0.0678 -0.8170
11996TIP3    H257404   3.661   1.319  16.541 -1.2291 -0.0119  0.5230
11997TIP3   OH257405   1.341   5.166   4.039  0.2292  0.1410  0.4900
11997TIP3    H157406   1.356   5.130   4.127 -0.4541  0.5242  0.7716
11997TIP3    H257407   1.246   5.182   4.036  0.1986 -0.2024 -0.4480
11998TIP3   OH257408   5.274   1.619   4.219 -0.4286 -0.1828  0.1939
11998TIP3    H157409   5.280   1.574   4.135  1.0587  0.9049 -0.3232
11998TIP3    H257410   5.193   1.670   4.214 -0.9057 -0.9678 -0.1396
11999TIP3   OH257411   4.055   6.293  16.567  0.2863  1.1227 -0.5202
11999TIP3    H157412   3.969   6.253  16.558  1.6012 -1.7470 -1.6145
11999TIP3    H257413   4.043   6.383  16.538 -2.5349  1.1527  0.4301
12000TIP3   OH257414   0.102   3.887  13.467  0.3002  0.5897  0.2271
12000TIP3    H157415   0.135   3.822  13.404  0.2844 -0.7581  1.5564
12000TIP3    H257416   0.011   3.901  13.441  0.4414  0.4435 -0.3633
12001TIP3   OH257417   0.399   3.029   2.860  0.1684 -0.9418  0.1790
12001TIP3    H157418   0.351   2.947   2.846 -0.9989 -0.0828 -0.9932
12001TIP3    H257419   0.431   3.053   2.773 -0.5493  0.4735  0.2837
12002TIP3   OH257420   0.230   3.955   0.622  0.4799  0.0615  0.0567
12002TIP3    H157421   0.162   3.937   0.687 -1.0418  1.0709 -1.1846
12002TIP3    H257422   0.192   3.930   0.538  0.2724  3.6675 -1.0915
12003TIP3   OH257423   5.958   3.318  12.091  0.1679  0.1056 -0.2407
12003TIP3    H157424   5.993   3.293  12.005  0.8089  0.9685 -0.2433
12003TIP3    H257425   5.888   3.254  12.108 -0.3333  0.2448 -1.6490
12004TIP3   OH257426   4.773   2.254  16.299  0.2405  0.3992  0.4458
12004TIP3    H157427   4.849   2.310  16.318  0.5572  0.1708 -0.1038
12004TIP3    H257428   4.812   2.171  16.269 -0.2035 -0.4639  2.1378
12005TIP3   OH257429   4.771   5.865   2.913 -0.2137  0.0531  0.3899
12005TIP3    H157430   4.751   5.884   2.822 -1.0805 -1.3685  0.2657
12005TIP3    H257431   4.847   5.807   2.910  0.8930  1.4353  0.6706
12006TIP3   OH257432   3.328   2.607  13.185  0.1316 -0.2266 -0.0032
12006TIP3    H157433   3.330   2.649  13.271  1.1156 -1.9214  0.8568
12006TIP3    H257434   3.254   2.648  13.140  1.1748  2.5656  0.6232
12007TIP3   OH257435   3.420   4.226   4.665  0.0098  0.5356  0.1833
12007TIP3    H157436   3.345   4.271   4.627  0.0117  1.2744  1.0293
12007TIP3    H257437   3.387   4.139   4.689  0.1280 -0.1670 -1.9187
12008TIP3   OH257438   5.286   0.258   4.565 -0.2326 -0.2638 -0.1917
12008TIP3    H157439   5.229   0.191   4.526 -1.2239 -0.6245  1.7900
12008TIP3    H257440   5.325   0.215   4.641  0.3663  0.9255  0.1937
12009TIP3   OH257441   2.099   2.451  15.914  0.2757 -0.2526 -0.1806
12009TIP3    H157442   2.160   2.379  15.928  1.3448  1.0255  2.5420
12009TIP3    H257443   2.060   2.467  16.000  1.4011  3.4491 -0.1602
12010TIP3   OH257444   0.922   2.577   2.319  0.1195  0.0956 -0.8135
12010TIP3    H157445   0.937   2.607   2.230  0.5025 -0.5209 -0.9646
12010TIP3    H257446   0.883   2.652   2.364 -1.6375 -0.0885 -1.9206
12011TIP3   OH257447   5.524   1.881  11.767  0.2011  0.3844  0.2250
12011TIP3    H157448   5.604   1.845  11.728  0.9149  0.2787  1.7075
12011TIP3    H257449   5.476   1.919  11.693  0.9150 -0.8391 -0.9154
12012TIP3   OH257450   3.422   3.852  17.246  0.0005 -0.3942  0.7882
12012TIP3    H157451   3.341   3.802  17.238 -0.7718  1.0701 -1.6570
12012TIP3    H257452   3.481   3.813  17.182  0.3109  0.1934  0.7114
12013TIP3   OH257453   4.745   4.564   2.153 -0.8101 -0.1978 -0.3245
12013TIP3    H157454   4.734   4.613   2.234  0.8580 -2.2984  1.2742
12013TIP3    H257455   4.839   4.546   2.147 -1.1101 -1.5843 -1.7916
12014TIP3   OH257456   3.686   0.635  14.407  0.2280  0.2965  0.3600
12014TIP3    H157457   3.698   0.559  14.464 -0.6911  0.0878  0.2886
12014TIP3    H257458   3.763   0.690  14.423  0.4763 -0.2434  1.0431
12015TIP3   OH257459   4.574   6.714   0.310  0.1820  0.2377 -0.5539
12015TIP3    H157460   4.499   6.734   0.366  1.8906  0.8814  1.5925
12015TIP3    H257461   4.616   6.639   0.351  0.0421 -0.9902 -2.4936
12016TIP3   OH257462   2.189   3.756  14.412  0.2697  0.1952 -0.1705
12016TIP3    H157463   2.278   3.781  14.388  0.1125  0.9863  0.0235
12016TIP3    H257464   2.163   3.822  14.477 -1.0531  0.9792 -1.4377
12017TIP3   OH257465   2.703   6.315  15.573  0.1675 -0.4960  0.0049
12017TIP3    H157466   2.724   6.404  15.600 -1.5948  0.0809 -0.4319
12017TIP3    H257467   2.643   6.325  15.499  1.7259 -2.0502 -1.5796
12018TIP3   OH257468   0.733   0.158  16.221  0.0205  0.0170  0.0807
12018TIP3    H157469   0.659   0.098  16.217 -0.6199  0.8081 -0.2769
12018TIP3    H257470   0.756   0.173  16.129  0.9859 -0.6564  0.2049
12019TIP3   OH257471   3.833   5.716  13.676  0.4601 -0.2962 -0.0684
12019TIP3    H157472   3.824   5.789  13.737 -0.1309 -0.2383 -0.2109
12019TIP3    H257473   3.805   5.640  13.726  1.8034 -0.5576  0.3169
12020TIP3   OH257474   3.986   2.301   2.863 -0.0462 -0.0855 -0.7654
12020TIP3    H157475   3.991   2.256   2.948 -1.2954 -1.3230 -1.2949
12020TIP3    H257476   3.948   2.236   2.804  2.0022  0.2905 -2.6374
12021TIP3   OH257477   2.674   6.438   4.675  0.0561 -0.3773 -0.0679
12021TIP3    H157478   2.630   6.521   4.693 -0.1547 -0.3114 -0.8350
12021TIP3    H257479   2.740   6.430   4.743  0.4165  0.6732 -0.2786
12022TIP3   OH257480   0.954   1.798  13.304 -0.2258 -0.2233  0.0813
12022TIP3    H157481   1.019   1.753  13.358  0.9405  0.5894 -0.5748
12022TIP3    H257482   1.006   1.860  13.252 -1.1841 -1.4388 -2.4754
12023TIP3   OH257483   5.862   4.403  13.601  0.1757 -0.0085  0.0800
12023TIP3    H157484   5.794   4.442  13.548 -0.5607  1.6627  2.1400
12023TIP3    H257485   5.935   4.388  13.540 -1.3341 -0.1589 -1.7746
12024TIP3   OH257486   0.617   1.553   0.033  0.0362 -0.1929 -0.3373
12024TIP3    H157487   0.600   1.635  -0.015  1.6104 -0.4092 -1.3173
12024TIP3    H257488   0.712   1.546   0.036 -0.0592 -1.3645  0.8644
12025TIP3   OH257489   0.494   4.172   5.554 -0.1369 -0.0798  0.7824
12025TIP3    H157490   0.579   4.196   5.592  0.3732 -0.0667 -0.3253
12025TIP3    H257491   0.506   4.183   5.459 -1.4816  0.2556  0.6286
12026TIP3   OH257492   5.423   2.632  11.584  0.5794 -0.7275 -0.4006
12026TIP3    H157493   5.352   2.635  11.521  0.8096 -0.2075 -0.6440
12026TIP3    H257494   5.503   2.625  11.531  0.8071  0.2162 -0.2005
12027TIP3   OH257495   3.742   0.762   0.766  0.0442  0.8217 -0.3284
12027TIP3    H157496   3.774   0.788   0.853  0.2915  2.0405 -0.7790
12027TIP3    H257497   3.819   0.768   0.710 -0.2482  0.5710 -0.7564
12028TIP3   OH257498   2.349   3.658  17.298 -0.3607 -0.0236  0.4684
12028TIP3    H157499   2.362   3.564  17.309  0.1498  0.0313  0.3911
12028TIP3    H257500   2.375   3.675  17.207 -1.5923  0.0088  0.1039
12029TIP3   OH257501   3.390   3.244  12.519 -0.1354 -0.2715  0.7426
12029TIP3    H157502   3.353   3.296  12.448  1.6052  1.4527  1.0296
12029TIP3    H257503   3.428   3.308  12.579  2.8340 -1.8122  0.7196
12030TIP3   OH257504   0.726   4.008  12.952 -0.5821  0.4733 -0.3966
12030TIP3    H157505   0.646   3.961  12.929 -0.5152  1.1600 -2.1997
12030TIP3    H257506   0.781   4.003  12.873  0.8858  0.5928  0.5683
12031TIP3   OH257507   3.783   4.903   4.788  0.4449 -0.7415 -0.0162
12031TIP3    H157508   3.848   4.833   4.778  0.0489 -0.9198 -1.4906
12031TIP3    H257509   3.700   4.857   4.800  0.3200 -0.5087  0.0148
12032TIP3   OH257510   2.103   2.897  13.045  0.0205  0.2123 -0.0340
12032TIP3    H157511   2.129   2.935  12.961 -0.9629 -0.1528 -0.5171
12032TIP3    H257512   2.034   2.834  13.023 -0.4050  0.2633  1.0719
12033TIP3   OH257513   4.690   2.007   6.415  0.2547  0.3307  0.2424
12033TIP3    H157514   4.764   1.982   6.470  0.3909  2.0240  0.8929
12033TIP3    H257515   4.634   1.930   6.413  0.7886 -0.1388  1.8550
12034TIP3   OH257516   0.965   1.274  10.993 -0.1945  0.2243 -0.1681
12034TIP3    H157517   0.908   1.217  11.045 -1.9375  0.7849 -1.3755
12034TIP3    H257518   0.910   1.303  10.921  1.3116  1.7190 -0.7716
12035TIP3   OH257519   0.956   4.211   3.983  0.0748  0.7632  0.1142
12035TIP3    H157520   1.031   4.160   4.015 -0.5935  0.4190  1.1618
12035TIP3    H257521   0.908   4.150   3.926 -0.5009  0.3333  1.0438
12036TIP3   OH257522   3.951   1.910  16.101  0.4975 -1.0512 -0.3093
12036TIP3    H157523   3.983   1.834  16.051  0.9634 -0.0846 -1.5254
12036TIP3    H257524   4.031   1.954  16.130  0.2558 -0.1769 -0.9420
12037TIP3   OH257525   1.244   1.327  13.246 -0.5763 -0.3172 -0.2806
12037TIP3    H157526   1.323   1.305  13.294 -0.2060 -0.9235 -1.1447
12037TIP3    H257527   1.270   1.327  13.154 -1.5388 -0.3759 -0.5715
12038TIP3   OH257528   3.094   1.206  11.010  0.1024 -0.1661 -0.5646
12038TIP3    H157529   3.079   1.278  10.949  0.5306 -0.4767 -1.0418
12038TIP3    H257530   3.042   1.133  10.976  1.6120 -0.8470 -1.5029
12039TIP3   OH257531   5.905   3.138  15.666  0.1811 -0.0847  0.3373
12039TIP3    H157532   5.833   3.119  15.725  0.9559 -0.5929  1.1494
12039TIP3    H257533   5.964   3.063  15.675  2.0001  1.3982  1.5362
12040TIP3   OH257534   0.133   6.699   3.231 -0.3263 -0.0482 -0.3481
12040TIP3    H157535   0.149   6.608   3.208 -0.8138 -0.0915 -0.5345
12040TIP3    H257536   0.217   6.731   3.264  0.1745 -0.2341 -1.3833
12041TIP3   OH257537   5.842   2.743   3.549  0.7202 -0.2241 -0.3226
12041TIP3    H157538   5.854   2.652   3.574  0.9413 -0.1175 -0.0221
12041TIP3    H257539   5.749   2.760   3.562  0.4745 -0.6952 -1.3832
12042TIP3   OH257540   3.890   3.994  11.960  0.0729  0.3908  0.1493
12042TIP3    H157541   3.845   4.054  12.019 -2.0441  1.1196 -2.0019
12042TIP3    H257542   3.926   4.050  11.891 -0.3785 -0.6039 -0.9459
12043TIP3   OH257543   6.744   5.321   2.915  0.0630  0.5240 -0.0010
12043TIP3    H157544   6.681   5.255   2.942  0.8474  1.0549  3.5481
12043TIP3    H257545   6.829   5.285   2.941  0.8569  1.4870 -1.1569
12044TIP3   OH257546   1.961   3.395   5.643  0.2319  0.1222  0.2049
12044TIP3    H157547   1.938   3.334   5.713 -0.3229  1.3275  1.0974
12044TIP3    H257548   1.913   3.475   5.663 -0.0913  0.4493 -1.6582
12045TIP3   OH257549   2.956   2.092  14.275 -0.1200  0.2032  0.1883
12045TIP3    H157550   2.863   2.087  14.298 -1.3180  1.7990 -3.5798
12045TIP3    H257551   2.976   2.185  14.277  0.9234  0.0104 -0.5471
12046TIP3   OH257552   0.207   0.804   5.640 -0.1371  0.2165 -0.2924
12046TIP3    H157553   0.221   0.896   5.618  3.7546 -0.0411  0.2827
12046TIP3    H257554   0.227   0.798   5.734  2.3713 -1.4734 -0.8178
12047TIP3   OH257555   2.848   0.599  15.280 -0.0393  0.6064  0.1752
12047TIP3    H157556   2.930   0.590  15.231  0.1712  1.5456  0.3364
12047TIP3    H257557   2.829   0.510  15.310  1.3223  0.4892  0.7686
12048TIP3   OH257558   3.085   4.584   4.220  0.6943 -0.0894  0.1875
12048TIP3    H157559   3.162   4.566   4.273 -0.0798 -0.9784  1.0591
12048TIP3    H257560   3.023   4.515   4.243  0.2318 -0.3786 -1.7165
12049TIP3   OH257561   6.162   3.685  11.174  0.2196 -0.1752 -0.5564
12049TIP3    H157562   6.155   3.701  11.080  0.4413  1.4920 -0.3362
12049TIP3    H257563   6.073   3.696  11.207  0.4240  1.0836 -0.3600
12050TIP3   OH257564   2.724   5.298   6.526  0.0342  0.1487  0.1062
12050TIP3    H157565   2.719   5.246   6.606  1.7327 -0.1361  0.0604
12050TIP3    H257566   2.768   5.379   6.553  2.7251 -0.8766 -0.9165
12051TIP3   OH257567   1.003   2.822  11.392  0.3365 -0.0730  0.8432
12051TIP3    H157568   1.033   2.750  11.448  0.9028  0.2878  1.0081
12051TIP3    H257569   1.030   2.795  11.304 -0.4521 -0.5857  0.7503
12052TIP3   OH257570   0.708   0.366   1.765  0.5765 -0.0262 -0.6637
12052TIP3    H157571   0.723   0.455   1.735 -1.1625  0.2689 -0.7537
12052TIP3    H257572   0.694   0.315   1.685 -0.6638  0.0873 -0.5389
12053TIP3   OH257573   5.826   4.256  14.730 -0.3806 -0.7596  0.0656
12053TIP3    H157574   5.895   4.217  14.676  0.1515  0.6812 -0.3306
12053TIP3    H257575   5.845   4.225  14.819  0.8814 -0.2654 -0.0120
12054TIP3   OH257576   2.545   6.670  12.683 -0.6789 -0.4251 -0.0169
12054TIP3    H157577   2.624   6.713  12.650 -0.5224  0.6433  1.6326
12054TIP3    H257578   2.577   6.588  12.721 -0.3976 -0.1449  0.3609
12055TIP3   OH257579   2.979   6.027   1.284 -0.3953 -0.8784 -0.1171
12055TIP3    H157580   3.009   5.976   1.209  0.6301  0.5994 -0.7641
12055TIP3    H257581   2.924   6.096   1.247 -1.5000 -1.2873  0.7069
12056TIP3   OH257582   4.800   0.803   0.510  0.2923 -0.0932  0.3586
12056TIP3    H157583   4.834   0.797   0.599  1.5177  1.2751  0.0238
12056TIP3    H257584   4.818   0.893   0.483 -0.8075 -0.2408 -0.9862
12057TIP3   OH257585   3.439   6.479   3.133 -0.3692 -0.1114 -1.0676
12057TIP3    H157586   3.368   6.474   3.070 -1.7159 -1.2902  0.4541
12057TIP3    H257587   3.425   6.562   3.179 -0.3629 -0.0326 -1.2067
12058TIP3   OH257588   0.091   2.812  10.642  0.2393  0.3759  0.2473
12058TIP3    H157589   0.181   2.824  10.613  0.7159 -1.1502  0.9713
12058TIP3    H257590   0.063   2.730  10.600 -0.3684  0.1713  1.0235
12059TIP3   OH257591   2.397   6.051  12.575  0.2454  0.3747 -0.3365
12059TIP3    H157592   2.304   6.030  12.578  0.4737 -0.5289  0.7521
12059TIP3    H257593   2.410   6.091  12.489 -0.8791 -0.7598 -1.0557
12060TIP3   OH257594   1.171   4.676   3.315  0.1806  0.2305 -0.3165
12060TIP3    H157595   1.180   4.698   3.223  0.2607  0.6903 -0.2049
12060TIP3    H257596   1.229   4.739   3.360 -1.0241  1.0429  0.1590
12061TIP3   OH257597   3.822   2.283  14.262  0.0502 -0.2359 -0.8784
12061TIP3    H157598   3.878   2.227  14.208  2.4794  0.0917  1.1051
12061TIP3    H257599   3.851   2.265  14.352 -3.7066 -0.7038  0.4293
12062TIP3   OH257600   0.818   2.028  11.788 -0.2382 -0.1269  0.1440
12062TIP3    H157601   0.767   2.001  11.712  0.4601  0.0986 -0.4105
12062TIP3    H257602   0.885   2.086  11.753 -0.3614  0.5803  1.0283
12063TIP3   OH257603   5.262   1.606   0.710  0.0077  0.5017  0.7591
12063TIP3    H157604   5.324   1.674   0.737  1.1233 -0.1578 -0.0631
12063TIP3    H257605   5.278   1.595   0.616  0.0727 -1.1041  0.9325
12064TIP3   OH257606   1.903   2.643  14.782  0.5647 -0.0383  0.4584
12064TIP3    H157607   1.841   2.652  14.855  0.8136  0.4551  0.6090
12064TIP3    H257608   1.856   2.588  14.719  0.1359 -0.0223  0.7527
12065TIP3   OH257609   3.994   3.011  11.571 -0.0053  0.3412  0.8729
12065TIP3    H157610   4.003   2.916  11.583  0.0272  0.4775  2.0785
12065TIP3    H257611   3.907   3.021  11.534  0.3079 -0.2136 -0.0394
12066TIP3   OH257612   4.894   0.052   1.179  0.0977 -0.1886  0.1142
12066TIP3    H157613   4.818   0.004   1.212 -0.6532 -0.2977 -1.6385
12066TIP3    H257614   4.856   0.129   1.136  1.2081  1.4072  1.8634
12067TIP3   OH257615   0.983   2.461  12.088  0.7959 -0.8088  0.1895
12067TIP3    H157616   0.940   2.384  12.050 -2.1618  0.3407  0.9728
12067TIP3    H257617   0.934   2.479  12.167  1.8816  1.4896  0.4064
12068TIP3   OH257618   4.043   6.438   4.274 -0.2409 -0.1505  0.1288
12068TIP3    H157619   4.011   6.520   4.239 -1.9040 -1.0773 -0.6204
12068TIP3    H257620   4.122   6.419   4.223  0.0227  0.8300  0.1466
12069TIP3   OH257621   3.789   5.075   1.643  0.0712  0.2454 -0.1664
12069TIP3    H157622   3.809   5.044   1.555 -1.0340 -0.6552 -0.1279
12069TIP3    H257623   3.873   5.068   1.690  1.1026  2.3897 -1.5589
12070TIP3   OH257624   4.838   1.398   1.636 -0.0147 -0.5514  0.2492
12070TIP3    H157625   4.921   1.353   1.622  0.5259 -0.4068  2.5922
12070TIP3    H257626   4.775   1.327   1.648 -0.0187 -0.6613 -0.3939
12071TIP3   OH257627   1.631   1.724  13.106 -0.2043  0.0675 -0.0306
12071TIP3    H157628   1.548   1.765  13.083  0.4804  1.5332 -0.0055
12071TIP3    H257629   1.681   1.794  13.147  1.7045 -0.2750 -1.6163
12072TIP3   OH257630   6.280   3.025  12.631  0.0555  0.1612 -0.2321
12072TIP3    H157631   6.251   3.068  12.711  1.6869  2.6426 -0.8646
12072TIP3    H257632   6.252   3.083  12.561  1.4345 -0.3276 -1.2235
12073TIP3   OH257633   2.210   4.171  17.190  0.1688 -0.3718  0.2586
12073TIP3    H157634   2.241   4.143  17.276 -1.4830 -3.2886  0.0166
12073TIP3    H257635   2.217   4.093  17.135 -1.4427  0.6317 -1.4859
12074TIP3   OH257636   3.115   3.400  14.794  0.3174 -0.5486  0.1741
12074TIP3    H157637   3.088   3.341  14.864 -1.6687  0.3585  0.2263
12074TIP3    H257638   3.052   3.385  14.724 -0.9470  2.1645  0.5771
12075TIP3   OH257639   2.537   3.051   5.406 -0.0914  0.0770 -0.3355
12075TIP3    H157640   2.623   3.014   5.385 -0.3293 -2.0783  1.9653
12075TIP3    H257641   2.557   3.134   5.449  0.8281 -0.0732 -0.4363
12076TIP3   OH257642   5.435   0.326   5.670  0.5503 -0.2347  0.2604
12076TIP3    H157643   5.411   0.306   5.761 -2.6309  0.1771 -0.3641
12076TIP3    H257644   5.447   0.421   5.669  0.2074 -0.1923  0.1760
12077TIP3   OH257645   0.980   5.922   0.864  0.1343  0.3142  0.2255
12077TIP3    H157646   0.894   5.885   0.841 -0.7561  2.0880  0.5216
12077TIP3    H257647   0.961   5.983   0.936  1.4370  1.7124 -0.5573
12078TIP3   OH257648   5.233   5.833   3.969  0.0710 -0.3117 -0.1686
12078TIP3    H157649   5.294   5.907   3.960 -0.1710 -0.0967 -0.0403
12078TIP3    H257650   5.175   5.858   4.041 -1.0129  0.0832 -1.1489
12079TIP3   OH257651   4.256   6.123   3.371 -0.8217  0.0250 -0.3051
12079TIP3    H157652   4.346   6.097   3.348 -0.2023  0.2878  1.6263
12079TIP3    H257653   4.266   6.178   3.449 -2.6552  0.2529 -0.1874
12080TIP3   OH257654   3.691   5.136  17.279 -0.0666 -0.2108  0.2010
12080TIP3    H157655   3.735   5.142  17.364 -0.9398 -0.6564  0.6997
12080TIP3    H257656   3.694   5.042  17.258 -1.5790 -0.3976  0.6998
12081TIP3   OH257657   5.666   6.469   5.862 -0.6429  0.3306 -0.4224
12081TIP3    H157658   5.683   6.562   5.847  1.2453  0.2965  1.1212
12081TIP3    H257659   5.752   6.431   5.878 -1.0161 -2.2862 -3.6854
12082TIP3   OH257660   5.925   2.231  14.608 -0.0858  0.7164 -0.1539
12082TIP3    H157661   5.889   2.316  14.636 -0.4053 -0.0346  1.8621
12082TIP3    H257662   5.997   2.254  14.549 -0.1004  2.3949  0.4262
12083TIP3   OH257663   5.943   1.646  12.913 -0.2521  0.0693  0.1112
12083TIP3    H157664   5.855   1.628  12.944  0.2522 -0.0632  1.5536
12083TIP3    H257665   5.978   1.560  12.889 -0.9747  0.2726 -1.8837
12084TIP3   OH257666   3.371   0.998   3.403  0.2226 -0.1538 -0.2442
12084TIP3    H157667   3.282   1.010   3.436  0.4324 -2.3793  1.2776
12084TIP3    H257668   3.366   1.028   3.312 -1.1918  2.9885  0.7042
12085TIP3   OH257669   1.275   4.947  15.857  0.0280  0.2681 -0.1737
12085TIP3    H157670   1.343   5.001  15.816 -0.3259  0.4640 -0.5123
12085TIP3    H257671   1.196   5.002  15.854 -0.1118  0.1012  0.3509
12086TIP3   OH257672   2.364   4.371  15.087  0.0277  0.2976  0.0298
12086TIP3    H157673   2.389   4.452  15.132  2.0653  0.5481 -1.3629
12086TIP3    H257674   2.429   4.307  15.116 -0.5351 -0.3640 -0.1649
12087TIP3   OH257675   1.054   0.689   0.095 -0.0019 -0.2186 -0.2428
12087TIP3    H157676   0.986   0.683   0.028 -0.3993  0.4586  0.0873
12087TIP3    H257677   1.102   0.606   0.088  0.4225  0.1323 -1.8421
12088TIP3   OH257678   3.132   0.584   0.400 -0.3233  0.4484  0.8698
12088TIP3    H157679   3.081   0.595   0.320 -0.4976  1.2448  1.0835
12088TIP3    H257680   3.126   0.490   0.420 -0.1094  0.2136 -0.1562
12089TIP3   OH257681   1.134   1.739  15.267 -0.4248 -0.1099 -0.3173
12089TIP3    H157682   1.187   1.789  15.329  1.1375 -1.2671 -0.6596
12089TIP3    H257683   1.064   1.800  15.241 -0.2205  0.9157  1.3720
12090TIP3   OH257684   2.876   3.011   3.958  0.2320  0.0216  0.2069
12090TIP3    H157685   2.922   2.970   4.032  1.0244 -0.2899 -0.4502
12090TIP3    H257686   2.853   2.938   3.901 -0.6209  0.2346  0.2701
12091TIP3   OH257687   5.518   0.007   5.654 -0.5124  0.2665 -0.2401
12091TIP3    H157688   5.556   0.027   5.740 -1.9280 -0.3971  0.5652
12091TIP3    H257689   5.534   0.086   5.602  1.0594  0.3858  0.3533
12092TIP3   OH257690   0.075   2.399  16.985 -0.3324 -0.0405 -0.3782
12092TIP3    H157691   0.102   2.307  16.985 -0.1284 -0.0366  1.8259
12092TIP3    H257692   0.002   2.402  17.046 -1.4167  1.0185 -1.6698
12093TIP3   OH257693   0.100   5.135  11.367  0.0485 -0.1938 -0.3387
12093TIP3    H157694   0.168   5.108  11.306 -0.6244  0.6265 -1.5083
12093TIP3    H257695   0.032   5.173  11.311 -0.8008  0.1637  0.8934
12094TIP3   OH257696   3.116   5.005  14.271  0.0095 -0.3497 -1.1331
12094TIP3    H157697   3.165   4.924  14.287 -0.9586 -0.9039 -0.9142
12094TIP3    H257698   3.180   5.064  14.232  0.7430 -1.2037 -1.2532
12095TIP3   OH257699   4.177   2.830  10.810 -0.0946  0.0835 -0.1158
12095TIP3    H157700   4.181   2.735  10.819  1.3102  0.3048  2.7848
12095TIP3    H257701   4.267   2.856  10.790 -0.0985  0.8622  0.7653
12096TIP3   OH257702   3.488   2.936  15.266  0.0561 -0.4670  0.1732
12096TIP3    H157703   3.428   2.924  15.193 -0.7255 -0.2859  0.7735
12096TIP3    H257704   3.543   2.858  15.266 -0.7594 -1.0565  0.1418
12097TIP3   OH257705   1.244   6.552   5.227  0.2842 -0.7967 -0.9016
12097TIP3    H157706   1.293   6.628   5.258 -1.3387 -0.0668 -0.0021
12097TIP3    H257707   1.219   6.573   5.137  1.4190 -1.0979 -1.3046
12098TIP3   OH257708   0.756   4.484  15.670  0.1628 -0.3111  0.0113
12098TIP3    H157709   0.812   4.408  15.651  0.0672 -0.2807 -0.3953
12098TIP3    H257710   0.795   4.523  15.748 -0.0822 -1.0681  0.5223
12099TIP3   OH257711   1.695   2.767   1.138  0.0106 -0.0248  0.1057
12099TIP3    H157712   1.683   2.672   1.130  3.0655 -0.4162 -1.3591
12099TIP3    H257713   1.711   2.781   1.231 -1.6641 -0.7156  0.5383
12100TIP3   OH257714   3.928   5.952   2.870  0.0646 -0.0126  0.3266
12100TIP3    H157715   3.869   5.884   2.901 -0.6783  0.9537  1.0990
12100TIP3    H257716   4.014   5.927   2.905 -0.2784 -0.3332  0.9594
12101TIP3   OH257717   0.876   1.405  11.436 -0.0156  0.0397  0.3566
12101TIP3    H157718   0.851   1.323  11.479  1.8158 -0.1894  1.0677
12101TIP3    H257719   0.965   1.421  11.465  0.9290  0.4908 -2.4861
12102TIP3   OH257720   5.290   4.144   2.604  0.1877  0.4708  0.2383
12102TIP3    H157721   5.208   4.190   2.586 -0.4910 -0.2880  1.2824
12102TIP3    H257722   5.347   4.210   2.645  0.5007  1.2737 -1.4210
12103TIP3   OH257723   1.008   5.080   3.201 -0.5040 -0.5660  0.0200
12103TIP3    H157724   0.978   4.989   3.208 -0.7894 -0.4836 -0.1068
12103TIP3    H257725   0.958   5.116   3.127  0.5870 -0.6863 -0.7999
12104TIP3   OH257726   0.169   2.333   2.501 -0.0368  0.1243 -0.2858
12104TIP3    H157727   0.248   2.327   2.555 -0.7180  0.2610  0.7689
12104TIP3    H257728   0.099   2.351   2.564 -0.7157  1.3591 -1.3400
12105TIP3   OH257729   5.466   1.362   3.474  0.1735 -0.3093  0.1811
12105TIP3    H157730   5.562   1.354   3.475  0.1179 -1.1646  1.2235
12105TIP3    H257731   5.438   1.302   3.406  0.3390 -0.8530  0.5823
12106TIP3   OH257732   1.637   4.818  12.213  0.5187 -0.1357  0.2895
12106TIP3    H157733   1.619   4.725  12.226  1.0851 -0.2209  0.5251
12106TIP3    H257734   1.614   4.835  12.122  0.9439 -0.6416  0.0796
12107TIP3   OH257735   2.100   3.086   4.422 -0.2040 -0.2809 -0.1410
12107TIP3    H157736   2.135   3.057   4.338 -0.2148  0.0808 -0.2696
12107TIP3    H257737   2.084   3.005   4.470 -0.2189 -0.4884 -0.4943
12108TIP3   OH257738   1.497   2.566   4.733 -0.3402 -0.7472 -0.4399
12108TIP3    H157739   1.577   2.594   4.778 -0.2212 -1.8940  0.0864
12108TIP3    H257740   1.485   2.631   4.664  0.8093 -0.3194 -0.2611
12109TIP3   OH257741   0.968   1.770  11.631  0.4678 -0.0808 -0.0852
12109TIP3    H157742   0.958   1.759  11.537  0.1931 -1.8667  0.1163
12109TIP3    H257743   1.007   1.688  11.661 -0.4369  0.0166  1.4873
12110TIP3   OH257744   3.385   3.546   1.379  0.4666  0.1434  1.4085
12110TIP3    H157745   3.444   3.475   1.405  0.7899 -1.0078 -1.9300
12110TIP3    H257746   3.443   3.619   1.357  0.5696 -0.3415 -0.0312
12111TIP3   OH257747   1.762   0.598   5.260 -0.3904  0.5217  0.4433
12111TIP3    H157748   1.777   0.555   5.176 -0.4739  1.2383  0.0526
12111TIP3    H257749   1.752   0.526   5.323 -1.3345 -0.0437 -0.3285
12112TIP3   OH257750   1.446   1.936   4.795 -0.8904 -0.6781  0.2442
12112TIP3    H157751   1.514   1.869   4.794 -1.0626 -0.8819  1.1342
12112TIP3    H257752   1.474   2.000   4.729  1.5342  0.5700  2.3071
12113TIP3   OH257753   1.064   5.661  12.615  0.6944 -0.8555  0.3947
12113TIP3    H157754   1.028   5.648  12.527 -0.9494  0.5148  0.8311
12113TIP3    H257755   1.055   5.576  12.658  0.9146 -1.3605 -0.5318
12114TIP3   OH257756   1.190   1.218  14.637  0.5850 -0.3562  0.2868
12114TIP3    H157757   1.098   1.223  14.664  0.7795 -0.5919  1.0198
12114TIP3    H257758   1.235   1.181  14.713  1.1932 -0.8188 -0.2831
12115TIP3   OH257759   1.247   1.299   0.876  0.0895  0.0950 -0.2045
12115TIP3    H157760   1.199   1.218   0.894 -0.5342  0.3133 -0.8591
12115TIP3    H257761   1.300   1.277   0.799 -1.9571  1.0339 -1.9637
12116TIP3   OH257762   6.450   3.878   4.814  0.3730  0.3270 -0.3732
12116TIP3    H157763   6.479   3.806   4.870 -1.6349 -0.6275 -0.4611
12116TIP3    H257764   6.471   3.850   4.725  0.0493  0.0781 -0.3710
12117TIP3   OH257765   3.245   0.636   3.744 -0.1702 -0.6764 -0.0101
12117TIP3    H157766   3.229   0.582   3.822 -0.7836  0.1026  0.4167
12117TIP3    H257767   3.335   0.666   3.754 -0.2753 -0.5041  0.4596
12118TIP3   OH257768   4.702   6.614  11.830 -0.0546  0.2788 -0.1246
12118TIP3    H157769   4.670   6.572  11.910 -0.8908 -0.6936 -0.9435
12118TIP3    H257770   4.651   6.695  11.824 -0.3630  0.1004  0.0526
12119TIP3   OH257771   0.847   0.350   1.348 -0.5501  0.1964 -0.0488
12119TIP3    H157772   0.815   0.432   1.309 -0.2852  0.1714 -0.3143
12119TIP3    H257773   0.886   0.302   1.275 -0.8303 -0.2323  0.0790
12120TIP3   OH257774   2.310   1.669  12.250 -0.1054  0.3008 -0.3457
12120TIP3    H157775   2.242   1.707  12.304 -0.2710 -1.6481  0.9453
12120TIP3    H257776   2.327   1.734  12.182 -1.3472  1.9559  0.8566
12121TIP3   OH257777   2.423   0.861   1.234  1.0503 -0.2256  0.7329
12121TIP3    H157778   2.451   0.794   1.296  1.0815 -0.3877  0.5441
12121TIP3    H257779   2.341   0.894   1.271  0.4838 -1.0929  0.2939
12122TIP3   OH257780   0.257   6.057  13.722  0.0554 -0.3470 -0.5104
12122TIP3    H157781   0.285   6.024  13.808 -0.7339  0.9061  0.2656
12122TIP3    H257782   0.302   6.142  13.714 -0.9068  0.1548 -0.7190
12123TIP3   OH257783   0.294   2.978  12.863 -0.6663  0.1055  0.5530
12123TIP3    H157784   0.199   2.970  12.871 -0.7339  1.6579  2.0788
12123TIP3    H257785   0.326   2.964  12.953  0.3550  1.4530  0.4208
12124TIP3   OH257786   4.173   5.493   4.221 -0.6212 -0.0291  0.1141
12124TIP3    H157787   4.210   5.414   4.261 -0.7615  0.1383  0.5823
12124TIP3    H257788   4.248   5.539   4.185 -0.6692 -1.0336 -1.3688
12125TIP3   OH257789   2.232   2.597   1.425 -0.2882 -0.2720 -0.6698
12125TIP3    H157790   2.231   2.692   1.433 -1.6964 -0.2423 -0.8832
12125TIP3    H257791   2.171   2.579   1.353 -1.1831 -1.4052  0.3386
12126TIP3   OH257792   2.616   4.447   2.780 -0.9611  0.5823 -0.5004
12126TIP3    H157793   2.521   4.450   2.783 -0.9237  0.6142  1.2556
12126TIP3    H257794   2.645   4.515   2.840  0.1886  0.9081 -1.3893
12127TIP3   OH257795   0.590   2.268   6.122  0.5878  0.0506  0.2716
12127TIP3    H157796   0.674   2.312   6.113  1.5312 -1.8964 -1.0236
12127TIP3    H257797   0.528   2.338   6.143  2.1140  1.8682 -1.0187
12128TIP3   OH257798   3.404   1.506  13.392  0.0508 -0.0671 -0.0648
12128TIP3    H157799   3.476   1.566  13.373  0.1279  0.1956  0.9775
12128TIP3    H257800   3.430   1.461  13.472 -1.6439  1.2952  1.3537
12129TIP3   OH257801   2.035   1.911   2.827  0.4545 -0.0116 -0.3236
12129TIP3    H157802   2.021   1.993   2.874  1.7187 -0.3941  0.8064
12129TIP3    H257803   1.970   1.851   2.863 -0.5693  0.5096 -1.2578
12130TIP3   OH257804   2.626   2.248  13.074  0.9566  0.1206 -0.0423
12130TIP3    H157805   2.621   2.341  13.096  0.2206 -0.1097  0.8353
12130TIP3    H257806   2.597   2.243  12.983 -2.0666  0.4366  0.7928
12131TIP3   OH257807   5.531   2.570   1.917  0.2816  0.2466  0.1140
12131TIP3    H157808   5.619   2.606   1.928  0.1947  0.6301 -0.4052
12131TIP3    H257809   5.473   2.637   1.954  0.1790  0.1878  0.0589
12132TIP3   OH257810   5.177   4.533  12.290  0.8060  0.3013 -0.5621
12132TIP3    H157811   5.092   4.502  12.260 -0.3732  0.7011  2.1497
12132TIP3    H257812   5.233   4.455  12.288 -1.0123 -1.2298  2.3056
12133TIP3   OH257813   5.792   3.825   4.907 -0.4307 -0.3150  0.3810
12133TIP3    H157814   5.816   3.916   4.925  0.5585 -0.0231 -2.0875
12133TIP3    H257815   5.713   3.831   4.853 -0.6354 -0.9594  0.5992
12134TIP3   OH257816   3.576   5.326   3.224 -0.4125  0.0447  0.1726
12134TIP3    H157817   3.571   5.244   3.175  0.8545 -1.4685  2.4487
12134TIP3    H257818   3.510   5.317   3.293  0.1333  0.6893  0.7881
12135TIP3   OH257819   2.863   4.153   2.343 -0.5733 -0.2058  0.3954
12135TIP3    H157820   2.791   4.216   2.349  0.5300  1.1826 -0.1991
12135TIP3    H257821   2.930   4.187   2.402  0.5909 -0.0137 -0.9753
12136TIP3   OH257822   2.031   1.237   1.419  0.0872 -0.1254 -0.0293
12136TIP3    H157823   2.099   1.298   1.446 -0.1681  0.2661 -0.2606
12136TIP3    H257824   1.962   1.292   1.382 -1.5025 -0.2730  2.5151
12137TIP3   OH257825   4.776   0.512   1.410 -0.0392 -0.1914  0.0080
12137TIP3    H157826   4.870   0.498   1.394 -0.1183 -0.7411  0.0017
12137TIP3    H257827   4.749   0.436   1.462 -0.8360 -0.8995 -1.3764
12138TIP3   OH257828   1.913   3.090   1.391 -0.3759  0.0116  0.2403
12138TIP3    H157829   1.871   3.120   1.472 -0.7695  0.4499 -0.1208
12138TIP3    H257830   1.841   3.049   1.341  0.1425 -1.6002  0.7352
12139TIP3   OH257831   3.685   2.699  12.229 -0.1651  0.1650  0.5896
12139TIP3    H157832   3.628   2.627  12.203 -0.6558  1.2012 -1.4503
12139TIP3    H257833   3.689   2.695  12.325 -1.4282 -1.5906  0.5946
12140TIP3   OH257834   1.287   1.838   2.869  0.2302  0.4212 -0.3342
12140TIP3    H157835   1.280   1.914   2.927  0.2077  0.3681 -0.2660
12140TIP3    H257836   1.373   1.801   2.889  0.2270  0.4096 -0.3419
12141TIP3   OH257837   1.922   1.752   0.389 -0.5132  0.2719 -0.2142
12141TIP3    H157838   2.012   1.781   0.399 -0.7742  0.4081  2.4008
12141TIP3    H257839   1.882   1.815   0.329  0.6722  1.3002  0.0456
12142TIP3   OH257840   6.698   2.507   5.149  0.2017  0.0621 -0.3178
12142TIP3    H157841   6.776   2.539   5.104  0.6778  0.5805  0.8407
12142TIP3    H257842   6.660   2.444   5.088  0.1838  1.5527 -1.9197
12143TIP3   OH257843   6.509   5.196  16.053  0.4781 -0.2580  0.2706
12143TIP3    H157844   6.494   5.177  15.960 -2.1597 -0.8027  0.7242
12143TIP3    H257845   6.578   5.263  16.053  0.5271 -0.2169 -2.0689
12144TIP3   OH257846   4.281   0.080  13.141  0.2344 -0.4998 -0.5657
12144TIP3    H157847   4.273   0.027  13.062 -0.4421 -0.6991 -0.3650
12144TIP3    H257848   4.192   0.088  13.174  0.5273 -0.5173  0.2462
12145TIP3   OH257849   4.427   5.046  17.178 -0.3443  0.5921  0.3422
12145TIP3    H157850   4.392   5.132  17.197  1.1094  1.2746  0.0879
12145TIP3    H257851   4.503   5.038  17.237 -1.1714 -1.0429  1.2755
12146TIP3   OH257852   3.968   2.647  13.302 -0.1863 -0.2399 -0.1889
12146TIP3    H157853   3.911   2.585  13.256 -0.6106 -0.8657  1.1243
12146TIP3    H257854   3.973   2.613  13.392  1.8502  0.0909 -0.1362
12147TIP3   OH257855   6.263   4.702  11.408 -1.0424  0.6489  0.0950
12147TIP3    H157856   6.247   4.762  11.480  0.6055  0.7683  0.3858
12147TIP3    H257857   6.354   4.676  11.418 -1.0293  0.0093 -1.4572
12148TIP3   OH257858   5.485   6.441  11.858  0.0848 -0.3677  0.4383
12148TIP3    H157859   5.576   6.450  11.887  0.2198 -2.5500  0.8461
12148TIP3    H257860   5.491   6.391  11.776 -0.7532 -0.6144  0.5209
12149TIP3   OH257861   4.030   4.588  14.824  0.2530 -0.1361 -0.1099
12149TIP3    H157862   3.961   4.551  14.879 -0.5722  1.4266 -0.0244
12149TIP3    H257863   4.069   4.513  14.780 -0.6644 -1.1833  0.8002
12150TIP3   OH257864   5.243   5.524   4.883  0.2627  0.4769 -0.5025
12150TIP3    H157865   5.210   5.546   4.971  1.0490  0.7019 -0.2602
12150TIP3    H257866   5.191   5.579   4.824  0.8889  1.6000 -0.0442
12151TIP3   OH257867   6.553   2.157   6.029 -0.0072 -0.2480  0.5110
12151TIP3    H157868   6.537   2.132   6.120  1.0728 -1.3730  0.4268
12151TIP3    H257869   6.644   2.186   6.028  0.4780 -1.6414 -0.4458
12152TIP3   OH257870   4.127   2.938   0.968 -0.3088 -0.0301  0.6419
12152TIP3    H157871   4.128   2.970   1.059 -1.1501  2.5368 -0.1595
12152TIP3    H257872   4.077   3.004   0.920 -2.0064 -2.5138 -1.3045
12153TIP3   OH257873   0.902   1.715  11.901 -0.4424  0.2100 -0.0703
12153TIP3    H157874   0.911   1.800  11.944  0.8302 -0.4435  1.0521
12153TIP3    H257875   0.902   1.735  11.807 -1.4581  1.5254  0.1826
12154TIP3   OH257876   3.707   6.048   6.031  0.2883  0.2160  0.2299
12154TIP3    H157877   3.732   6.108   6.101 -1.8468  1.4077  0.0748
12154TIP3    H257878   3.694   5.964   6.076 -1.8808  1.1365  1.5553
12155TIP3   OH257879   0.977   0.959  15.960 -0.4456 -0.1987 -0.0350
12155TIP3    H157880   1.000   0.891  16.024  2.5680  1.8149  1.2245
12155TIP3    H257881   0.899   1.001  15.997  0.3345 -0.0796  1.5823
12156TIP3   OH257882   0.015   0.295  10.754 -0.3140 -0.1461  0.7035
12156TIP3    H157883   0.021   0.206  10.789 -0.0565  0.3143  1.8997
12156TIP3    H257884  -0.063   0.332  10.797 -0.0443  0.4064  0.7240
12157TIP3   OH257885   4.673   5.403   2.373  0.1978 -0.5739 -0.0058
12157TIP3    H157886   4.697   5.390   2.282  2.3029 -0.7136  0.5194
12157TIP3    H257887   4.701   5.323   2.418 -1.1924 -0.6938  0.7249
12158TIP3   OH257888   2.940   2.094  13.189 -0.2594 -0.6932  0.1582
12158TIP3    H157889   2.895   2.178  13.193  1.9952  0.6779 -1.0338
12158TIP3    H257890   2.966   2.085  13.097  2.0910 -1.2037  0.7911
12159TIP3   OH257891   1.066   2.690  12.393 -0.6042 -0.4527 -0.4305
12159TIP3    H157892   1.062   2.726  12.305  0.8108 -0.0473 -0.3452
12159TIP3    H257893   1.035   2.761  12.449 -0.2797 -0.2662 -0.4885
12160TIP3   OH257894   0.035   3.661  16.342 -0.0671  0.0111  0.1638
12160TIP3    H157895   0.058   3.738  16.291  0.7337 -0.1743  0.2312
12160TIP3    H257896   0.077   3.675  16.427 -1.1403  0.1806  0.6848
12161TIP3   OH257897   1.831   0.705   0.109 -0.4590 -0.4612 -0.1344
12161TIP3    H157898   1.898   0.734   0.046 -1.4341 -0.9761 -1.4677
12161TIP3    H257899   1.799   0.786   0.149  1.4813 -0.2501  1.1479
12162TIP3   OH257900   0.850   4.631   4.003  0.6974  0.0944  0.6400
12162TIP3    H157901   0.812   4.677   3.928  0.1289  0.3780  1.0943
12162TIP3    H257902   0.784   4.568   4.029  1.7042 -1.4187 -0.3352
12163TIP3   OH257903   5.897   1.819  16.256 -0.2261  0.0725  0.1996
12163TIP3    H157904   5.845   1.758  16.203 -0.1771 -0.7117  1.0310
12163TIP3    H257905   5.972   1.841  16.201  0.6402 -1.9448  0.4751
12164TIP3   OH257906   0.515   4.291  14.957  0.1847 -0.2387  0.5582
12164TIP3    H157907   0.421   4.282  14.947 -0.0137  1.0115  1.0337
12164TIP3    H257908   0.544   4.331  14.875  0.4693 -1.5470  0.0014
12165TIP3   OH257909   3.520   0.865  13.491  0.3014 -0.3303 -0.2566
12165TIP3    H157910   3.491   0.928  13.425 -0.4999 -0.3367  0.0877
12165TIP3    H257911   3.542   0.918  13.568  0.1849 -0.4235 -0.1596
12166TIP3   OH257912   5.074   2.593  15.021 -0.2493 -0.1130  1.0366
12166TIP3    H157913   5.070   2.670  14.965  1.4310 -0.7297  0.0030
12166TIP3    H257914   5.107   2.626  15.105 -0.3821  0.4273  0.8797
12167TIP3   OH257915   0.116   1.418  13.502 -0.4715 -0.4709 -0.1264
12167TIP3    H157916   0.145   1.447  13.416  0.2165 -0.0947  0.2290
12167TIP3    H257917   0.021   1.407  13.493 -0.5457  0.5266 -0.6531
12168TIP3   OH257918   2.280   3.935  12.866  0.3486 -0.1725  0.2076
12168TIP3    H157919   2.235   3.851  12.860 -0.5405  0.4070 -2.9571
12168TIP3    H257920   2.370   3.916  12.840  0.0314 -0.1094 -0.9841
12169TIP3   OH257921   5.553   3.529   6.488  0.2860 -0.3618 -0.1052
12169TIP3    H157922   5.475   3.560   6.441  0.7231 -1.3423 -1.5317
12169TIP3    H257923   5.583   3.606   6.537 -0.2488  0.6741 -1.3488
12170TIP3   OH257924   6.382   2.009  11.864  0.0903  0.0775  0.0241
12170TIP3    H157925   6.338   2.067  11.926 -0.1485 -0.7343  0.6356
12170TIP3    H257926   6.348   2.034  11.779 -0.8298  0.1163  0.3923
12171TIP3   OH257927   4.202   5.027  12.649 -0.2552 -0.3128  0.4621
12171TIP3    H157928   4.149   5.082  12.591  0.8212  0.3137  0.0411
12171TIP3    H257929   4.227   4.953  12.594 -1.2546 -0.9685  0.8690
12172TIP3   OH257930   5.771   6.556  14.942  0.4576 -0.1475 -0.3987
12172TIP3    H157931   5.861   6.523  14.951 -0.1746 -2.3619 -1.6859
12172TIP3    H257932   5.744   6.529  14.855 -0.5802  2.8972 -1.1418
12173TIP3   OH257933   3.914   0.587  11.861  0.0217  0.0667 -0.3439
12173TIP3    H157934   3.826   0.551  11.872  1.1765 -2.9577 -0.0623
12173TIP3    H257935   3.915   0.666  11.914 -2.1107 -0.6135  0.8032
12174TIP3   OH257936   0.062   5.301   1.762  0.3395  0.0119 -0.3538
12174TIP3    H157937  -0.031   5.301   1.738 -0.2971  0.0142  1.9200
12174TIP3    H257938   0.094   5.216   1.733 -0.5394 -0.2626 -0.5664
12175TIP3   OH257939   1.766   2.980  16.471  0.2232  0.1897 -0.4298
12175TIP3    H157940   1.855   2.980  16.437 -0.3541 -1.7913 -2.1210
12175TIP3    H257941   1.759   3.063  16.519  3.6253 -0.5092  1.6256
12176TIP3   OH257942   0.258   2.580  14.396 -0.1105 -0.2376  1.1729
12176TIP3    H157943   0.222   2.545  14.478  0.4766 -2.6287  0.4923
12176TIP3    H257944   0.346   2.542  14.390  0.1383  0.4871 -0.2175
12177TIP3   OH257945   3.249   6.218  14.250 -0.2581  0.4369  0.4608
12177TIP3    H157946   3.318   6.224  14.185 -0.4970  0.1933  0.1799
12177TIP3    H257947   3.183   6.282  14.222 -0.3700  0.3182  0.4493
12178TIP3   OH257948   4.083   3.255  11.583 -0.9310  0.3627  0.0491
12178TIP3    H157949   4.135   3.278  11.506 -3.9192  0.0779 -2.2658
12178TIP3    H257950   4.063   3.162  11.572  1.1848 -0.5841  2.9898
12179TIP3   OH257951   5.223   0.788  13.482  0.3826  0.0542  0.2626
12179TIP3    H157952   5.226   0.873  13.526 -0.3609  0.3456 -0.2272
12179TIP3    H257953   5.302   0.785  13.429  0.0553  0.7570 -0.2739
12180TIP3   OH257954   0.561   4.129  11.565  0.7076  1.1380 -0.1319
12180TIP3    H157955   0.565   4.142  11.470  0.1633 -0.0272 -0.3299
12180TIP3    H257956   0.469   4.147  11.587  0.6170  0.5250  0.0186
12181TIP3   OH257957   2.533   0.402  13.547 -0.3848 -0.2720 -0.6799
12181TIP3    H157958   2.489   0.471  13.497  0.4737  0.0377 -1.0272
12181TIP3    H257959   2.555   0.335  13.482  0.3147 -0.0815 -0.6528
12182TIP3   OH257960   0.672   1.112   3.838 -0.1326 -0.1355 -0.0267
12182TIP3    H157961   0.597   1.067   3.876  1.1808 -1.6484  0.9008
12182TIP3    H257962   0.685   1.072   3.753  0.1702 -0.5414  0.2053
12183TIP3   OH257963   1.341   5.787   0.384  0.1885 -0.3609 -0.3473
12183TIP3    H157964   1.295   5.820   0.461  0.0551 -1.6445  0.1557
12183TIP3    H257965   1.424   5.833   0.384  0.1109 -0.1971  0.4609
12184TIP3   OH257966   2.606   0.809   5.712 -0.1188  0.5439 -0.3419
12184TIP3    H157967   2.635   0.724   5.744  4.1616  0.8356 -2.6708
12184TIP3    H257968   2.650   0.873   5.767  1.4404  1.0799 -2.0969
12185TIP3   OH257969   4.817   5.138   2.397 -0.7113 -0.4039  0.4761
12185TIP3    H157970   4.823   5.155   2.303 -0.6578 -3.6391 -0.2279
12185TIP3    H257971   4.899   5.094   2.419  0.1807  2.0467  2.5794
12186TIP3   OH257972   3.357   3.410  11.697  0.2140 -0.3035  0.5228
12186TIP3    H157973   3.358   3.335  11.757  2.4810 -1.0008 -0.2778
12186TIP3    H257974   3.446   3.443  11.698 -0.3521  1.3999 -0.3990
12187TIP3   OH257975   1.144   5.265  14.649 -0.8686 -0.5456  0.1604
12187TIP3    H157976   1.149   5.169  14.651 -0.2481 -0.5155  0.2538
12187TIP3    H257977   1.172   5.288  14.561  0.2803 -0.3895  0.5509
12188TIP3   OH257978   5.195   1.784   2.093  0.0510  0.0514  0.3289
12188TIP3    H157979   5.106   1.763   2.066 -0.0239 -0.6566  1.0868
12188TIP3    H257980   5.224   1.707   2.141  0.3004  1.1149  1.9511
12189TIP3   OH257981   3.281   4.883  13.236  0.3329 -0.1832 -0.1912
12189TIP3    H157982   3.248   4.925  13.156 -0.5551  0.8165  0.6652
12189TIP3    H257983   3.321   4.954  13.286 -0.0578 -0.5835  0.7182
12190TIP3   OH257984   0.081   6.008   2.001  0.0579  0.5620  0.3223
12190TIP3    H157985   0.079   6.087   2.055 -0.0461 -2.4513  5.4139
12190TIP3    H257986  -0.002   5.964   2.020  0.6708 -1.4303 -1.2798
12191TIP3   OH257987   6.069   6.072   4.900 -0.3666  0.1750 -0.5298
12191TIP3    H157988   6.077   5.980   4.874  0.7696 -0.3736  1.5881
12191TIP3    H257989   5.976   6.092   4.888 -1.0624 -1.9001  0.8814
12192TIP3   OH257990   4.746   2.426  15.178 -0.5160 -0.2993 -0.3515
12192TIP3    H157991   4.683   2.497  15.183 -1.7425 -1.2118 -1.9797
12192TIP3    H257992   4.702   2.351  15.218  0.9802 -0.0696  1.8812
12193TIP3   OH257993   0.256   3.768   1.810 -0.1917  0.3336 -0.1414
12193TIP3    H157994   0.270   3.813   1.727 -1.4686  1.7381  0.3550
12193TIP3    H257995   0.212   3.686   1.786  1.3401 -0.2743 -0.9864
12194TIP3   OH257996   3.992   0.580   0.062 -0.2254 -0.1995  0.0121
12194TIP3    H157997   4.077   0.608   0.097 -0.0152  0.1114 -0.7254
12194TIP3    H257998   4.010   0.557  -0.029 -0.6763 -1.4186  0.2133
12195TIP3   OH257999   6.608   5.067   6.656 -0.0089 -0.4580 -0.3927
12195TIP3    H158000   6.645   5.153   6.674 -1.4294 -0.0477  0.6965
12195TIP3    H258001   6.590   5.029   6.743 -3.7074  0.0969 -0.7509
12196TIP3   OH258002   2.874   5.214  11.475 -0.3840 -0.2357 -0.3271
12196TIP3    H158003   2.844   5.186  11.388  1.3594 -0.6276 -0.8377
12196TIP3    H258004   2.813   5.284  11.500 -2.4584 -1.8010 -0.7334
12197TIP3   OH258005   6.475   0.460  13.931 -0.4211  0.0999 -0.1616
12197TIP3    H158006   6.514   0.547  13.924 -0.5587  0.1012 -1.1939
12197TIP3    H258007   6.550   0.400  13.935 -0.3274  0.2705  0.6338
12198TIP3   OH258008   6.552   4.246   4.995 -0.1961  0.2614 -0.3578
12198TIP3    H158009   6.619   4.180   4.978 -0.3937 -0.1480  0.4244
12198TIP3    H258010   6.528   4.233   5.087 -0.5784  1.1079 -0.3299
12199TIP3   OH258011   2.517   3.676   5.292  0.1062 -0.1200 -0.8850
12199TIP3    H158012   2.570   3.698   5.368  1.8144  1.2418 -2.3798
12199TIP3    H258013   2.548   3.589   5.266  1.3352  0.4729 -1.4752
12200TIP3   OH258014   6.361   0.484  17.302 -0.1458  0.5468 -0.3700
12200TIP3    H158015   6.370   0.478  17.207  2.2226 -1.7866 -0.1113
12200TIP3    H258016   6.313   0.406  17.328 -0.7831  1.1631  0.3933
12201TIP3   OH258017   1.900   1.401  15.492 -0.3094  0.1071 -0.3418
12201TIP3    H158018   1.884   1.341  15.565  2.1673 -1.5875 -1.0797
12201TIP3    H258019   1.932   1.481  15.534  0.2563 -0.5374  0.4789
12202TIP3   OH258020   4.541   5.651  13.938 -0.4549 -0.3137  0.4282
12202TIP3    H158021   4.560   5.710  13.864 -0.3017 -1.1297 -0.2036
12202TIP3    H258022   4.504   5.573  13.897 -0.2376 -0.8362  1.2100
12203TIP3   OH258023   2.149   5.856   6.944  0.4316  0.9416  0.2863
12203TIP3    H158024   2.206   5.841   6.868  2.0876 -0.5582  1.7411
12203TIP3    H258025   2.075   5.797   6.930  0.1459  1.5030 -0.6870
12204TIP3   OH258026   3.839   3.606  13.746 -0.3725 -0.9081  0.0202
12204TIP3    H158027   3.898   3.591  13.672 -0.6109  0.5702 -0.5134
12204TIP3    H258028   3.893   3.589  13.823  0.4736 -0.5747 -0.4736
12205TIP3   OH258029   0.878   5.972   0.579  0.0029  0.7029 -0.4973
12205TIP3    H158030   0.892   5.901   0.517  0.0060  0.1689  0.1073
12205TIP3    H258031   0.793   5.954   0.617  0.2929  0.6605  0.1353
12206TIP3   OH258032   0.407   3.192   3.598 -0.5068 -0.1547  0.0526
12206TIP3    H158033   0.480   3.237   3.640  0.6229 -1.2199 -0.6996
12206TIP3    H258034   0.447   3.148   3.523 -1.9188 -0.8223 -0.3269
12207TIP3   OH258035   2.171   1.560   2.808  0.0962  0.9253 -0.8632
12207TIP3    H158036   2.266   1.563   2.821  0.2322  1.0156 -1.7953
12207TIP3    H258037   2.159   1.580   2.716 -0.6455 -1.8132 -1.4634
12208TIP3   OH258038   1.167   3.212  11.803  0.2667  0.7595  0.5562
12208TIP3    H158039   1.143   3.304  11.804 -0.3500  0.6087 -0.0444
12208TIP3    H258040   1.166   3.187  11.711 -0.0486  0.0297  0.7471
12209TIP3   OH258041   2.505   5.945  14.596 -0.0221 -0.3934  0.7552
12209TIP3    H158042   2.490   5.892  14.517  0.8009 -0.2567  0.4990
12209TIP3    H258043   2.466   5.893  14.667 -1.1784 -0.3085  0.2152
12210TIP3   OH258044   6.286   0.413   3.003  0.2920  0.1816  0.0012
12210TIP3    H158045   6.375   0.393   3.031  1.1354  3.7066  0.3418
12210TIP3    H258046   6.236   0.418   3.085  0.0404 -0.5614 -0.0969
12211TIP3   OH258047   1.917   1.639   4.451 -0.0850 -0.4553  0.6716
12211TIP3    H158048   1.852   1.709   4.443  0.5050  0.2013  1.4937
12211TIP3    H258049   1.909   1.608   4.541 -0.9904 -2.1243  0.0594
12212TIP3   OH258050   2.958   3.927   0.354 -0.6354  0.2206 -0.4527
12212TIP3    H158051   2.965   3.835   0.377  0.4765  0.6367  1.0784
12212TIP3    H258052   2.898   3.964   0.418 -0.4149  0.7088 -0.5199
12213TIP3   OH258053   5.308   1.222   4.627 -0.1883 -0.5154 -0.3781
12213TIP3    H158054   5.379   1.263   4.677 -1.8780  0.1658  1.6111
12213TIP3    H258055   5.300   1.276   4.549  0.1179  0.7045  0.3991
12214TIP3   OH258056   1.918   0.501  14.197  0.2082 -0.4462  0.0357
12214TIP3    H158057   1.844   0.447  14.225  0.3000 -0.7822 -0.3552
12214TIP3    H258058   1.982   0.438  14.162 -0.3691  0.0273 -1.9952
12215TIP3   OH258059   1.997   4.450  12.474  0.4029 -0.0915 -0.0504
12215TIP3    H158060   1.912   4.437  12.432  0.5673 -0.1721 -0.3682
12215TIP3    H258061   1.997   4.389  12.547  0.0783  0.1093  0.1198
12216TIP3   OH258062   5.033   2.431  16.010  0.0130  0.0662  0.1951
12216TIP3    H158063   4.981   2.350  16.014  0.0827  0.0709  1.4758
12216TIP3    H258064   4.973   2.495  15.971 -0.8558 -0.0088  1.3729
12217TIP3   OH258065   5.530   0.756   2.491 -0.1754 -0.3790 -0.2852
12217TIP3    H158066   5.554   0.810   2.416  0.0026 -1.4166 -0.9897
12217TIP3    H258067   5.521   0.819   2.563 -0.1228  0.6058 -1.1068
12218TIP3   OH258068   3.026   4.025  15.571  0.2861  0.5344 -0.3048
12218TIP3    H158069   2.962   4.094  15.587 -0.1498  0.4044 -1.3673
12218TIP3    H258070   3.077   4.019  15.652 -0.9713  0.7156  0.5301
12219TIP3   OH258071   4.664   2.311  12.843  0.4010  0.1395 -0.1195
12219TIP3    H158072   4.631   2.398  12.866  1.1214  0.0295  1.4801
12219TIP3    H258073   4.735   2.295  12.905  0.8391 -1.2548 -0.9276
12220TIP3   OH258074   3.094   5.701   2.112  0.0099  0.3369  0.4029
12220TIP3    H158075   3.005   5.699   2.077  0.3446  0.0505 -0.4615
12220TIP3    H258076   3.091   5.645   2.189 -0.7432  0.9649  0.8393
12221TIP3   OH258077   6.201   6.348  12.447  0.3768  0.2160  0.5276
12221TIP3    H158078   6.287   6.380  12.419  0.4202  1.2891  1.7720
12221TIP3    H258079   6.156   6.426  12.479 -0.9620 -0.3865  0.1751
12222TIP3   OH258080   4.054   0.828  12.978 -0.2596  0.1975  0.0644
12222TIP3    H158081   4.080   0.836  12.886  0.5637  0.6085  0.3171
12222TIP3    H258082   3.965   0.795  12.976 -0.1347 -0.0955 -0.8794
12223TIP3   OH258083   0.613   3.078   1.155  0.5777 -0.7056 -0.4731
12223TIP3    H158084   0.554   3.115   1.222  0.4326 -2.4995  0.4631
12223TIP3    H258085   0.696   3.123   1.169  0.1831 -0.1103  0.0347
12224TIP3   OH258086   5.673   2.560   2.385 -0.3375  0.2501 -0.0454
12224TIP3    H158087   5.619   2.498   2.433  1.4735 -2.1596 -0.9056
12224TIP3    H258088   5.763   2.532   2.402  0.5205  2.0642 -1.2478
12225TIP3   OH258089   3.501   2.351   4.523  0.2565 -0.4598 -0.6090
12225TIP3    H158090   3.508   2.329   4.616 -0.4382  0.7544 -0.2493
12225TIP3    H258091   3.421   2.403   4.517  0.2399 -0.6141 -1.9129
12226TIP3   OH258092   5.510   6.033   1.295 -0.1661  0.4376 -0.3443
12226TIP3    H158093   5.455   5.955   1.302  0.8770 -0.3846 -0.9576
12226TIP3    H258094   5.516   6.067   1.384  2.2594 -2.2602  0.6486
12227TIP3   OH258095   1.559   0.076   0.944 -0.7988 -0.4826  0.0559
12227TIP3    H158096   1.634   0.120   0.903 -0.3400 -0.7574  0.5941
12227TIP3    H258097   1.547   0.120   1.027 -0.8857 -0.8038  0.2165
12228TIP3   OH258098   6.581   5.137  13.287  0.1337 -0.0134 -0.1781
12228TIP3    H158099   6.498   5.125  13.242  0.0681 -1.6283  0.3176
12228TIP3    H258100   6.603   5.050  13.321  1.8196  0.4639  0.0527
12229TIP3   OH258101   1.461   5.134  13.717 -0.1303  0.3151  0.2474
12229TIP3    H158102   1.429   5.170  13.634 -0.5488 -0.8063 -0.0955
12229TIP3    H258103   1.402   5.061  13.736 -0.6627  1.1515  2.0481
12230TIP3   OH258104   6.641   2.681   0.110 -0.2334  0.0889  0.4096
12230TIP3    H158105   6.663   2.683   0.203  1.0475  1.9269  0.1164
12230TIP3    H258106   6.615   2.770   0.090 -0.4963 -0.2869 -1.0071
12231TIP3   OH258107   5.894   3.867   1.699 -0.3969 -0.3999  0.4033
12231TIP3    H158108   5.957   3.880   1.769  0.7085  0.3895 -0.7091
12231TIP3    H258109   5.817   3.918   1.725  0.2072  0.3160  0.7868
12232TIP3   OH258110   4.707   4.798  12.421  0.3413 -0.0539 -0.0515
12232TIP3    H158111   4.754   4.802  12.338  1.0336  1.7826  0.3875
12232TIP3    H258112   4.650   4.721  12.413 -0.1521  0.4898 -2.4893
12233TIP3   OH258113   4.053   6.639   2.345 -0.4061  0.3270 -0.1041
12233TIP3    H158114   4.018   6.561   2.303 -1.5966  0.7949 -0.0233
12233TIP3    H258115   4.099   6.606   2.422 -0.8486 -0.2964 -0.1022
12234TIP3   OH258116   2.104   0.057   2.422 -0.3310 -0.6683  1.2047
12234TIP3    H158117   2.025   0.095   2.382 -0.5340 -1.3465  0.9471
12234TIP3    H258118   2.165   0.130   2.429 -0.9273 -0.1641  1.2623
12235TIP3   OH258119   4.388   5.822   2.128  0.0371 -0.5972 -0.3052
12235TIP3    H158120   4.403   5.908   2.090 -0.1218 -1.3418 -2.1430
12235TIP3    H258121   4.303   5.795   2.094  0.2915 -1.6678 -0.1384
12236TIP3   OH258122   4.857   4.414  11.203  0.0731  0.3194 -0.4427
12236TIP3    H158123   4.776   4.451  11.167 -2.1670 -0.8367  2.9538
12236TIP3    H258124   4.845   4.320  11.196  1.1608  0.1249  0.1350
12237TIP3   OH258125   0.185   0.512   5.653  0.1310 -0.4705 -0.3284
12237TIP3    H158126   0.192   0.607   5.655  1.6285 -0.5122 -1.9000
12237TIP3    H258127   0.232   0.483   5.731  2.6712 -0.0017 -1.5870
12238TIP3   OH258128   4.539   1.883   5.627 -0.3550 -0.6631 -0.1578
12238TIP3    H158129   4.468   1.871   5.565  0.1492 -1.2472 -0.6351
12238TIP3    H258130   4.602   1.939   5.582 -0.9416  0.6768  0.6290
12239TIP3   OH258131   3.992   5.399  15.043 -0.0931 -0.7318  0.1870
12239TIP3    H158132   3.911   5.441  15.073  0.9333  1.1439  0.5163
12239TIP3    H258133   4.060   5.434  15.101  1.0812 -1.6788 -0.5551
12240TIP3   OH258134   0.672   5.105  15.732  0.0870 -0.1506  0.0589
12240TIP3    H158135   0.721   5.030  15.699  0.8395  1.5381 -3.0955
12240TIP3    H258136   0.580   5.079  15.728  0.4398 -1.8126  1.7569
12241TIP3   OH258137   0.333   2.543  11.906 -0.8586 -0.1224  0.5491
12241TIP3    H158138   0.382   2.613  11.949 -0.1458 -0.2387 -0.0534
12241TIP3    H258139   0.256   2.529  11.962  1.0223 -1.6833  2.9710
12242TIP3   OH258140   5.489   1.636  14.339 -0.3867  0.2809 -0.4302
12242TIP3    H158141   5.462   1.546  14.318  2.3543 -0.3493 -1.7421
12242TIP3    H258142   5.418   1.670  14.393 -2.0085 -2.3209 -0.7252
12243TIP3   OH258143   5.120   5.002   0.958  0.1701  0.3907  0.0314
12243TIP3    H158144   5.070   4.924   0.984 -0.5434 -0.0663 -2.4119
12243TIP3    H258145   5.080   5.074   1.007 -3.8606  0.2560 -2.5889
12244TIP3   OH258146   0.359   3.405   5.426 -0.5181  0.5187  0.1841
12244TIP3    H158147   0.282   3.397   5.370  1.5424  0.5535 -2.8549
12244TIP3    H258148   0.365   3.320   5.471 -0.4135 -0.8441 -2.2578
12245TIP3   OH258149   0.211   0.256  16.856 -0.0493 -0.0699 -0.3552
12245TIP3    H158150   0.253   0.261  16.942 -0.8100 -1.1141  0.1040
12245TIP3    H258151   0.119   0.240  16.876 -0.3148  0.1351 -1.3686
12246TIP3   OH258152   4.515   4.131   5.938  0.4332  0.0648 -0.0672
12246TIP3    H158153   4.525   4.201   6.003 -0.2442 -0.2018  0.3358
12246TIP3    H258154   4.421   4.115   5.935  0.6034 -1.1169  0.1563
12247TIP3   OH258155   6.560   5.596   3.141  0.0618  0.0863 -0.1992
12247TIP3    H158156   6.563   5.567   3.050 -0.3206 -1.2040  0.1709
12247TIP3    H258157   6.560   5.515   3.192  2.2286  0.7754  1.0344
12248TIP3   OH258158   5.438   2.432   1.689 -0.2666  0.2304 -0.2968
12248TIP3    H158159   5.463   2.485   1.765 -0.5331 -0.1360  0.0464
12248TIP3    H258160   5.344   2.418   1.700  0.4303 -4.0911  2.0396
12249TIP3   OH258161   3.418   3.861   5.761  0.6069 -0.4039  0.6570
12249TIP3    H158162   3.487   3.917   5.794 -0.0578 -0.4083  2.1286
12249TIP3    H258163   3.452   3.826   5.679  1.2719  1.6507  0.0067
12250TIP3   OH258164   5.723   0.374  16.060  0.2585 -0.3515  0.1172
12250TIP3    H158165   5.816   0.398  16.062  0.4131 -0.9398  1.3802
12250TIP3    H258166   5.712   0.329  15.977  0.6962  1.1850 -0.8199
12251TIP3   OH258167   2.942   5.355  12.302  0.4339  0.0172 -0.2932
12251TIP3    H158168   2.891   5.355  12.221  1.5376 -1.5057 -1.0321
12251TIP3    H258169   2.878   5.376  12.370 -0.8201 -0.1437 -1.3709
12252TIP3   OH258170   2.028   3.030   2.478  0.2917  0.1915  0.1603
12252TIP3    H158171   1.983   2.965   2.531  2.0073 -2.4341 -1.4075
12252TIP3    H258172   2.082   3.079   2.540 -0.5561 -0.2691  1.2905
12253TIP3   OH258173   4.307   2.624  14.145 -0.5907  0.2040  0.2220
12253TIP3    H158174   4.254   2.699  14.121  1.2055  1.0781 -1.3008
12253TIP3    H258175   4.395   2.646  14.115 -0.2046 -2.9974 -1.4783
12254TIP3   OH258176   3.237   4.813  15.507  0.3560 -1.0564 -0.1899
12254TIP3    H158177   3.237   4.730  15.458  0.3138 -1.5042  0.5542
12254TIP3    H258178   3.149   4.849  15.493  0.0774 -1.5699  0.1821
12255TIP3   OH258179   6.425   3.512  14.356 -0.3026  0.1870  0.1103
12255TIP3    H158180   6.368   3.572  14.404  1.1930  1.1421  0.7952
12255TIP3    H258181   6.442   3.440  14.416 -1.0046 -0.2469 -0.2041
12256TIP3   OH258182   3.881   4.649  13.933  0.3115 -0.2696 -0.5818
12256TIP3    H158183   3.827   4.571  13.916  0.5302 -0.8510  1.1787
12256TIP3    H258184   3.961   4.633  13.884 -0.3566 -0.2889 -1.7019
12257TIP3   OH258185   2.502   3.745  16.060  0.1481  0.8213 -0.6439
12257TIP3    H158186   2.589   3.769  16.092  0.0460  0.9683 -0.4755
12257TIP3    H258187   2.515   3.659  16.020  0.1119  0.2374  0.5475
12258TIP3   OH258188   6.152   5.192   5.821 -0.8635 -0.5550 -0.1995
12258TIP3    H158189   6.171   5.282   5.795  0.7679 -0.1863  1.9768
12258TIP3    H258190   6.058   5.191   5.837 -1.3925 -0.0087 -2.7877
12259TIP3   OH258191   5.837   1.419   5.098  0.5131 -0.7330 -0.1502
12259TIP3    H158192   5.813   1.330   5.072  0.4716 -0.3641 -1.4328
12259TIP3    H258193   5.833   1.417   5.194  0.1027 -1.9911 -0.1665
12260TIP3   OH258194   1.931   5.896   3.644 -0.0868  0.2026  0.1200
12260TIP3    H158195   1.983   5.817   3.660  1.8001  1.4311  0.4230
12260TIP3    H258196   1.991   5.968   3.663 -2.0026  1.7310  0.6915
12261TIP3   OH258197   6.666   3.334   2.797 -0.1235  0.4321 -0.8523
12261TIP3    H158198   6.752   3.298   2.819  0.0213  1.1482 -0.2043
12261TIP3    H258199   6.605   3.261   2.812 -0.1201  0.9337  2.5659
12262TIP3   OH258200   0.913   0.671  15.632  0.1976  0.8587 -0.2650
12262TIP3    H158201   0.833   0.705  15.671 -0.4028  0.6012 -1.2357
12262TIP3    H258202   0.979   0.681  15.700 -0.7853  0.5392  0.7637
12263TIP3   OH258203   6.109   4.550   5.400 -0.1387  0.2650  0.2806
12263TIP3    H158204   6.045   4.550   5.329  0.9706  0.8390 -0.7593
12263TIP3    H258205   6.155   4.633   5.390 -0.6249  0.8258  2.3244
12264TIP3   OH258206   0.698   6.357  13.980  0.7041  0.0431 -0.0908
12264TIP3    H158207   0.668   6.365  14.071  1.2313  3.6315 -0.0721
12264TIP3    H258208   0.791   6.335  13.988  0.1816 -2.3346  0.0823
12265TIP3   OH258209   2.643   4.279  13.715  0.3827  0.5417  0.3693
12265TIP3    H158210   2.663   4.185  13.715 -2.8356 -0.3228 -1.8786
12265TIP3    H258211   2.713   4.318  13.663  1.1092 -0.7829  0.2956
12266TIP3   OH258212   2.825   5.638  12.555 -0.0900 -0.4125  0.1451
12266TIP3    H158213   2.865   5.668  12.636 -2.0247  1.0839  0.6106
12266TIP3    H258214   2.802   5.546  12.572  0.5977 -0.4610  0.8428
12267TIP3   OH258215   1.082   4.561  11.884 -0.1357  0.5034 -0.3558
12267TIP3    H158216   1.072   4.649  11.848 -0.8764  0.3009 -0.6620
12267TIP3    H258217   1.144   4.518  11.826  0.9099  1.0857  0.2957
12268TIP3   OH258218   0.536   3.824  12.902  0.2508  0.7777 -0.2814
12268TIP3    H158219   0.532   3.784  12.815  0.4485 -1.6829  0.7528
12268TIP3    H258220   0.550   3.751  12.961  1.6869  2.5368  1.7185
12269TIP3   OH258221   0.132   0.429   5.038  0.9192 -0.0315 -0.2386
12269TIP3    H158222   0.054   0.376   5.055  0.3882  0.5914 -0.6627
12269TIP3    H258223   0.150   0.413   4.945  1.7508 -0.7551  0.0389
12270TIP3   OH258224   2.827   2.536   4.360  0.1968  0.6790 -0.2659
12270TIP3    H158225   2.910   2.582   4.348 -1.3025  3.3627 -1.3837
12270TIP3    H258226   2.821   2.522   4.455  2.0877 -0.0123 -0.2116
12271TIP3   OH258227   3.192   6.579  16.333 -0.0824 -0.6355  0.3592
12271TIP3    H158228   3.190   6.515  16.404  1.0937 -1.3184 -0.1962
12271TIP3    H258229   3.170   6.529  16.255  2.0250 -0.6819 -0.2660
12272TIP3   OH258230   3.290   0.583  12.918 -0.1656 -0.3408  0.5109
12272TIP3    H158231   3.265   0.495  12.889 -0.3003 -0.1647  0.0835
12272TIP3    H258232   3.347   0.616  12.848 -0.3116  0.0064  0.5552
12273TIP3   OH258233   4.708   5.502  13.191 -0.6277 -0.8842 -0.3656
12273TIP3    H158234   4.685   5.433  13.129 -0.6776  0.2918 -1.6994
12273TIP3    H258235   4.678   5.583  13.150  2.0575  0.2867 -0.2523
12274TIP3   OH258236   2.475   4.824   0.888  0.1338 -0.3505 -0.5362
12274TIP3    H158237   2.405   4.870   0.934 -0.4129 -1.9264  0.3041
12274TIP3    H258238   2.500   4.753   0.947  1.9910 -0.2233 -1.1162
12275TIP3   OH258239   4.744   5.122   5.084 -0.8225  0.0843 -0.3458
12275TIP3    H158240   4.744   5.101   5.177 -0.6781 -1.1692 -0.6043
12275TIP3    H258241   4.759   5.216   5.080  2.6468 -0.2758  0.8217
12276TIP3   OH258242   4.030   0.577  13.976  0.0400  0.0026 -0.8048
12276TIP3    H158243   3.956   0.563  14.034  2.8753  1.3493  3.6360
12276TIP3    H258244   4.070   0.491  13.967  0.0935 -0.0806  0.1308
12277TIP3   OH258245   0.161   1.431   3.848 -0.5232  0.8654  0.3661
12277TIP3    H158246   0.225   1.481   3.798  0.9418 -0.4334  0.8465
12277TIP3    H258247   0.164   1.343   3.809 -1.3097  0.5349  1.0191
12278TIP3   OH258248   6.513   6.512   3.759  0.2652  0.6782  0.2743
12278TIP3    H158249   6.585   6.553   3.712 -0.0737  2.1357  0.9674
12278TIP3    H258250   6.547   6.496   3.847  1.0775 -2.5402 -0.5054
12279TIP3   OH258251   4.145   6.426  15.256 -0.3354  0.2296  0.7793
12279TIP3    H158252   4.096   6.431  15.174 -0.1196 -1.2239  0.5357
12279TIP3    H258253   4.236   6.414  15.229 -0.5059 -2.5076  1.1573
12280TIP3   OH258254   6.294   1.781  11.302  0.7020 -0.0607  0.4881
12280TIP3    H158255   6.330   1.692  11.307  1.0892  0.0931  0.4613
12280TIP3    H258256   6.229   1.776  11.231  0.8399 -0.2790  0.3746
12281TIP3   OH258257   6.133   5.403  13.634  0.1318 -0.4008  0.3963
12281TIP3    H158258   6.131   5.495  13.659  1.7673  0.1856 -1.3842
12281TIP3    H258259   6.225   5.386  13.612 -0.1070 -2.5089  0.8131
12282TIP3   OH258260   5.299   4.087  12.815  0.5457  0.1295  0.0344
12282TIP3    H158261   5.272   4.109  12.726  0.5472  1.0006  0.2480
12282TIP3    H258262   5.301   3.991  12.816  2.1937  0.0996 -1.4092
12283TIP3   OH258263   1.502   3.617  14.151  0.3011  0.4978  0.3590
12283TIP3    H158264   1.559   3.541  14.139 -0.8342 -0.1593 -1.3246
12283TIP3    H258265   1.436   3.587  14.213 -0.5458 -0.1940 -0.8189
12284TIP3   OH258266   3.217   3.652  17.120 -0.3129 -0.1186  0.1250
12284TIP3    H158267   3.176   3.601  17.049  0.2942 -0.0482 -0.2871
12284TIP3    H258268   3.301   3.607  17.136 -1.1794 -1.1871  2.0234
12285TIP3   OH258269   1.558   5.618   2.201  0.3321 -0.0501  0.0421
12285TIP3    H158270   1.594   5.570   2.276 -0.5506  0.6450  0.9435
12285TIP3    H258271   1.471   5.579   2.188  0.4296 -0.0777 -0.5418
12286TIP3   OH258272   3.371   2.927   4.302 -0.0578 -0.7666 -0.3550
12286TIP3    H158273   3.427   3.005   4.311 -0.1550 -0.7405  0.0732
12286TIP3    H258274   3.308   2.935   4.374 -0.4425 -0.9360 -0.6706
12287TIP3   OH258275   2.164   3.050   6.159  0.5643 -0.5223  0.2913
12287TIP3    H158276   2.123   2.966   6.140  0.7036 -0.4332 -0.4329
12287TIP3    H258277   2.252   3.044   6.122  0.5312 -0.0125  0.1135
12288TIP3   OH258278   6.167   5.215  12.191  0.1992 -0.4005 -0.6123
12288TIP3    H158279   6.113   5.150  12.146 -0.7039 -1.0284  1.2423
12288TIP3    H258280   6.221   5.163  12.251 -1.3525  0.5230  1.7372
12289TIP3   OH258281   1.499   6.292   2.324  0.1207 -0.0592  0.5859
12289TIP3    H158282   1.573   6.352   2.332  0.4564 -0.2368 -0.9393
12289TIP3    H258283   1.502   6.262   2.234 -0.7608 -1.4666  1.0013
12290TIP3   OH258284   0.211   4.627   0.193 -0.2049  0.4188  0.3010
12290TIP3    H158285   0.244   4.574   0.266  1.7793 -0.9688 -1.4647
12290TIP3    H258286   0.134   4.580   0.162  1.2919 -1.3612 -0.9759
12291TIP3   OH258287   1.183   4.716   3.040  0.0619  0.6114 -0.2757
12291TIP3    H158288   1.164   4.787   2.978  1.3735 -0.1911 -1.6740
12291TIP3    H258289   1.160   4.636   2.992 -0.1153  0.0199  0.7726
12292TIP3   OH258290   2.733   0.864  14.131  0.8117  0.0910  0.2959
12292TIP3    H158291   2.705   0.829  14.046 -0.5852  0.6054  0.5088
12292TIP3    H258292   2.828   0.865  14.127  0.7944 -0.8236 -0.8854
12293TIP3   OH258293   1.863   2.033   3.600  0.7702  0.7786  0.1914
12293TIP3    H158294   1.871   1.947   3.641  1.7279  1.0822  0.6623
12293TIP3    H258295   1.856   2.094   3.674  1.5227  1.2373 -0.1107
12294TIP3   OH258296   1.678   0.571   0.368  0.5469 -0.3837 -0.3524
12294TIP3    H158297   1.637   0.607   0.446 -0.1693 -0.6881 -0.5796
12294TIP3    H258298   1.767   0.607   0.368  0.4191 -0.0635  0.3794
12295TIP3   OH258299   4.348   3.983  15.799 -0.4646 -0.1579 -0.1127
12295TIP3    H158300   4.320   4.075  15.794  0.0480  0.0795  1.0086
12295TIP3    H258301   4.287   3.943  15.860 -0.3345 -0.4220 -0.1565
12296TIP3   OH258302   3.208   6.239   2.396 -0.9341 -0.7444  0.6869
12296TIP3    H158303   3.206   6.190   2.478 -0.3987  0.3221  1.3563
12296TIP3    H258304   3.301   6.261   2.383 -1.1541  0.0319  0.3694
12297TIP3   OH258305   6.270   5.008   3.047 -0.1156  0.0862 -0.6069
12297TIP3    H158306   6.300   5.052   3.126  0.8264 -0.1926 -0.8005
12297TIP3    H258307   6.192   4.959   3.075 -0.0381  0.3247  0.0437
12298TIP3   OH258308   3.865   4.013  17.296  0.2602  0.1422 -0.1288
12298TIP3    H158309   3.818   4.056  17.224  0.1316 -0.3625 -0.3527
12298TIP3    H258310   3.902   4.085  17.347 -3.9935  0.8299  2.3812
12299TIP3   OH258311   4.641   0.027   1.285 -0.2272  0.0888  0.0608
12299TIP3    H158312   4.623   0.111   1.243  2.0253  1.1806  1.1280
12299TIP3    H258313   4.572   0.019   1.351 -1.2441  0.4233 -0.9202
12300TIP3   OH258314   0.249   5.571  15.849 -0.0189 -0.4034  0.2395
12300TIP3    H158315   0.286   5.604  15.930  0.9334  1.9378 -1.0388
12300TIP3    H258316   0.320   5.580  15.785 -1.3186 -0.3178 -1.2558
12301TIP3   OH258317   5.720   3.216  14.794  0.5080  0.1883 -0.1990
12301TIP3    H158318   5.692   3.260  14.875  1.4723  1.1765 -0.3661
12301TIP3    H258319   5.732   3.288  14.732  1.3409 -0.4050 -0.7345
12302TIP3   OH258320   4.410   3.806  15.081  0.4994 -0.2231 -0.7763
12302TIP3    H158321   4.383   3.854  15.003 -0.9902  0.3673  0.0493
12302TIP3    H258322   4.475   3.743  15.050 -0.3266 -0.2568 -2.5504
12303TIP3   OH258323   2.761   3.578  16.302  0.5035 -0.2815 -0.8689
12303TIP3    H158324   2.688   3.519  16.320  0.0120 -0.1903 -2.4600
12303TIP3    H258325   2.818   3.529  16.244  0.7731  0.3167 -1.1184
12304TIP3   OH258326   1.751   1.154  12.888 -0.7649  0.0698  0.0153
12304TIP3    H158327   1.723   1.104  12.811  0.8076 -0.0187 -0.5384
12304TIP3    H258328   1.672   1.164  12.940 -2.0695  0.7946 -1.9766
12305TIP3   OH258329   3.500   3.470  16.846 -0.5154 -0.1988  0.2107
12305TIP3    H158330   3.512   3.375  16.840 -0.1893 -0.2001  0.8257
12305TIP3    H258331   3.589   3.505  16.855 -0.5539  0.2466 -0.9981
12306TIP3   OH258332   2.459   0.258   0.727  0.0967  0.0226 -0.2335
12306TIP3    H158333   2.408   0.306   0.661 -2.3322 -1.4732  0.4481
12306TIP3    H258334   2.508   0.194   0.676  2.1450  2.0530 -0.9889
12307TIP3   OH258335   0.064   0.758  16.131 -0.1945 -0.1507  0.0917
12307TIP3    H158336  -0.030   0.744  16.120 -0.2634  0.0513  0.4327
12307TIP3    H258337   0.090   0.694  16.197 -0.1611  0.0521  0.2748
12308TIP3   OH258338   2.732   5.893   3.802 -0.5660  0.4502  0.3166
12308TIP3    H158339   2.799   5.853   3.747 -0.9377  0.2336  0.0183
12308TIP3    H258340   2.780   5.926   3.878 -0.1500  0.1256  0.1964
12309TIP3   OH258341   2.717   5.927  13.885 -0.1686  0.2254 -0.1380
12309TIP3    H158342   2.701   5.993  13.952  1.3200 -0.4337  0.9089
12309TIP3    H258343   2.669   5.850  13.916 -0.1668  0.1716 -0.2689
12310TIP3   OH258344   5.870   0.782   5.309  0.3691 -0.4687 -0.1935
12310TIP3    H158345   5.920   0.762   5.388  1.3254  3.0116  0.2147
12310TIP3    H258346   5.783   0.804   5.341 -0.0405 -1.6642 -0.4292
12311TIP3   OH258347   6.651   6.286  13.115  0.2087 -0.2461  1.2078
12311TIP3    H158348   6.620   6.265  13.203 -0.8473  0.2031  0.9546
12311TIP3    H258349   6.731   6.234  13.105 -0.7792 -1.9304  1.6612
12312TIP3   OH258350   3.069   2.530  13.101 -0.3802  0.3660 -0.1573
12312TIP3    H158351   3.028   2.455  13.143 -0.0271 -0.2383 -0.8635
12312TIP3    H258352   3.053   2.603  13.160 -0.3490 -0.3543  0.7527
12313TIP3   OH258353   5.652   4.211  14.012  0.0304  0.2417 -0.5694
12313TIP3    H158354   5.556   4.208  14.006  0.0928  0.6770 -2.0513
12313TIP3    H258355   5.683   4.163  13.936  0.9958  0.7806 -0.5280
12314TIP3   OH258356   4.453   4.986  14.746  0.4046  0.0114  0.1713
12314TIP3    H158357   4.371   5.005  14.791  0.8150 -1.5505  1.6718
12314TIP3    H258358   4.515   5.050  14.781 -0.1441  1.2648 -1.0443
12315TIP3   OH258359   6.497   0.347  15.221 -0.1967  0.5056 -0.2756
12315TIP3    H158360   6.558   0.338  15.148 -0.2071 -1.9966 -0.0486
12315TIP3    H258361   6.426   0.402  15.187  0.1883  0.0411 -1.8844
12316TIP3   OH258362   3.467   1.516   1.731 -0.0015 -0.1628  0.2251
12316TIP3    H158363   3.435   1.604   1.712  2.6246  0.7480 -0.4211
12316TIP3    H258364   3.391   1.459   1.717 -1.6646  1.9211  0.2565
12317TIP3   OH258365   3.975   1.282   4.041  0.4042  0.0777 -0.6907
12317TIP3    H158366   4.042   1.301   3.976  1.0703  1.1470  0.2777
12317TIP3    H258367   3.990   1.190   4.064  2.4366  0.6422  0.4762
12318TIP3   OH258368   0.226   4.468   5.501 -0.0450 -0.3218  0.4216
12318TIP3    H158369   0.305   4.512   5.534 -0.2814 -0.2814  0.9440
12318TIP3    H258370   0.154   4.514   5.543 -0.3943  0.1740 -0.6994
12319TIP3   OH258371   6.656   4.256  13.169  0.1162 -0.5335  0.0913
12319TIP3    H158372   6.674   4.338  13.123 -0.7376  0.1720  0.9633
12319TIP3    H258373   6.622   4.197  13.101 -0.4297  0.2425 -0.3268
12320TIP3   OH258374   5.414   5.570  15.162 -0.2803 -0.2350  0.3594
12320TIP3    H158375   5.451   5.576  15.074  0.8289  1.6435  0.9025
12320TIP3    H258376   5.342   5.507  15.153  0.7501 -1.2265 -1.5391
12321TIP3   OH258377   2.352   4.888  14.485 -0.0142 -0.1354 -0.6852
12321TIP3    H158378   2.393   4.810  14.447  3.4514  0.4792  1.3822
12321TIP3    H258379   2.360   4.955  14.417  1.7955 -0.2935 -0.6913
12322TIP3   OH258380   1.928   1.588  12.371  0.1115 -0.0387  0.2098
12322TIP3    H158381   1.940   1.607  12.464 -0.9939  1.1393  0.1299
12322TIP3    H258382   1.869   1.513  12.370  0.4287 -0.2983  0.4454
12323TIP3   OH258383   4.241   3.739   2.035 -0.0302 -0.2876  0.0671
12323TIP3    H158384   4.190   3.723   2.115  0.9496  0.6870  0.9142
12323TIP3    H258385   4.189   3.803   1.986 -0.3121 -0.3813  0.2421
12324TIP3   OH258386   4.665   4.193  12.937  0.0415  0.1152  0.2340
12324TIP3    H158387   4.710   4.150  12.864  2.6189  0.3827  1.5587
12324TIP3    H258388   4.598   4.247  12.896  0.4766 -0.8255 -1.8193
12325TIP3   OH258389   5.037   6.629  16.383 -0.3879 -0.2875  0.2965
12325TIP3    H158390   5.093   6.675  16.446  1.5644 -0.2592 -1.3790
12325TIP3    H258391   4.991   6.699  16.337 -0.6494 -0.2445  0.6138
12326TIP3   OH258392   2.006   1.276  14.112 -0.0011 -0.0758  0.3487
12326TIP3    H158393   1.987   1.353  14.165 -1.4548 -0.2923  0.1924
12326TIP3    H258394   2.100   1.265  14.118  0.1893  1.5135  0.6448
12327TIP3   OH258395   5.554   0.626   1.415  0.0364  0.3441 -0.0717
12327TIP3    H158396   5.602   0.547   1.440  0.7879  0.8219  0.0532
12327TIP3    H258397   5.469   0.595   1.387  0.1623 -0.4712  0.4057
12328TIP3   OH258398   3.348   3.769  16.829 -0.2851  0.0085  0.4018
12328TIP3    H158399   3.354   3.686  16.780  0.8521 -0.6684  1.6229
12328TIP3    H258400   3.257   3.773  16.857 -0.3141 -0.9617  0.5036
12329TIP3   OH258401   0.668   0.941   3.285  0.3540  0.4604 -0.0238
12329TIP3    H158402   0.726   0.916   3.213  0.1183 -0.8350  0.2072
12329TIP3    H258403   0.700   1.026   3.313  1.8229  0.0104 -0.2484
12330TIP3   OH258404   0.287   5.899  17.101 -0.1227 -0.1747  0.0428
12330TIP3    H158405   0.349   5.932  17.035 -0.4392  1.3892  0.4919
12330TIP3    H258406   0.228   5.844  17.051  1.7147 -1.8932 -0.3704
12331TIP3   OH258407   1.302   1.138  14.881  0.1231  0.1060  0.2204
12331TIP3    H158408   1.351   1.085  14.944 -1.1170 -0.8572  0.4257
12331TIP3    H258409   1.271   1.213  14.931  1.2582  0.6712  0.1111
12332TIP3   OH258410   1.742   1.228   3.266  0.0490 -0.2971  0.2363
12332TIP3    H158411   1.663   1.214   3.215 -0.4708  2.0537  0.3023
12332TIP3    H258412   1.803   1.270   3.205  0.5340 -0.2647  0.7298
12333TIP3   OH258413   1.483   6.660  13.688 -0.3102  0.3974  0.1613
12333TIP3    H158414   1.525   6.575  13.706 -0.8080  0.4321  1.5972
12333TIP3    H258415   1.486   6.706  13.771 -0.0006  1.8412 -0.6187
12334TIP3   OH258416   3.365   4.502  14.912 -0.4200 -0.3983 -0.7204
12334TIP3    H158417   3.300   4.439  14.945  0.5177 -0.1762  1.7521
12334TIP3    H258418   3.441   4.448  14.889 -0.7050 -0.4422 -1.6111
12335TIP3   OH258419   4.721   3.196   5.580 -0.0361 -0.1796 -0.5934
12335TIP3    H158420   4.812   3.195   5.610  0.5260  0.2444 -2.2020
12335TIP3    H258421   4.700   3.289   5.573 -1.6858 -0.1399  2.7345
12336TIP3   OH258422   0.006   5.589   1.644 -0.4193  0.5017  0.1864
12336TIP3    H158423   0.035   5.500   1.665  0.3128  0.9705  1.2711
12336TIP3    H258424  -0.071   5.602   1.700 -0.2239  0.7265  0.4035
12337TIP3   OH258425   5.054   0.599   4.461  0.1778  0.6122  0.3869
12337TIP3    H158426   5.124   0.592   4.526 -0.6304 -1.5242  1.1238
12337TIP3    H258427   5.009   0.514   4.465 -1.3065  1.2441 -1.3773
12338TIP3   OH258428   1.782   0.180   4.303 -0.1226  0.1530 -0.2240
12338TIP3    H158429   1.874   0.199   4.282  0.2584 -0.4261  0.8882
12338TIP3    H258430   1.764   0.098   4.257  0.3304 -0.4498  0.6647
12339TIP3   OH258431   3.106   4.482   4.849 -0.2063  0.3369 -0.7678
12339TIP3    H158432   3.104   4.554   4.785 -0.5172  0.5399 -0.5348
12339TIP3    H258433   3.155   4.518   4.923  1.7945 -0.5181 -1.5987
12340TIP3   OH258434   3.061   3.063   0.995 -0.1180  0.3609  0.2514
12340TIP3    H158435   3.017   3.047   0.911 -1.2691  0.4028  0.8254
12340TIP3    H258436   3.144   3.016   0.987  0.6580  1.9158 -1.6175
12341TIP3   OH258437   1.040   3.619   3.253  0.1021 -0.1516  0.5020
12341TIP3    H158438   0.985   3.545   3.225  0.6438 -0.4411  0.1909
12341TIP3    H258439   1.043   3.676   3.177  0.6502 -0.3859  0.3465
12342TIP3   OH258440   3.666   4.739  15.588 -0.0761 -0.4619  0.0646
12342TIP3    H158441   3.733   4.708  15.648  0.6221 -2.6016 -1.6434
12342TIP3    H258442   3.589   4.755  15.643  1.3635  0.5640  1.8539
12343TIP3   OH258443   5.335   0.640   4.566 -0.0720 -0.2697  0.0610
12343TIP3    H158444   5.292   0.701   4.625  0.0976 -0.2110  0.1262
12343TIP3    H258445   5.394   0.694   4.514 -0.5071 -0.2664 -0.4358
12344TIP3   OH258446   5.295   1.669  12.380  0.0318 -0.3067  0.4580
12344TIP3    H158447   5.244   1.750  12.387  0.0838 -0.0960 -1.2821
12344TIP3    H258448   5.285   1.642  12.289  0.9567 -1.6488  0.7342
12345TIP3   OH258449   2.026   0.939   5.245  0.5750  0.5412  0.3385
12345TIP3    H158450   2.068   0.902   5.324 -0.6622 -1.7649 -0.0027
12345TIP3    H258451   1.933   0.919   5.256  0.1823  1.5176 -1.0295
12346TIP3   OH258452   0.330   5.948   0.588  0.4467 -0.0378  0.9251
12346TIP3    H158453   0.326   6.043   0.574  0.6456 -0.4153 -2.6724
12346TIP3    H258454   0.244   5.917   0.562  0.3138 -0.8778  2.2847
12347TIP3   OH258455   6.292   2.791  13.180 -0.1608  0.0219  0.0260
12347TIP3    H158456   6.274   2.885  13.182  0.3550  0.1414 -0.6996
12347TIP3    H258457   6.364   2.778  13.241  0.9853  0.3798 -1.2169
12348TIP3   OH258458   3.494   1.830  12.450 -0.5944  0.8523 -0.7606
12348TIP3    H158459   3.485   1.925  12.459 -1.5175  0.7001  0.0775
12348TIP3    H258460   3.565   1.807  12.511 -2.3075  0.6797  1.2927
12349TIP3   OH258461   6.600   5.568  11.953  1.0706 -0.8164 -0.2186
12349TIP3    H158462   6.648   5.515  12.017  0.2664 -0.9159  0.3281
12349TIP3    H258463   6.642   5.549  11.869  2.8514  0.1512  0.3970
12350TIP3   OH258464   1.774   3.511   4.476 -0.4927 -0.1128 -0.7942
12350TIP3    H158465   1.800   3.419   4.470 -0.7723 -0.1801 -1.0420
12350TIP3    H258466   1.790   3.535   4.567 -1.5230 -0.7525 -0.4243
12351TIP3   OH258467   0.230   2.089   2.259 -0.1228  0.3812 -0.0186
12351TIP3    H158468   0.221   2.135   2.176 -0.4289 -4.3337 -2.9474
12351TIP3    H258469   0.324   2.089   2.277  0.1533  0.0914 -1.3410
12352TIP3   OH258470   3.062   1.375   2.626  0.3649 -0.1260 -0.0732
12352TIP3    H158471   3.055   1.432   2.703 -1.2885  1.7857 -1.5296
12352TIP3    H258472   3.123   1.307   2.653  0.8885  1.2000  2.4730
12353TIP3   OH258473   1.186   0.387   4.155 -0.7316 -0.9000 -0.8282
12353TIP3    H158474   1.127   0.445   4.107 -1.3204  0.5761  1.4760
12353TIP3    H258475   1.204   0.434   4.237  3.0946 -1.6095 -1.0704
12354TIP3   OH258476   3.694   4.667   0.438  0.0029  0.1251 -0.0095
12354TIP3    H158477   3.629   4.650   0.370 -0.7272  1.2534  0.3717
12354TIP3    H258478   3.644   4.668   0.520  0.6993 -0.2064  0.4268
12355TIP3   OH258479   5.025   2.204   3.978 -0.0955 -0.0114 -0.0940
12355TIP3    H158480   5.062   2.117   3.992  0.6581 -0.0789 -2.1790
12355TIP3    H258481   5.100   2.259   3.955 -0.7056  0.9763  0.1937
12356TIP3   OH258482   2.916   2.124   5.442 -0.2338  0.5046 -0.0558
12356TIP3    H158483   2.896   2.031   5.454 -2.1084  0.7182 -1.1218
12356TIP3    H258484   2.999   2.125   5.394 -1.2808 -0.7342 -2.0397
12357TIP3   OH258485   1.096   0.058  15.489 -0.3408  0.2053  0.3316
12357TIP3    H158486   1.151   0.003  15.433 -1.6616 -1.0830  0.2294
12357TIP3    H258487   1.012   0.013  15.491 -0.8079  1.0756  2.0678
12358TIP3   OH258488   3.115   2.939  15.077 -0.1667  0.1782  0.1187
12358TIP3    H158489   3.206   2.910  15.066 -0.1839  0.0684  0.2635
12358TIP3    H258490   3.066   2.892  15.009 -0.0479  0.5596 -0.2334
12359TIP3   OH258491   6.454   2.179   5.739 -0.3697 -0.6231  0.5144
12359TIP3    H158492   6.417   2.236   5.671  1.7609  0.8047  0.4795
12359TIP3    H258493   6.420   2.215   5.821 -1.0822 -0.9345  0.3725
12360TIP3   OH258494   4.562   4.606   5.469 -0.2944 -0.0831  0.2781
12360TIP3    H158495   4.586   4.566   5.552 -1.3232  3.2046  2.3494
12360TIP3    H258496   4.469   4.587   5.459 -0.1181 -0.6828 -0.2831
12361TIP3   OH258497   3.201   4.765   6.770  0.3350  0.3985 -0.4216
12361TIP3    H158498   3.296   4.761   6.776  0.3511 -0.5940 -1.2269
12361TIP3    H258499   3.170   4.692   6.824 -0.0689  1.8304  1.4161
12362TIP3   OH258500   0.502   1.846   2.694 -0.3341  0.4986 -0.0164
12362TIP3    H158501   0.480   1.887   2.778 -0.9430  0.6081 -0.2235
12362TIP3    H258502   0.562   1.908   2.652  1.1406 -0.2230  0.9442
12363TIP3   OH258503   2.849   5.282  17.405  0.1716 -0.1869 -0.1691
12363TIP3    H158504   2.783   5.213  17.409  0.7921 -0.7901  0.0273
12363TIP3    H258505   2.878   5.293  17.496  0.1074  0.3099 -0.2029
12364TIP3   OH258506   1.585   6.234   0.452 -0.2434 -0.4757 -0.2141
12364TIP3    H158507   1.516   6.203   0.394 -1.7303  4.6636 -1.7505
12364TIP3    H258508   1.643   6.284   0.395  1.6234 -0.0460  1.9113
12365TIP3   OH258509   2.193   3.476  15.433 -0.6820 -0.6029 -0.3753
12365TIP3    H158510   2.127   3.430  15.381 -1.8078 -0.2020  0.6651
12365TIP3    H258511   2.214   3.554  15.381 -0.6024 -1.0149 -0.9732
12366TIP3   OH258512   1.653   1.337   5.149  0.2122  0.2628 -0.6074
12366TIP3    H158513   1.659   1.348   5.054 -3.1994  0.5597 -0.9200
12366TIP3    H258514   1.624   1.246   5.161 -0.1173  0.4507  0.0868
12367TIP3   OH258515   2.686   1.757   2.828 -0.4157  0.1985 -0.5532
12367TIP3    H158516   2.757   1.770   2.765  0.0881  1.2493  0.2018
12367TIP3    H258517   2.712   1.681   2.879 -1.0253 -0.9301 -1.8376
12368TIP3   OH258518   2.668   4.283  11.941  0.5029  0.6845 -0.3988
12368TIP3    H158519   2.624   4.366  11.958 -0.8021 -0.3747  1.9240
12368TIP3    H258520   2.653   4.266  11.848 -1.6156  1.7351 -0.3072
12369TIP3   OH258521   2.687   1.183  14.746 -0.0450  0.2116  0.1405
12369TIP3    H158522   2.746   1.157  14.817  0.3003  0.6190  0.0143
12369TIP3    H258523   2.684   1.107  14.688  0.4998  0.2440  0.0595
12370TIP3   OH258524   4.175   4.411   0.917  0.1979 -0.1327  0.0991
12370TIP3    H158525   4.087   4.375   0.904 -1.2979  3.4094 -0.9589
12370TIP3    H258526   4.234   4.347   0.877 -1.7899 -2.8346  1.2091
12371TIP3   OH258527   6.714   0.621  15.333  0.7252  0.3685  0.1650
12371TIP3    H158528   6.629   0.604  15.292  0.1526  1.7967  0.6807
12371TIP3    H258529   6.771   0.649  15.261  0.4098  0.5615 -0.0118
12372TIP3   OH258530   0.482   5.442   4.278 -0.5333 -0.9943 -0.4716
12372TIP3    H158531   0.467   5.445   4.184 -1.5309 -0.0222 -0.3061
12372TIP3    H258532   0.400   5.410   4.315 -0.8750  0.5256  0.1824
12373TIP3   OH258533   6.097   5.707  14.789  0.2095 -0.0699  0.2332
12373TIP3    H158534   6.094   5.614  14.811 -1.0674 -0.5736 -1.7232
12373TIP3    H258535   6.144   5.710  14.705 -0.7514  0.8782 -0.2978
12374TIP3   OH258536   4.007   4.153   2.818  0.0717  0.1748  0.4995
12374TIP3    H158537   3.981   4.246   2.815 -0.3123  0.0511 -0.0371
12374TIP3    H258538   3.926   4.105   2.801  0.2062 -0.2768  1.0858
12375TIP3   OH258539   4.961   6.120   2.416 -0.5601 -0.2717 -0.3288
12375TIP3    H158540   5.018   6.197   2.418  0.1399 -0.5891 -3.3313
12375TIP3    H258541   4.884   6.149   2.367 -0.4864 -1.3001 -1.0976
12376TIP3   OH258542   5.371   4.482  15.349  0.2900  0.5150 -0.0625
12376TIP3    H158543   5.339   4.529  15.272 -1.1041  0.2686  0.3413
12376TIP3    H258544   5.330   4.395  15.343  0.9972  0.1408  0.4083
12377TIP3   OH258545   3.404   2.945   2.435 -0.2172  0.4468 -0.2307
12377TIP3    H158546   3.400   2.851   2.415  0.5798  0.7243 -1.8343
12377TIP3    H258547   3.469   2.952   2.505 -1.4608 -0.3296  1.0631
12378TIP3   OH258548   0.816   2.120  14.565 -0.2004 -0.4716 -0.0093
12378TIP3    H158549   0.721   2.130  14.571 -0.6257 -0.4093 -4.2546
12378TIP3    H258550   0.834   2.036  14.608 -2.4554 -1.3283 -0.5929
12379TIP3   OH258551   5.983   0.772   2.723 -0.2582 -0.1092 -0.5169
12379TIP3    H158552   5.969   0.701   2.786  0.7292 -1.1182 -1.4027
12379TIP3    H258553   5.907   0.829   2.735 -0.3816 -0.5576  1.1917
12380TIP3   OH258554   2.888   4.797  13.345  0.7675  0.2777  0.3341
12380TIP3    H158555   2.921   4.851  13.273 -0.1478  1.5970  0.8828
12380TIP3    H258556   2.926   4.835  13.424  0.3950 -0.1048  0.7048
12381TIP3   OH258557   6.057   1.563  13.451 -0.4845 -0.6851 -0.1679
12381TIP3    H158558   6.094   1.648  13.429  0.0622 -0.7366  0.5158
12381TIP3    H258559   5.996   1.544  13.380 -0.0270 -0.0823 -0.7336
12382TIP3   OH258560   3.188   0.674   1.936  0.1408  0.1727  0.0578
12382TIP3    H158561   3.170   0.665   2.029 -0.5087  0.7764  0.0040
12382TIP3    H258562   3.266   0.729   1.932  0.9753 -0.9773  0.2638
12383TIP3   OH258563   2.569   1.600  12.093 -0.3427 -0.0592 -0.0488
12383TIP3    H158564   2.516   1.544  12.149 -0.6757  0.5778  0.2857
12383TIP3    H258565   2.634   1.638  12.153 -0.2162  0.0290 -0.2413
12384TIP3   OH258566   2.623   1.990   1.866 -0.1642  0.7557 -0.3620
12384TIP3    H158567   2.665   2.015   1.784  1.0522 -2.5786 -0.8762
12384TIP3    H258568   2.541   1.948   1.839 -0.9795  1.8269  0.3372
12385TIP3   OH258569   6.690   1.883   1.067  0.1804  0.0324  0.2250
12385TIP3    H158570   6.780   1.916   1.061 -0.4710  1.9754  0.4154
12385TIP3    H258571   6.693   1.819   1.139  1.3784  0.1802  0.3337
12386TIP3   OH258572   2.117   2.307   3.753  0.0669  0.7027 -0.0209
12386TIP3    H158573   2.023   2.293   3.749  0.5337 -3.3161 -1.1642
12386TIP3    H258574   2.143   2.324   3.662  0.6618 -0.8602 -0.1762
12387TIP3   OH258575   3.305   6.230  14.753  0.0474 -0.0199 -0.3212
12387TIP3    H158576   3.238   6.162  14.758 -1.5805  1.4139 -1.3033
12387TIP3    H258577   3.361   6.203  14.680 -0.3491 -0.5005 -0.4517
12388TIP3   OH258578   4.504   5.377  17.237 -0.1964  0.0559  0.2323
12388TIP3    H158579   4.411   5.356  17.242 -0.3630  1.0149  1.7499
12388TIP3    H258580   4.531   5.390  17.328  1.4962 -0.4796 -0.1513
12389TIP3   OH258581   3.011   6.723  15.110  0.1089 -0.4218 -0.6774
12389TIP3    H158582   3.040   6.636  15.084  0.8221 -0.3001 -0.3345
12389TIP3    H258583   3.086   6.780  15.089  0.1241 -0.0913  0.2497
12390TIP3   OH258584   2.941   4.034   5.250 -0.0197 -0.3880 -0.1911
12390TIP3    H158585   2.902   4.087   5.180  0.7968  0.3803 -0.0882
12390TIP3    H258586   3.009   3.983   5.206  0.6379  0.2546  0.0700
12391TIP3   OH258587   2.880   4.142  14.404  0.4574 -0.5126  0.0103
12391TIP3    H158588   2.796   4.100  14.422  1.0482 -0.9290  2.0707
12391TIP3    H258589   2.939   4.069  14.381  0.4168 -0.2886 -0.8330
12392TIP3   OH258590   1.239   6.442  13.997 -0.0819 -0.0393 -0.0926
12392TIP3    H158591   1.279   6.414  14.079  1.3404  0.3756 -0.6257
12392TIP3    H258592   1.216   6.534  14.012 -1.4346 -0.4374  0.4162
12393TIP3   OH258593   3.635   4.457  15.564  0.2876  0.1222 -0.3799
12393TIP3    H158594   3.678   4.542  15.563  0.1096  0.2148 -1.4610
12393TIP3    H258595   3.543   4.477  15.582  0.4101  0.0585  0.3638
12394TIP3   OH258596   2.583   0.295   2.576  0.2551 -0.1163  0.0638
12394TIP3    H158597   2.605   0.284   2.669 -0.6884 -0.4053  0.2596
12394TIP3    H258598   2.488   0.294   2.573  0.2544 -2.2177 -1.1531
12395TIP3   OH258599   6.738   0.840   1.299 -0.2010  0.7242  0.3726
12395TIP3    H158600   6.651   0.871   1.272  0.1954  2.6334  1.0944
12395TIP3    H258601   6.780   0.814   1.218 -1.9173 -1.6387  0.1559
12396TIP3   OH258602   5.994   5.977   0.816 -0.0585 -0.4246  0.1107
12396TIP3    H158603   6.047   6.054   0.797  0.2885 -1.0947 -1.8568
12396TIP3    H258604   6.054   5.915   0.857  0.0335 -0.1991  0.3131
12397TIP3   OH258605   0.422   1.488   1.026 -0.1552 -0.0151  0.1976
12397TIP3    H158606   0.461   1.503   0.940 -3.3456  3.1956 -0.9389
12397TIP3    H258607   0.490   1.514   1.088  1.5567 -0.5702 -1.3385
12398TIP3   OH258608   4.898   4.196   4.121 -0.3190 -0.6807  0.7408
12398TIP3    H158609   4.935   4.108   4.130  0.8034 -0.2242  0.6491
12398TIP3    H258610   4.910   4.218   4.029 -0.6201 -0.4356  0.7582
12399TIP3   OH258611   4.099   3.131   0.785  0.1881  0.3274  0.4045
12399TIP3    H158612   4.049   3.190   0.728  0.2340  0.2496  0.2846
12399TIP3    H258613   4.172   3.185   0.816 -0.2920  0.6213  1.0470
12400TIP3   OH258614   1.341   6.288   4.452  0.1239  0.7824  0.6527
12400TIP3    H158615   1.397   6.229   4.503 -1.1394 -0.7180  0.3809
12400TIP3    H258616   1.378   6.375   4.467  1.9086 -0.0360  1.2653
12401TIP3   OH258617   0.504   0.128  15.529 -0.1982 -0.5103  0.2568
12401TIP3    H158618   0.410   0.133  15.547 -0.3874 -2.4039  0.0406
12401TIP3    H258619   0.518   0.186  15.454 -1.1872 -0.1752  0.3265
12402TIP3   OH258620   5.790   2.127   5.484 -0.2416  0.4201  0.0089
12402TIP3    H158621   5.699   2.123   5.455 -0.8236  1.2668  1.5662
12402TIP3    H258622   5.786   2.102   5.577  1.2570 -0.4222 -0.1183
12403TIP3   OH258623   5.330   4.013  13.497 -0.6775 -0.4736  0.5422
12403TIP3    H158624   5.272   3.955  13.546 -0.4977 -0.0474  1.2754
12403TIP3    H258625   5.283   4.096  13.492 -0.6367 -0.4720  0.0945
12404TIP3   OH258626   1.944   1.456   0.770 -0.0551  0.4325  0.0216
12404TIP3    H158627   1.999   1.386   0.734  0.1512  0.9951 -0.7806
12404TIP3    H258628   1.901   1.495   0.694 -0.2705  1.0993  0.4728
12405TIP3   OH258629   0.966   5.194   2.108 -0.2834 -0.2156  0.3654
12405TIP3    H158630   1.053   5.169   2.138 -0.1662 -0.4410 -0.1556
12405TIP3    H258631   0.938   5.122   2.052  0.0082  0.7670 -1.0771
12406TIP3   OH258632   2.390   1.275   6.224 -0.5921  0.0262  0.8427
12406TIP3    H158633   2.385   1.219   6.146  1.4871  1.1986 -0.1904
12406TIP3    H258634   2.480   1.266   6.255 -1.0635  0.5000  2.4535
12407TIP3   OH258635   6.101   3.424   5.642  0.0811  0.5513 -0.2765
12407TIP3    H158636   6.092   3.375   5.561 -1.0774  1.5901 -0.8084
12407TIP3    H258637   6.163   3.373   5.695 -1.1692 -1.5488 -0.7255
12408TIP3   OH258638   6.633   2.937  15.492 -0.0558  0.7242 -0.0826
12408TIP3    H158639   6.542   2.937  15.519 -0.0682 -2.0640  0.1851
12408TIP3    H258640   6.641   2.864  15.431  1.9050  1.1438 -0.4225
12409TIP3   OH258641   3.773   4.725   1.523 -0.2199  0.5234 -0.1470
12409TIP3    H158642   3.691   4.748   1.479 -0.6733  0.0049  0.4064
12409TIP3    H258643   3.816   4.665   1.463 -2.0905 -2.3810  1.1953
12410TIP3   OH258644   5.244   1.375  11.993  0.9753  0.0947 -0.3523
12410TIP3    H158645   5.220   1.292  12.034  1.5699 -0.5147 -1.2006
12410TIP3    H258646   5.254   1.436  12.066 -2.4186  0.2446  0.1064
12411TIP3   OH258647   5.493   0.337  16.235 -0.0796  0.0644  0.1242
12411TIP3    H158648   5.573   0.323  16.185 -0.1295 -1.1401  0.3452
12411TIP3    H258649   5.497   0.272  16.306 -0.8907  0.4940  0.5848
12412TIP3   OH258650   3.563   4.192  11.665  0.2486 -0.1569  0.3738
12412TIP3    H158651   3.583   4.100  11.645  1.5027 -0.1776  1.5879
12412TIP3    H258652   3.486   4.188  11.721  0.8489 -0.5552  1.1918
12413TIP3   OH258653   0.095   4.179  14.063  0.3606 -0.2827 -0.1500
12413TIP3    H158654   0.089   4.228  14.144 -1.2796 -0.8956  0.1365
12413TIP3    H258655   0.056   4.094  14.083  0.4580 -0.6546 -1.4263
12414TIP3   OH258656   2.912   5.596  15.437  0.2264 -0.0178  0.2892
12414TIP3    H158657   2.983   5.657  15.415  0.4062 -0.3267  0.0164
12414TIP3    H258658   2.940   5.554  15.518 -0.8139  1.7323  1.6321
12415TIP3   OH258659   5.557   2.736   3.594  0.1269 -0.0842 -0.2328
12415TIP3    H158660   5.501   2.669   3.633  0.9326 -1.3045 -1.0746
12415TIP3    H258661   5.571   2.800   3.664  0.5590 -1.5718  1.0933
12416TIP3   OH258662   5.989   4.865   1.592  0.4907 -0.2506  0.3864
12416TIP3    H158663   6.030   4.784   1.561 -2.5258 -1.8773  0.2946
12416TIP3    H258664   5.953   4.906   1.514  0.2980  0.1448  0.6768
12417TIP3   OH258665   2.023   6.185  16.008  0.2073 -0.4157 -1.2564
12417TIP3    H158666   1.974   6.111  16.044 -1.3319  1.2046  0.2159
12417TIP3    H258667   2.107   6.148  15.981  0.0092 -2.4570  0.6624
12418TIP3   OH258668   6.328   4.128  13.683  0.3944 -0.1017 -0.8369
12418TIP3    H158669   6.233   4.118  13.697  0.4961 -1.0895 -0.7453
12418TIP3    H258670   6.367   4.063  13.742  1.0371 -1.1043 -2.3031
12419TIP3   OH258671   5.539   4.618  17.425 -0.0487 -0.2116 -0.7679
12419TIP3    H158672   5.630   4.595  17.404 -0.3481 -1.9967 -0.3223
12419TIP3    H258673   5.523   4.700  17.378  2.4586  1.3659  0.9276
12420TIP3   OH258674   2.495   1.202  16.209  0.1058 -0.3306  0.0511
12420TIP3    H158675   2.486   1.282  16.262  0.4075 -0.1152 -0.2116
12420TIP3    H258676   2.590   1.195  16.194  0.2259 -1.5329  1.2653
12421TIP3   OH258677   0.370   3.563   1.364 -0.1425 -0.6169 -0.1239
12421TIP3    H158678   0.294   3.575   1.307 -0.6977 -1.8273  0.3323
12421TIP3    H258679   0.335   3.574   1.452 -0.0872 -2.4881  0.1618
12422TIP3   OH258680   4.519   2.446   1.927 -0.3305  0.0260 -0.0057
12422TIP3    H158681   4.519   2.447   2.022  1.3419  1.3019  0.0211
12422TIP3    H258682   4.435   2.405   1.903 -0.1382 -1.6799  1.9933
12423TIP3   OH258683   6.258   0.414  13.424 -0.6609 -0.0726  0.3344
12423TIP3    H158684   6.218   0.342  13.376 -0.3375 -1.0268  1.4469
12423TIP3    H258685   6.215   0.412  13.510  0.2539  0.2324  0.8078
12424TIP3   OH258686   0.662   6.450   3.885  0.6691 -0.2595  0.6699
12424TIP3    H158687   0.620   6.535   3.897  0.2469 -0.4160  0.3328
12424TIP3    H258688   0.724   6.463   3.813  0.3573 -0.3236  0.3894
12425TIP3   OH258689   4.768   1.655  13.479  0.8505  0.3220  0.3944
12425TIP3    H158690   4.756   1.622  13.568 -0.7407  2.6331  1.1260
12425TIP3    H258691   4.733   1.586  13.423  1.0788 -0.8022  1.5919
12426TIP3   OH258692   5.244   3.801  11.826 -0.0687  0.3782 -0.1924
12426TIP3    H158693   5.266   3.893  11.840  1.7138 -0.2948  1.9643
12426TIP3    H258694   5.324   3.754  11.847 -1.3240 -1.7474  0.0687
12427TIP3   OH258695   2.337   4.311  13.645  0.1154 -0.2454 -0.3608
12427TIP3    H158696   2.274   4.278  13.709  0.1666 -1.5809 -0.9565
12427TIP3    H258697   2.422   4.278  13.675  0.3382  0.3698 -0.3118
12428TIP3   OH258698   2.278   0.006  12.823 -0.3211 -0.0812  0.0481
12428TIP3    H158699   2.233   0.002  12.739 -0.5240 -0.3393  0.1681
12428TIP3    H258700   2.371   0.004  12.800 -0.3014  1.9837 -0.2973
12429TIP3   OH258701   3.256   2.376  17.272  0.4604  0.9446 -0.0599
12429TIP3    H158702   3.210   2.308  17.223  0.5641  1.3725 -0.7630
12429TIP3    H258703   3.187   2.426  17.315  0.2857  1.2609 -0.6885
12430TIP3   OH258704   0.647   2.696  10.909 -0.0213 -0.1845  0.0162
12430TIP3    H158705   0.604   2.686  10.824  0.3638 -0.1348 -0.1855
12430TIP3    H258706   0.740   2.688  10.890  0.0886  0.2153  0.3796
12431TIP3   OH258707   5.100   2.191  11.308  0.0585  0.2619 -0.0595
12431TIP3    H158708   5.082   2.148  11.392  1.6769  2.9306  1.7813
12431TIP3    H258709   5.153   2.127  11.259 -0.3940 -1.1041  1.1823
12432TIP3   OH258710   0.192   2.994  13.199  0.0587  0.8725  0.0164
12432TIP3    H158711   0.285   2.978  13.214  0.3849  0.6262 -2.0191
12432TIP3    H258712   0.159   2.914  13.160 -0.3448  1.8836 -1.8539
12433TIP3   OH258713   0.841   5.168   6.050  0.0930  0.1884 -0.1492
12433TIP3    H158714   0.781   5.183   6.123 -1.2013 -1.1253 -0.8865
12433TIP3    H258715   0.910   5.111   6.086  0.1166  0.5188  0.3336
12434TIP3   OH258716   0.654   0.176   4.100 -0.0501  0.2287 -0.1148
12434TIP3    H158717   0.740   0.140   4.119 -0.6063 -0.1739  1.8653
12434TIP3    H258718   0.599   0.099   4.085 -0.2093  0.4619 -0.7693
12435TIP3   OH258719   1.873   2.681  13.944 -0.0537 -0.3230  0.0109
12435TIP3    H158720   1.791   2.715  13.979 -0.0829 -0.4118  0.0308
12435TIP3    H258721   1.908   2.627  14.015  0.1830 -0.0231  0.1232
12436TIP3   OH258722   4.784   2.368  14.095 -0.2465 -0.2881  0.3864
12436TIP3    H158723   4.694   2.347  14.069 -0.1312  2.0349 -2.5146
12436TIP3    H258724   4.774   2.419  14.175 -1.7258  1.0190 -0.5445
12437TIP3   OH258725   6.345   2.404  13.403  0.1072 -0.3427  0.4190
12437TIP3    H158726   6.251   2.392  13.387  0.0018  0.3113  0.5269
12437TIP3    H258727   6.352   2.492  13.440  0.8522 -0.0644 -0.3558
12438TIP3   OH258728   2.643   0.403   1.116 -0.2250 -0.0288  0.0756
12438TIP3    H158729   2.561   0.385   1.161  0.1317 -1.8101  0.0787
12438TIP3    H258730   2.637   0.496   1.091 -3.0788 -0.5685 -1.6416
12439TIP3   OH258731   6.682   0.793   4.664  0.2993 -0.0323 -0.0170
12439TIP3    H158732   6.615   0.855   4.636 -0.1724 -0.4075  0.2829
12439TIP3    H258733   6.693   0.810   4.757 -1.4767 -1.9230  0.5944
12440TIP3   OH258734   6.615   5.098  12.502 -0.1796 -0.4470  0.0513
12440TIP3    H158735   6.536   5.149  12.483 -0.0945 -0.3924 -0.1608
12440TIP3    H258736   6.621   5.035  12.430  0.5095  0.1957 -0.4663
12441TIP3   OH258737   1.811   1.588  11.287 -0.3729 -0.2730  0.2897
12441TIP3    H158738   1.870   1.570  11.360  1.7935  2.6662 -0.5265
12441TIP3    H258739   1.857   1.555  11.210  0.0036  1.4676 -0.2854
12442TIP3   OH258740   0.177   3.047  16.677 -1.0446 -0.3612 -0.6255
12442TIP3    H158741   0.128   2.976  16.637 -0.6280 -1.5728  0.9068
12442TIP3    H258742   0.151   3.046  16.769  0.9599 -0.3070 -0.0084
12443TIP3   OH258743   0.562   5.049  12.272  0.3949 -0.1174  0.3282
12443TIP3    H158744   0.506   5.097  12.212  0.1294  1.6358  1.8750
12443TIP3    H258745   0.502   5.007  12.333  0.7013 -0.7586  0.2018
12444TIP3   OH258746   4.276   1.458   1.238  0.3675  0.0441 -0.2794
12444TIP3    H158747   4.196   1.487   1.282  0.2547  0.3603 -0.6844
12444TIP3    H258748   4.262   1.364   1.224 -0.6590  0.3822 -1.7961
12445TIP3   OH258749   3.178   2.153  14.018 -0.0080  0.1615 -0.4508
12445TIP3    H158750   3.114   2.117  13.957 -0.3166  1.5527 -0.9727
12445TIP3    H258751   3.130   2.221  14.066  0.2279 -0.8684  1.3525
12446TIP3   OH258752   6.716   1.638   5.961 -0.1172 -0.4254 -0.2465
12446TIP3    H158753   6.800   1.602   5.933  0.1566  0.0531 -0.0434
12446TIP3    H258754   6.694   1.590   6.041 -0.2980 -0.9227 -0.5930
12447TIP3   OH258755   5.206   4.114   6.447  0.5682 -0.6144  0.1752
12447TIP3    H158756   5.231   4.021   6.446 -0.1406 -0.8098 -0.9422
12447TIP3    H258757   5.123   4.118   6.399  0.7839  0.6462 -0.1433
12448TIP3   OH258758   6.105   5.772  15.462 -0.6764 -0.2144  0.0209
12448TIP3    H158759   6.101   5.695  15.518 -0.9973  0.8380  1.5017
12448TIP3    H258760   6.189   5.764  15.416 -0.4917 -1.2108  0.5152
12449TIP3   OH258761   2.064   2.774   5.538 -0.2921  0.3332  0.1356
12449TIP3    H158762   2.108   2.762   5.622  0.7326 -0.7103 -0.5309
12449TIP3    H258763   1.982   2.819   5.560  1.2794  2.7812  1.3617
12450TIP3   OH258764   6.356   4.117   2.395 -0.1266  0.2461 -0.1057
12450TIP3    H158765   6.412   4.188   2.427 -0.5138  0.7080 -0.4369
12450TIP3    H258766   6.269   4.138   2.429 -0.3097  0.1164 -0.4896
12451TIP3   OH258767   5.166   0.775  10.677  0.0993 -0.1952  0.1212
12451TIP3    H158768   5.118   0.715  10.620  1.0488 -1.8865  1.0153
12451TIP3    H258769   5.252   0.735  10.687  0.6846  1.1955  0.9910
12452TIP3   OH258770   6.071   6.424  13.896 -0.1246 -0.5074 -0.4792
12452TIP3    H158771   6.019   6.390  13.824 -1.5184 -2.3378  1.2685
12452TIP3    H258772   6.125   6.350  13.924  1.5477  0.6130 -0.5702
12453TIP3   OH258773   0.791   6.558  13.007  0.4045  0.2259  0.3987
12453TIP3    H158774   0.790   6.490  13.075  1.9089 -0.5721 -0.3335
12453TIP3    H258775   0.704   6.598  13.013 -0.4312 -1.5398  1.0816
12454TIP3   OH258776   3.518   5.386   2.364 -0.2622 -0.7478  0.4215
12454TIP3    H158777   3.487   5.362   2.277  2.1201 -2.2239 -0.0865
12454TIP3    H258778   3.507   5.481   2.368 -3.3965 -0.9659 -0.1777
12455TIP3   OH258779   5.907   3.435   2.334  0.2994 -0.0400 -0.0111
12455TIP3    H158780   5.866   3.351   2.353 -1.3579  0.7305 -0.0151
12455TIP3    H258781   5.998   3.424   2.362 -0.3305 -1.2245  1.7153
12456TIP3   OH258782   3.736   2.584  17.250 -0.3560  0.1287 -0.2015
12456TIP3    H158783   3.782   2.572  17.167  0.0226 -1.4824  0.2033
12456TIP3    H258784   3.664   2.521  17.247 -0.4100  0.1326  0.6421
12457TIP3   OH258785   5.575   5.761  15.952 -0.1476 -0.2388  0.0201
12457TIP3    H158786   5.601   5.744  16.043 -2.4272  1.6650  1.1441
12457TIP3    H258787   5.499   5.704  15.938  0.8172 -1.2977 -1.1015
12458TIP3   OH258788   0.297   5.930   3.725 -0.3134  0.3581  0.7027
12458TIP3    H158789   0.351   5.965   3.654  0.2025 -0.3275  0.7434
12458TIP3    H258790   0.221   5.892   3.680 -1.9233  3.2473  0.7815
12459TIP3   OH258791   4.682   4.604  14.277  0.2088  0.7832 -0.0347
12459TIP3    H158792   4.622   4.563  14.340 -0.9247  0.3461 -1.3543
12459TIP3    H258793   4.769   4.573  14.303 -0.3869 -0.5450  0.4318
12460TIP3   OH258794   1.588   5.540   3.882 -0.7653 -0.1400  0.1686
12460TIP3    H158795   1.533   5.579   3.950 -0.8446 -1.3061  0.7985
12460TIP3    H258796   1.539   5.463   3.853 -1.4003  1.0660 -2.2189
12461TIP3   OH258797   0.225   3.914  16.720 -0.0538 -0.1992 -0.2253
12461TIP3    H158798   0.296   3.859  16.688 -0.8392 -1.2462 -0.2158
12461TIP3    H258799   0.145   3.869  16.692 -0.7669  1.9278 -1.9967
12462TIP3   OH258800   1.237   1.038  13.658  0.3688 -0.3708  0.2067
12462TIP3    H158801   1.314   0.992  13.692 -0.8598 -1.5127  1.6028
12462TIP3    H258802   1.167   1.017  13.721 -0.6635  2.1133 -0.0022
12463TIP3   OH258803   5.547   1.064   0.456 -0.2586 -0.2568  0.1803
12463TIP3    H158804   5.477   1.129   0.455 -0.7661 -0.7777  0.9000
12463TIP3    H258805   5.575   1.058   0.365 -0.3564  0.7916  0.0628
12464TIP3   OH258806   1.709   3.595   5.549  0.3251  0.3712 -0.2887
12464TIP3    H158807   1.630   3.574   5.600  0.1710  2.0948  0.2467
12464TIP3    H258808   1.695   3.551   5.465 -0.2038 -1.1207  0.5249
12465TIP3   OH258809   0.894   3.128  11.556  0.3166  0.2149  0.0644
12465TIP3    H158810   0.984   3.116  11.525  0.4033 -1.0852  0.7468
12465TIP3    H258811   0.904   3.169  11.642  0.2947 -0.3634  0.3492
12466TIP3   OH258812   3.861   1.095  16.354 -0.2610 -0.0290  0.2815
12466TIP3    H158813   3.870   1.062  16.443  3.5859 -1.7504 -0.5415
12466TIP3    H258814   3.829   1.020  16.304 -2.8311  1.0510  0.1719
12467TIP3   OH258815   2.474   4.893   1.223  0.6852 -0.4443 -0.2781
12467TIP3    H158816   2.424   4.825   1.268 -2.3154  1.8276  0.1798
12467TIP3    H258817   2.501   4.953   1.293  0.8901  0.2317 -0.9213
12468TIP3   OH258818   0.699   4.988   5.062  0.0279 -0.1378 -0.4828
12468TIP3    H158819   0.701   5.006   4.968 -1.7370  1.2105 -0.3120
12468TIP3    H258820   0.758   5.053   5.100  1.2381 -1.0854 -0.6698
12469TIP3   OH258821   5.546   2.421  15.147 -0.1619  1.0227 -0.0248
12469TIP3    H158822   5.466   2.393  15.104 -0.5338 -1.0502  1.8631
12469TIP3    H258823   5.518   2.488  15.210 -0.7794 -0.9272  1.8728
12470TIP3   OH258824   4.767   2.832  13.424 -0.1205  0.0473 -0.3309
12470TIP3    H158825   4.680   2.813  13.389 -0.8149  1.8084  0.3538
12470TIP3    H258826   4.756   2.832  13.519  1.0102 -1.3263 -0.1588
12471TIP3   OH258827   5.935   6.714   2.857  0.1016 -0.1375 -0.0400
12471TIP3    H158828   5.942   6.748   2.946  1.2945 -0.6978  0.0968
12471TIP3    H258829   5.912   6.790   2.804  2.0253  0.7696  0.3583
12472TIP3   OH258830   0.301   5.415   4.880 -0.2795 -0.0644 -0.2740
12472TIP3    H158831   0.260   5.435   4.796 -0.9400  1.6674  0.4129
12472TIP3    H258832   0.249   5.464   4.944  1.5954  0.5149  0.8744
12473TIP3   OH258833   2.906   3.461  16.099  0.7202  0.2169 -0.0718
12473TIP3    H158834   2.993   3.448  16.061  0.4463  0.2943 -0.7361
12473TIP3    H258835   2.847   3.415  16.040  0.2469  0.6506  0.0578
12474TIP3   OH258836   2.372   3.556  11.995  0.0372  0.2990 -0.0817
12474TIP3    H158837   2.439   3.494  12.023  2.8739  3.3389  0.4901
12474TIP3    H258838   2.381   3.559  11.900  2.0426  1.8795  0.0853
12475TIP3   OH258839   1.101   4.159   3.142  0.6858  0.0603 -0.3131
12475TIP3    H158840   1.131   4.250   3.147 -0.9597  0.5838  0.8932
12475TIP3    H258841   1.023   4.161   3.087 -0.2199 -0.3455  0.9061
12476TIP3   OH258842   0.323   1.047  14.110 -0.0634 -0.2380  0.3201
12476TIP3    H158843   0.396   1.070  14.167 -0.4115  0.6812  0.4150
12476TIP3    H258844   0.330   0.953  14.097  0.8504 -0.2267  0.7251
12477TIP3   OH258845   3.084   4.512  15.628 -0.5743  0.4058  0.1798
12477TIP3    H158846   3.016   4.445  15.632  0.9983 -1.2317  0.9479
12477TIP3    H258847   3.085   4.551  15.715 -1.6724  1.6766 -0.3458
12478TIP3   OH258848   5.055   5.981  11.510  0.1312 -0.0236 -0.2879
12478TIP3    H158849   4.966   6.016  11.506 -0.8906 -2.5115 -2.9015
12478TIP3    H258850   5.109   6.050  11.470 -0.7565  1.0515  0.2920
12479TIP3   OH258851   3.648   5.626  10.956  0.2383 -0.3461  0.8851
12479TIP3    H158852   3.635   5.533  10.975 -0.6993  0.1967  3.0801
12479TIP3    H258853   3.732   5.647  10.996 -0.8633  0.3589  2.9627
12480TIP3   OH258854   3.346   4.420  17.048  0.6197  0.0832 -0.1512
12480TIP3    H158855   3.435   4.457  17.045 -0.6093  3.2568 -2.0249
12480TIP3    H258856   3.297   4.481  17.103 -1.4665  1.2862 -3.1497
12481TIP3   OH258857   1.123   4.789   5.219 -0.1897  0.6401  0.0900
12481TIP3    H158858   1.116   4.771   5.312  0.6931 -0.6635 -0.0749
12481TIP3    H258859   1.037   4.767   5.183 -0.0951 -0.2699  0.3914
12482TIP3   OH258860   2.236   6.340   1.496  0.0215 -0.0697  0.4645
12482TIP3    H158861   2.195   6.344   1.410 -0.3440  1.2362  0.6907
12482TIP3    H258862   2.326   6.313   1.478  0.3784  1.6540 -0.4810
12483TIP3   OH258863   3.235   3.892   0.430 -0.0829 -0.0728  0.1447
12483TIP3    H158864   3.142   3.914   0.435 -0.6398 -2.2087 -0.1697
12483TIP3    H258865   3.249   3.829   0.500  1.0647 -0.0707 -0.0602
12484TIP3   OH258866   2.492   1.296   3.671  0.2692 -0.1838  0.1128
12484TIP3    H158867   2.539   1.223   3.632  1.3158  2.0932 -3.3882
12484TIP3    H258868   2.560   1.362   3.688 -0.9925  1.2767 -0.2703
12485TIP3   OH258869   1.959   1.845   4.160  0.1297 -0.1227  0.4392
12485TIP3    H158870   1.984   1.927   4.117 -0.6780 -0.5600 -0.9397
12485TIP3    H258871   2.025   1.833   4.228 -0.0194  1.9194  1.0325
12486TIP3   OH258872   4.702   4.507   5.691  0.3580  0.3628  0.4497
12486TIP3    H158873   4.688   4.579   5.752  1.4879  0.0425  1.1063
12486TIP3    H258874   4.722   4.431   5.747 -0.7404 -0.4597 -0.2281
12487TIP3   OH258875   2.323   3.604   6.522  0.4732 -0.2269 -0.5086
12487TIP3    H158876   2.286   3.670   6.464 -2.1194 -1.8546 -0.8701
12487TIP3    H258877   2.334   3.649   6.606 -0.4745  0.8582 -0.9402
12488TIP3   OH258878   1.258   3.570   0.012  0.2064 -0.1173 -0.0422
12488TIP3    H158879   1.311   3.587   0.089 -0.0704  0.5077  0.0157
12488TIP3    H258880   1.308   3.506  -0.039  0.5151 -0.3212  0.5191
12489TIP3   OH258881   4.108   2.153  12.781  0.6720  0.1561  0.2753
12489TIP3    H158882   4.188   2.197  12.753  0.0799  1.4303  0.5252
12489TIP3    H258883   4.039   2.190  12.727 -0.0841  0.7311  1.5714
12490TIP3   OH258884   5.237   0.727   0.845  0.2367  0.3804  0.6079
12490TIP3    H158885   5.297   0.699   0.775 -2.0515  0.2167 -1.3958
12490TIP3    H258886   5.284   0.706   0.926  2.3601 -0.8825 -0.8474
12491TIP3   OH258887   2.963   4.093  16.950 -0.4613 -0.1230  0.0479
12491TIP3    H158888   2.881   4.130  16.983 -0.1246  0.5461  0.1473
12491TIP3    H258889   3.032   4.144  16.993  0.0056 -0.2779 -0.4949
12492TIP3   OH258890   6.281   1.748   4.865  0.0956 -0.1930  0.0917
12492TIP3    H158891   6.367   1.753   4.823  1.3499  1.5912  2.5387
12492TIP3    H258892   6.294   1.688   4.939 -0.0778  1.6328  1.6983
12493TIP3   OH258893   1.333   0.359  17.285 -0.4931 -0.4408 -0.4587
12493TIP3    H158894   1.381   0.337  17.365  0.2922 -0.8942 -1.0400
12493TIP3    H258895   1.327   0.277  17.237  0.2179  0.0778 -1.4704
12494TIP3   OH258896   6.540   3.983   6.620 -0.2321 -0.6049 -0.0564
12494TIP3    H158897   6.471   4.031   6.574 -0.4036  0.9234  1.6891
12494TIP3    H258898   6.620   4.032   6.603  0.6819 -2.7540 -2.6519
12495TIP3   OH258899   2.314   4.559  15.879 -0.3009  0.5210 -0.1711
12495TIP3    H158900   2.247   4.532  15.941  0.7400  0.1936  0.8293
12495TIP3    H258901   2.372   4.617  15.929  0.3936  0.4762 -0.9005
12496TIP3   OH258902   4.995   3.025   4.395 -0.4007 -0.1622 -0.6848
12496TIP3    H158903   4.922   3.054   4.340  0.9385  1.3616 -1.7609
12496TIP3    H258904   4.975   3.058   4.482 -1.0836  0.0778 -0.9311
12497TIP3   OH258905   1.555   0.537  13.652  0.3222  0.5627  0.6421
12497TIP3    H158906   1.631   0.516  13.706  1.8722  1.2472 -1.1860
12497TIP3    H258907   1.553   0.468  13.585 -1.0698  0.1948  1.0212
12498TIP3   OH258908   0.871   0.272  11.765  0.5318  0.2896  0.6370
12498TIP3    H158909   0.926   0.225  11.827 -1.5139  1.5549  3.6585
12498TIP3    H258910   0.919   0.352  11.745  0.6479  0.5002  1.7145
12499TIP3   OH258911   2.949   6.583   2.270 -0.0653 -0.3844  0.7180
12499TIP3    H158912   2.900   6.508   2.237 -1.5011  0.2461  1.3164
12499TIP3    H258913   2.959   6.567   2.363 -1.1234  0.5356  1.0088
12500TIP3   OH258914   4.085   0.106   0.540 -0.2451 -0.0693 -0.1977
12500TIP3    H158915   4.056   0.015   0.542  0.9217 -0.4572  0.0258
12500TIP3    H258916   4.023   0.150   0.483 -0.3401 -1.1878 -0.9816
12501TIP3   OH258917   0.697   4.312   1.698 -0.6793  0.1111  0.1284
12501TIP3    H158918   0.671   4.372   1.768  2.3354 -0.1291  1.6163
12501TIP3    H258919   0.666   4.227   1.727  2.0554 -0.2927  2.2276
12502TIP3   OH258920   0.949   1.967  15.735 -1.1203  0.0542 -0.4867
12502TIP3    H158921   1.014   1.917  15.685 -1.7591  0.5538 -1.8835
12502TIP3    H258922   0.955   2.056  15.700 -2.1803  0.2190 -0.2791
12503TIP3   OH258923   0.384   1.210   3.795 -0.7334  0.4551 -0.1518
12503TIP3    H158924   0.462   1.265   3.800 -0.3709 -0.0858  0.3457
12503TIP3    H258925   0.400   1.141   3.860  0.1005 -1.8205 -2.5755
12504TIP3   OH258926   2.608   4.013  15.497 -0.0565  0.4862  0.5212
12504TIP3    H158927   2.636   4.104  15.507  1.4257 -0.1031  2.3710
12504TIP3    H258928   2.646   3.968  15.572 -0.1784 -1.8097 -0.6966
12505TIP3   OH258929   2.687   3.926   4.021 -0.5565  0.0167 -0.6318
12505TIP3    H158930   2.774   3.903   3.991 -0.2383  1.6987 -1.1227
12505TIP3    H258931   2.633   3.923   3.942 -1.1751 -1.8615 -0.1874
12506TIP3   OH258932   2.361   3.691  13.905  0.4588 -0.8588 -0.5636
12506TIP3    H158933   2.370   3.688  13.810  3.0042 -0.0093 -0.4144
12506TIP3    H258934   2.424   3.626  13.937  1.2699  0.4186  0.5593
12507TIP3   OH258935   1.143   1.041   5.912 -0.7024  0.2352 -0.4409
12507TIP3    H158936   1.219   1.016   5.963 -0.4952 -2.6821 -1.9315
12507TIP3    H258937   1.171   1.118   5.863  1.0621 -0.3450 -0.4192
12508TIP3   OH258938   2.310   0.976   5.122  0.6794 -0.2446 -0.1476
12508TIP3    H158939   2.217   0.958   5.109 -0.3420  2.1278  2.6574
12508TIP3    H258940   2.330   1.045   5.059  0.6207 -0.9464 -0.9395
12509TIP3   OH258941   0.081   0.808   1.798  0.1701  0.2633  0.3927
12509TIP3    H158942  -0.011   0.782   1.800 -0.1832  1.5135  0.9660
12509TIP3    H258943   0.106   0.801   1.706 -1.0473  1.7192 -0.0791
12510TIP3   OH258944   4.531   5.062   3.334  0.8887  0.2028  0.5886
12510TIP3    H158945   4.611   5.028   3.374  2.3294  1.9551 -0.6393
12510TIP3    H258946   4.515   5.145   3.379  0.9421  0.8431 -0.5421
12511TIP3   OH258947   6.406   3.333  12.226  0.1794 -0.1166  0.1792
12511TIP3    H158948   6.339   3.264  12.228  1.3767 -1.3387 -0.0609
12511TIP3    H258949   6.418   3.358  12.317 -0.4438 -0.0236  0.2442
12512TIP3   OH258950   0.332   6.599   5.825 -0.3978 -0.3107  0.4134
12512TIP3    H158951   0.357   6.545   5.899  0.6482 -1.0937 -0.4728
12512TIP3    H258952   0.370   6.685   5.844  1.2711 -0.9253  0.0816
12513TIP3   OH258953   2.547   2.931  11.488 -0.6828 -0.2307  0.2638
12513TIP3    H158954   2.481   2.873  11.526  0.0474 -0.2591  1.5683
12513TIP3    H258955   2.514   3.019  11.504 -0.5583 -0.2515  0.6576
12514TIP3   OH258956   4.220   6.471  14.570 -0.0460  0.4295 -0.0507
12514TIP3    H158957   4.233   6.535  14.641  0.9293  0.1453  0.0420
12514TIP3    H258958   4.193   6.524  14.495  1.1713  1.0289 -0.0972
12515TIP3   OH258959   5.873   3.498   3.482 -0.7899  0.2037  0.4208
12515TIP3    H158960   5.943   3.468   3.540 -1.8370  0.7114  2.0301
12515TIP3    H258961   5.918   3.546   3.412  0.5802 -1.2520  0.2531
12516TIP3   OH258962   4.215   5.929  16.404 -0.3395  0.6401  0.6993
12516TIP3    H158963   4.308   5.930  16.379 -0.9814 -2.0582 -2.5170
12516TIP3    H258964   4.170   5.970  16.330 -1.8395 -0.5740  0.8793
12517TIP3   OH258965   2.230   1.514   2.086 -0.0038  0.1434 -0.3111
12517TIP3    H158966   2.295   1.493   2.019 -0.2079  2.1300 -1.2169
12517TIP3    H258967   2.281   1.534   2.164  0.4322  0.8582 -0.7720
12518TIP3   OH258968   4.911   0.115   5.171  0.0422  0.2966  0.0112
12518TIP3    H158969   5.002   0.099   5.195  0.1068  0.2345 -0.2810
12518TIP3    H258970   4.893   0.055   5.099 -0.5295 -0.4104  0.7155
12519TIP3   OH258971   6.036   1.749   3.401  0.1205  0.2989  0.4712
12519TIP3    H158972   6.071   1.701   3.326  0.5620  0.7361  0.3890
12519TIP3    H258973   5.950   1.781   3.371  0.5050  0.8875 -0.0317
12520TIP3   OH258974   0.208   5.417   4.366  0.7104 -0.0500  0.1423
12520TIP3    H158975   0.230   5.348   4.429  0.7500  1.6253  2.0458
12520TIP3    H258976   0.119   5.444   4.389  1.1694  1.4188  0.3248
12521TIP3   OH258977   5.915   3.934   1.281  0.1382 -0.3443  0.0835
12521TIP3    H158978   5.957   3.971   1.203  0.2531 -1.8215 -0.5992
12521TIP3    H258979   5.901   4.009   1.339  2.5453  0.4119 -0.2079
12522TIP3   OH258980   2.135   4.840   1.747 -0.2151  0.3010  0.3942
12522TIP3    H158981   2.059   4.790   1.715 -0.5347  1.1311 -0.1552
12522TIP3    H258982   2.203   4.773   1.759 -0.8226 -0.3621  0.2536
12523TIP3   OH258983   4.288   6.355   2.752  0.3212 -0.2419 -0.3226
12523TIP3    H158984   4.309   6.417   2.681 -0.3408 -0.8596 -1.0906
12523TIP3    H258985   4.219   6.299   2.714  0.8538 -1.4008  0.3795
12524TIP3   OH258986   6.655   4.336   5.376  0.1615  0.1627  0.5496
12524TIP3    H158987   6.733   4.298   5.417  1.2031  0.9349 -0.6559
12524TIP3    H258988   6.619   4.264   5.324  0.9766  0.2121 -0.1172
12525TIP3   OH258989   4.242   3.427  16.982 -0.1329 -0.9185 -0.0154
12525TIP3    H158990   4.210   3.489  16.917  0.0815  0.8049  1.4294
12525TIP3    H258991   4.244   3.343  16.937  0.8983  0.3499 -2.5128
12526TIP3   OH258992   2.666   1.689  16.767 -0.0264 -0.0756  0.4156
12526TIP3    H158993   2.753   1.676  16.729  0.9803  2.8846  1.3634
12526TIP3    H258994   2.605   1.663  16.699  1.6771  0.6136 -1.4603
12527TIP3   OH258995   0.402   3.194  11.211  0.7231  0.4126  0.1958
12527TIP3    H158996   0.429   3.189  11.303 -0.9043  0.3304  0.7129
12527TIP3    H258997   0.483   3.203  11.162  1.6979 -0.4278  1.5763
12528TIP3   OH258998   0.550   4.598   1.344 -0.0323 -0.2221 -0.6407
12528TIP3    H158999   0.479   4.655   1.374  1.1656  0.9612  0.0823
12528TIP3    H259000   0.623   4.658   1.327  0.9417 -1.4423 -0.9028
12529TIP3   OH259001   2.444   5.781  15.688  0.2248  0.9462  0.1560
12529TIP3    H159002   2.494   5.725  15.748 -0.0173  0.3448 -0.1956
12529TIP3    H259003   2.440   5.730  15.607 -1.0148  0.9665  0.1991
12530TIP3   OH259004   5.759   5.243  13.194  0.3946  0.2167  0.3448
12530TIP3    H159005   5.706   5.163  13.200  0.8706 -0.1812 -0.6483
12530TIP3    H259006   5.721   5.301  13.260 -1.5050  0.0618 -0.5327
12531TIP3   OH259007   6.063   1.370   1.249  0.1541 -0.5016 -0.2727
12531TIP3    H159008   6.002   1.373   1.323 -0.2050  1.1405 -0.6065
12531TIP3    H259009   6.049   1.452   1.203  2.0881 -0.4368 -0.8154
12532TIP3   OH259010   3.509   5.248  12.504 -0.1907 -0.4456 -0.4410
12532TIP3    H159011   3.523   5.165  12.550 -0.4687  0.3724  1.1777
12532TIP3    H259012   3.419   5.273  12.528  0.0863  0.5913 -0.4610
12533TIP3   OH259013   5.017   2.137   3.262 -0.0637 -0.5820  0.1543
12533TIP3    H159014   5.095   2.083   3.248  1.9062  1.8149  1.0692
12533TIP3    H259015   5.036   2.219   3.216 -0.6156  1.2240  2.8998
12534TIP3   OH259016   0.981   3.675  13.900  0.0616  0.1930 -0.1664
12534TIP3    H159017   0.984   3.580  13.909 -3.6640  0.0026  0.2772
12534TIP3    H259018   0.954   3.707  13.986 -1.9381  1.3196 -1.1511
12535TIP3   OH259019   5.636   2.798   2.241 -0.1571 -0.2906 -0.2312
12535TIP3    H159020   5.552   2.800   2.196 -1.2413  3.0407  1.5917
12535TIP3    H259021   5.636   2.715   2.288 -1.3680 -1.3646 -1.9984
12536TIP3   OH259022   1.717   6.660  11.370 -0.2412  0.3538 -0.0811
12536TIP3    H159023   1.693   6.750  11.347 -4.7834 -0.0083  2.2329
12536TIP3    H259024   1.663   6.605  11.312 -0.2828 -0.7789  0.9880
12537TIP3   OH259025   2.171   3.246   3.253 -0.8919 -0.1133 -0.2105
12537TIP3    H159026   2.133   3.299   3.323  0.5961 -1.0695  1.3814
12537TIP3    H259027   2.115   3.168   3.249 -1.5842  0.3992 -0.8267
12538TIP3   OH259028   3.544   3.678  14.993 -0.0147 -0.0749  0.2456
12538TIP3    H159029   3.505   3.757  14.957  0.1831 -0.4034 -0.7300
12538TIP3    H259030   3.480   3.609  14.974  0.6785 -0.4844 -0.7063
12539TIP3   OH259031   3.796   5.288   3.555  0.9780 -0.0171 -0.4194
12539TIP3    H159032   3.736   5.334   3.496  1.0317  0.7878  0.1320
12539TIP3    H259033   3.800   5.199   3.521  1.1062  0.4613 -1.7013
12540TIP3   OH259034   1.291   4.580   1.898  0.4486  0.7144  0.1788
12540TIP3    H159035   1.351   4.506   1.894 -1.1638 -0.7127  0.9233
12540TIP3    H259036   1.330   4.640   1.961  1.0407 -0.2252  0.7182
12541TIP3   OH259037   5.198   0.957   0.287  0.8298  0.3896  0.4051
12541TIP3    H159038   5.155   1.043   0.279 -0.9454 -0.4508  0.5765
12541TIP3    H259039   5.199   0.940   0.381  2.9416  1.0318  0.5579
12542TIP3   OH259040   0.934   5.178  16.797  0.5075 -0.3076 -0.4229
12542TIP3    H159041   0.872   5.111  16.824  1.1276 -1.0880 -0.8984
12542TIP3    H259042   0.958   5.154  16.708  1.5301 -0.0531 -0.2284
12543TIP3   OH259043   4.993   5.314  12.157 -1.0207  0.9537 -0.0302
12543TIP3    H159044   5.023   5.400  12.185  0.8265  0.3109  0.1128
12543TIP3    H259045   4.981   5.265  12.238  0.4006  0.3454 -0.1387
12544TIP3   OH259046   6.526   0.049  16.990  0.0070 -0.2191 -0.2532
12544TIP3    H159047   6.451   0.058  16.930 -0.6708 -0.3932  0.5543
12544TIP3    H259048   6.595   0.102  16.949 -0.1182 -1.1099 -1.6916
12545TIP3   OH259049   4.276   0.214  16.233  0.0494  0.0060  0.3947
12545TIP3    H159050   4.256   0.133  16.279  0.1104 -0.7420 -0.8413
12545TIP3    H259051   4.205   0.274  16.258 -0.7816 -0.8830  0.2521
12546TIP3   OH259052   6.343   0.385   1.043 -0.2768  0.6451  0.6168
12546TIP3    H159053   6.413   0.320   1.030 -0.3783  0.2364  1.9072
12546TIP3    H259054   6.344   0.438   0.963  0.6240 -0.1831  0.0495
12547TIP3   OH259055   4.901   5.396  11.486  0.1820 -0.3360  0.6361
12547TIP3    H159056   4.811   5.420  11.507  0.2832  0.1660  0.5048
12547TIP3    H259057   4.903   5.300  11.493 -0.6070 -0.4356 -0.3504
12548TIP3   OH259058   4.130   3.761  13.893  0.3479  0.2666  0.2444
12548TIP3    H159059   4.084   3.841  13.921 -1.1123 -0.9340  1.5363
12548TIP3    H259060   4.159   3.779  13.804 -2.2628  1.3281 -0.4836
12549TIP3   OH259061   5.903   2.423   2.426  0.1711 -0.5442  0.0422
12549TIP3    H159062   5.959   2.405   2.502  0.5427 -2.5712 -0.6569
12549TIP3    H259063   5.887   2.338   2.387  1.0980  0.5061 -2.9617
12550TIP3   OH259064   2.749   6.022  14.146 -0.3124 -0.2479  0.2611
12550TIP3    H159065   2.777   6.076  14.220 -0.1970  0.1904 -0.0953
12550TIP3    H259066   2.718   5.941  14.186 -0.6620  0.1531  0.8226
12551TIP3   OH259067   1.582   2.709   5.373 -0.6403 -0.0582 -0.1231
12551TIP3    H159068   1.599   2.682   5.463  1.9132 -0.9728 -0.7945
12551TIP3    H259069   1.588   2.805   5.376  0.8380 -0.1399  0.4780
12552TIP3   OH259070   6.082   4.289   1.449 -0.0273  0.0619  0.1140
12552TIP3    H159071   6.007   4.231   1.466 -0.2570  0.4403  0.3920
12552TIP3    H259072   6.158   4.230   1.449 -0.3094 -0.3063 -0.0590
12553TIP3   OH259073   0.772   3.488  12.668 -0.2122 -0.3737 -0.3594
12553TIP3    H159074   0.701   3.540  12.629 -0.2904 -0.0520  0.1949
12553TIP3    H259075   0.728   3.432  12.732 -0.0690 -0.8033 -0.6377
12554TIP3   OH259076   2.292   1.620   2.368  0.2615 -0.0870  0.4878
12554TIP3    H159077   2.205   1.657   2.384 -0.2578 -1.2752  0.5447
12554TIP3    H259078   2.312   1.571   2.448  0.5722 -0.5746  0.1186
12555TIP3   OH259079   3.048   1.838  11.241 -0.1295  0.0815 -0.1636
12555TIP3    H159080   3.034   1.749  11.211 -0.0600 -0.3155  0.9383
12555TIP3    H259081   2.982   1.852  11.309  0.1302  0.7184 -0.0271
12556TIP3   OH259082   4.219   0.626  11.499 -0.0148  0.1026  0.1293
12556TIP3    H159083   4.151   0.662  11.442 -1.8946 -0.6635  1.7354
12556TIP3    H259084   4.206   0.531  11.493  2.8792 -0.2939 -1.7244
12557TIP3   OH259085   4.472   2.615  15.736  0.0870  0.2295 -0.5943
12557TIP3    H159086   4.456   2.699  15.779 -1.7448 -1.1487  1.6546
12557TIP3    H259087   4.515   2.562  15.803 -0.7463 -1.2713 -1.2045
12558TIP3   OH259088   4.900   3.763   0.081  0.6295  0.0222 -0.1512
12558TIP3    H159089   4.896   3.729   0.170 -0.6885 -0.5034 -0.3904
12558TIP3    H259090   4.842   3.706   0.031  0.8015  0.7477 -1.2020
12559TIP3   OH259091   0.666   6.055   2.129  0.5643 -0.2679  0.1478
12559TIP3    H159092   0.762   6.048   2.136  0.7246  0.3033 -1.2472
12559TIP3    H259093   0.638   6.079   2.218  1.8303  0.6603  0.3339
12560TIP3   OH259094   0.031   6.535   4.857 -0.3061  0.4332  0.3283
12560TIP3    H159095  -0.031   6.571   4.921  1.8433  1.6123  1.8428
12560TIP3    H259096   0.043   6.444   4.884 -1.9780 -0.1003 -0.5333
12561TIP3   OH259097   0.434   4.930   5.093 -0.1069 -0.5633 -0.6527
12561TIP3    H159098   0.526   4.953   5.083 -0.6850  1.4176 -2.0580
12561TIP3    H259099   0.418   4.937   5.188  0.7313  1.1931 -0.5863
12562TIP3   OH259100   0.827   6.382  13.197  0.0817  0.2360 -0.2896
12562TIP3    H159101   0.918   6.381  13.226 -0.7587  0.3057  2.6857
12562TIP3    H259102   0.799   6.290  13.202 -0.2716  0.3397 -0.3364
12563TIP3   OH259103   2.030   6.149   0.517 -0.4434 -0.2149  0.4450
12563TIP3    H159104   2.097   6.099   0.471 -0.2781  0.0673  0.3730
12563TIP3    H259105   2.045   6.240   0.490 -2.3510 -0.3954 -1.4391
12564TIP3   OH259106   2.125   0.372   1.718  0.6431 -0.2755  0.1224
12564TIP3    H159107   2.140   0.398   1.809 -0.1685  1.5556 -0.2244
12564TIP3    H259108   2.054   0.309   1.723  1.0611 -0.7058  0.8098
12565TIP3   OH259109   6.114   1.507  11.922  0.5317  0.4155  0.0544
12565TIP3    H159110   6.079   1.590  11.889 -0.0456  0.2548  0.2474
12565TIP3    H259111   6.209   1.516  11.914  0.4299  0.3307 -1.8351
12566TIP3   OH259112   6.686   4.857  11.864 -0.1670  0.5726 -0.6724
12566TIP3    H159113   6.689   4.763  11.883  0.6302  0.7491  0.1375
12566TIP3    H259114   6.646   4.896  11.941  0.6454  1.0136 -0.4554
12567TIP3   OH259115   4.581   4.191  16.010  0.0134  0.1814 -0.2163
12567TIP3    H159116   4.622   4.132  16.073 -0.8635  0.3723  0.5514
12567TIP3    H259117   4.643   4.194  15.936  0.8126 -0.4399  0.4094
12568TIP3   OH259118   4.559   0.340   0.703 -0.2712 -0.2098 -0.3507
12568TIP3    H159119   4.648   0.312   0.679 -0.1196  0.8284 -1.0433
12568TIP3    H259120   4.525   0.381   0.624 -1.9150 -1.8351 -0.5528
12569TIP3   OH259121   0.832   1.131   2.916  0.1390  0.3148 -0.1548
12569TIP3    H159122   0.836   1.212   2.968 -0.3751 -0.0167  0.4158
12569TIP3    H259123   0.763   1.148   2.851  0.0945  0.3642 -0.0946
12570TIP3   OH259124   5.040   3.797   5.300 -0.4069 -0.1707  0.1010
12570TIP3    H159125   4.947   3.774   5.303 -1.1048  2.4785  1.0459
12570TIP3    H259126   5.056   3.822   5.209 -0.4450 -1.1154 -0.1822
12571TIP3   OH259127   1.619   5.957  14.732 -0.2291 -0.2822  0.5123
12571TIP3    H159128   1.652   5.873  14.699 -0.8438 -0.7602  1.0732
12571TIP3    H259129   1.611   6.012  14.654 -1.5913 -1.3614 -0.1668
12572TIP3   OH259130   4.330   5.323   2.675  0.0650 -0.5639 -0.2401
12572TIP3    H159131   4.411   5.374   2.670 -0.8744  1.1230  0.8875
12572TIP3    H259132   4.360   5.232   2.685  1.8642  0.1710  1.7607
12573TIP3   OH259133   3.682   1.730  14.733  0.2444  0.4342  0.6760
12573TIP3    H159134   3.663   1.791  14.662  0.3841  1.6146  1.6231
12573TIP3    H259135   3.601   1.681  14.745  0.2915  0.0439 -0.4297
12574TIP3   OH259136   3.892   4.735  16.173 -0.5798  0.4982 -0.7601
12574TIP3    H159137   3.973   4.778  16.147 -1.4055  1.6644 -1.4567
12574TIP3    H259138   3.894   4.736  16.269 -0.2479  1.4291 -0.7733
12575TIP3   OH259139   1.714   2.388   0.616 -0.0186 -0.0539 -0.0252
12575TIP3    H159140   1.727   2.363   0.524 -0.0793 -0.1292 -0.0133
12575TIP3    H259141   1.675   2.476   0.611 -0.0749 -0.0813 -0.0730
12576TIP3   OH259142   3.894   0.308   3.597  0.4413 -0.0834 -0.1827
12576TIP3    H159143   3.811   0.266   3.574  0.9802 -2.0181  1.0711
12576TIP3    H259144   3.960   0.254   3.555  1.1602 -0.3861  1.2572
12577TIP3   OH259145   4.364   3.405   5.146 -0.6257 -0.4614  0.1208
12577TIP3    H159146   4.309   3.327   5.145 -0.8718 -0.3299  1.3444
12577TIP3    H259147   4.439   3.380   5.201  0.1215 -0.3603 -0.8280
12578TIP3   OH259148   1.775   1.327  13.526 -0.1481  0.1218  0.1729
12578TIP3    H159149   1.699   1.337  13.469 -1.2412 -0.8197  1.3838
12578TIP3    H259150   1.841   1.287  13.471 -1.0688 -0.4885 -0.5215
12579TIP3   OH259151   5.969   6.543   4.633  0.0405  0.0459 -0.5095
12579TIP3    H159152   6.043   6.603   4.641 -1.3061  1.8277 -0.8593
12579TIP3    H259153   5.973   6.489   4.712  0.4608  1.5665  0.5401
12580TIP3   OH259154   6.350   5.378  11.502  0.1135  0.7459  0.1841
12580TIP3    H159155   6.322   5.424  11.582  0.2829  0.9114  0.1505
12580TIP3    H259156   6.367   5.448  11.439 -0.7151  0.5829 -0.2308
12581TIP3   OH259157   3.884   3.411   1.058  0.4690 -0.3780 -0.2647
12581TIP3    H159158   3.920   3.324   1.073 -0.1957 -0.5163  0.5756
12581TIP3    H259159   3.799   3.395   1.017  0.1710 -0.1405  0.2578
12582TIP3   OH259160   6.078   2.012   5.469 -0.3552  0.3627 -0.1616
12582TIP3    H159161   5.990   2.037   5.441 -0.3344 -0.4196 -0.9733
12582TIP3    H259162   6.064   1.949   5.540 -0.4207  1.4342  0.7980
12583TIP3   OH259163   4.753   1.428   4.508 -0.5104  0.1883 -0.3945
12583TIP3    H159164   4.824   1.492   4.514 -1.0441  0.7354  0.3612
12583TIP3    H259165   4.710   1.445   4.424 -0.5866  0.7601 -0.2395
12584TIP3   OH259166   2.009   0.412   4.465 -0.3834 -0.3936 -0.0139
12584TIP3    H159167   1.936   0.457   4.423  0.3890  0.3745 -0.5827
12584TIP3    H259168   2.079   0.477   4.467  1.2298 -1.9414 -2.0470
12585TIP3   OH259169   5.822   6.011   5.867 -0.0844  0.1335 -0.1440
12585TIP3    H159170   5.884   5.974   5.929 -1.0764  0.6068  1.1728
12585TIP3    H259171   5.796   6.095   5.905 -0.5168  0.5746 -1.3440
12586TIP3   OH259172   3.947   2.882   0.734 -0.9603  0.4270  0.3749
12586TIP3    H159173   4.014   2.949   0.721  0.5973 -1.3007 -0.9644
12586TIP3    H259174   3.994   2.808   0.773 -2.1188 -0.7720 -0.4202
12587TIP3   OH259175   5.946   1.235   3.971 -0.0551 -0.4385 -0.0765
12587TIP3    H159176   5.866   1.182   3.964  0.7930 -2.2340  2.4556
12587TIP3    H259177   6.014   1.172   3.996  1.8915  1.2641 -0.8704
12588TIP3   OH259178   0.116   4.107  12.843  0.2963  0.2052 -0.0811
12588TIP3    H159179   0.056   4.117  12.916  0.0280 -0.2835 -0.2297
12588TIP3    H259180   0.169   4.187  12.844  0.2271  0.2472  0.5805
12589TIP3   OH259181   0.281   5.462  16.470  0.2542  0.1146  0.5339
12589TIP3    H159182   0.294   5.367  16.474 -2.1061 -0.3081 -0.0683
12589TIP3    H259183   0.358   5.495  16.424 -0.0715 -1.8477 -1.5944
12590TIP3   OH259184   3.460   4.714   2.740  0.1140 -0.0098  0.2577
12590TIP3    H159185   3.538   4.666   2.713 -0.0058 -1.0812  1.6560
12590TIP3    H259186   3.485   4.806   2.737  1.7487 -0.3681  1.5377
12591TIP3   OH259187   4.049   5.012   1.262  0.6518  0.2109 -0.3181
12591TIP3    H159188   4.033   4.958   1.340 -2.0381 -0.8993 -1.5398
12591TIP3    H259189   4.054   5.101   1.295 -0.3873 -0.2421  1.1404
12592TIP3   OH259190   5.423   2.532  15.623 -0.1403 -0.0931 -0.5973
12592TIP3    H159191   5.360   2.464  15.647 -1.1523  0.5773 -1.3159
12592TIP3    H259192   5.507   2.497  15.653 -0.3516 -2.4872 -2.4850
12593TIP3   OH259193   4.941   4.113   3.778  0.4736  0.7623 -0.0798
12593TIP3    H159194   4.857   4.159   3.768 -0.8556 -1.3218  0.7139
12593TIP3    H259195   4.949   4.061   3.699  1.3589  1.4102 -0.4275
12594TIP3   OH259196   3.395   3.383  15.412 -0.0334  0.2261 -0.6091
12594TIP3    H159197   3.460   3.345  15.352  0.1231 -0.8658  0.2291
12594TIP3    H259198   3.311   3.346  15.384 -0.0682  0.3327 -0.6471
12595TIP3   OH259199   3.919   1.277  11.847  0.5746 -0.3588  0.3941
12595TIP3    H159200   3.968   1.353  11.879 -0.7401  0.7839 -0.2052
12595TIP3    H259201   3.965   1.251  11.766  0.8452 -0.0204  0.4385
12596TIP3   OH259202   4.014   3.773   5.226 -0.2384 -0.7610 -0.1658
12596TIP3    H159203   4.001   3.858   5.268  0.5218 -0.3809 -0.6683
12596TIP3    H259204   3.940   3.720   5.255 -1.3402  0.4113 -0.7194
12597TIP3   OH259205   1.003   6.482   3.242  0.1459 -0.1774 -0.2536
12597TIP3    H159206   1.094   6.495   3.216 -0.1022  3.0603  0.0617
12597TIP3    H259207   0.964   6.433   3.169  2.1172 -1.8720 -0.2679
12598TIP3   OH259208   6.165   1.096   5.201  0.2522 -0.1363 -0.0614
12598TIP3    H159209   6.246   1.107   5.152  1.4887  0.6486  2.0198
12598TIP3    H259210   6.151   1.181   5.243 -3.1870  0.6670 -2.4303
12599TIP3   OH259211   2.179   1.538  16.106  0.2482  0.1845 -0.4069
12599TIP3    H159212   2.142   1.518  16.021  0.9457  0.0222 -0.6807
12599TIP3    H259213   2.270   1.562  16.088  0.3934  0.1894  0.2839
12600TIP3   OH259214   3.538   1.349  15.671  0.1493 -0.4962  0.3582
12600TIP3    H159215   3.449   1.314  15.662  0.8168 -2.6182  1.2082
12600TIP3    H259216   3.541   1.424  15.611 -3.2943  2.0296  2.9530
12601TIP3   OH259217   1.028   0.754  16.169  0.4438 -0.0262 -0.1160
12601TIP3    H159218   0.991   0.680  16.217 -1.8262  0.0278 -1.6088
12601TIP3    H259219   1.074   0.714  16.095  0.7457  0.0152  0.0477
12602TIP3   OH259220   5.513   2.080   0.180  0.6292  0.1025  0.0974
12602TIP3    H159221   5.454   2.148   0.147  0.2253  0.4910  1.5551
12602TIP3    H259222   5.530   2.105   0.271  1.8078 -0.8519  0.1673
12603TIP3   OH259223   5.843   5.267   0.619  0.6545  0.8877  0.1643
12603TIP3    H159224   5.929   5.290   0.583  0.2495  1.5211 -0.4113
12603TIP3    H259225   5.783   5.274   0.545 -0.1647  1.9731  0.9085
12604TIP3   OH259226   4.785   2.823   3.067  0.7433 -0.4254 -0.0343
12604TIP3    H159227   4.850   2.863   3.125  0.3168 -0.5168  0.5031
12604TIP3    H259228   4.793   2.874   2.986 -0.2871  1.2789  0.8649
12605TIP3   OH259229   3.558   5.675   5.207  0.1024  0.7990 -0.9062
12605TIP3    H159230   3.643   5.695   5.247 -0.0257 -0.0171 -0.1998
12605TIP3    H259231   3.509   5.630   5.276 -1.1143  1.7247 -1.1248
12606TIP3   OH259232   2.008   2.208  13.181  0.7344  0.2105 -0.0187
12606TIP3    H159233   2.035   2.179  13.094  0.1361  0.6129 -0.3429
12606TIP3    H259234   2.090   2.230  13.226  1.2833 -2.5031  0.4628
12607TIP3   OH259235   6.379   2.430  16.509 -0.5037 -0.4685 -0.6151
12607TIP3    H159236   6.337   2.498  16.561  1.1252 -0.1882  0.4228
12607TIP3    H259237   6.405   2.474  16.429 -0.0986 -0.0369 -0.2545
12608TIP3   OH259238   3.266   1.814   5.561  0.3335 -0.5643 -0.3099
12608TIP3    H159239   3.326   1.888   5.571 -0.2966  0.1376 -1.5199
12608TIP3    H259240   3.316   1.750   5.510 -0.5925  0.9235 -3.3065
12609TIP3   OH259241   1.826   4.804  16.243  0.3363  0.2013 -0.0029
12609TIP3    H159242   1.883   4.760  16.180 -0.6333 -1.5819  0.2971
12609TIP3    H259243   1.879   4.875  16.278  1.4369  0.2449 -1.6532
12610TIP3   OH259244   6.524   2.861   4.602  0.3022  0.2450  0.2282
12610TIP3    H159245   6.543   2.947   4.641 -3.1641  1.1690  0.2059
12610TIP3    H259246   6.433   2.844   4.625 -0.4921 -1.3920 -3.5050
12611TIP3   OH259247   6.305   3.219   5.615  0.0055 -0.1269 -0.0742
12611TIP3    H159248   6.293   3.217   5.520  1.2908  0.9385 -0.2982
12611TIP3    H259249   6.385   3.271   5.627 -0.9162  0.9871  1.6606
12612TIP3   OH259250   5.502   0.590  16.687 -0.5427  0.5805 -0.3252
12612TIP3    H159251   5.523   0.549  16.603 -0.7991 -0.1555 -0.0475
12612TIP3    H259252   5.460   0.520  16.737  0.8506  0.5828  0.9215
12613TIP3   OH259253   3.879   5.726   4.461 -0.4717  0.4187 -0.5401
12613TIP3    H159254   3.863   5.814   4.425 -1.6767  0.8552  0.9690
12613TIP3    H259255   3.827   5.723   4.541 -0.2513 -1.6098 -0.4319
12614TIP3   OH259256   4.173   6.151  15.782 -0.4188 -0.0011 -0.4374
12614TIP3    H159257   4.098   6.120  15.732 -1.9885  1.6417  0.8044
12614TIP3    H259258   4.192   6.237  15.745  1.2175 -0.5591 -1.0367
12615TIP3   OH259259   6.593   3.057  13.372  0.3687  0.0869 -0.6451
12615TIP3    H159260   6.507   3.024  13.397  0.7219 -0.0764  0.4019
12615TIP3    H259261   6.574   3.135  13.320 -0.4111  0.8328  0.6913
12616TIP3   OH259262   4.848   6.151  13.338 -0.2754 -0.4239  0.6285
12616TIP3    H159263   4.832   6.104  13.420 -3.8814  0.5091  0.6380
12616TIP3    H259264   4.761   6.158  13.298  1.1706  0.3466 -2.6358
12617TIP3   OH259265   2.681   1.183   5.607  0.2747 -0.3403 -0.0172
12617TIP3    H159266   2.771   1.190   5.640  0.1222  0.5124  0.2351
12617TIP3    H259267   2.673   1.091   5.581  1.2616 -0.4015 -0.1646
12618TIP3   OH259268   3.255   5.975  15.047  0.0661 -0.4088 -0.0893
12618TIP3    H159269   3.206   6.009  14.972  0.0877 -0.0541  0.0523
12618TIP3    H259270   3.233   5.882  15.050  0.6738 -0.5860 -0.9944
12619TIP3   OH259271   5.726   4.400  17.125  0.0535  0.1262  0.3131
12619TIP3    H159272   5.708   4.311  17.094  1.6715  0.0568 -0.5182
12619TIP3    H259273   5.647   4.449  17.101 -1.7582 -1.4438  2.5812
12620TIP3   OH259274   4.661   0.104  12.063  0.3430  0.1571  0.4618
12620TIP3    H159275   4.711   0.095  11.982 -0.6398 -0.4719 -0.1059
12620TIP3    H259276   4.667   0.197  12.084 -0.3932  0.5924 -1.0377
12621TIP3   OH259277   2.787   2.182   3.773 -0.4101 -0.1150 -0.3467
12621TIP3    H159278   2.696   2.165   3.798  0.0877 -0.6175  1.2132
12621TIP3    H259279   2.807   2.267   3.812  0.4507 -1.0133  1.2557
12622TIP3   OH259280   6.370   5.163  14.280 -0.1103 -0.4279  0.3149
12622TIP3    H159281   6.298   5.178  14.219  0.8718 -3.5075 -1.8847
12622TIP3    H259282   6.429   5.237  14.267 -0.7156 -0.1944 -1.3012
12623TIP3   OH259283   2.356   6.056  15.432  0.3735 -0.3537 -0.1207
12623TIP3    H159284   2.446   6.042  15.461  0.7415  0.8897 -0.6029
12623TIP3    H259285   2.309   5.978  15.462  2.0915 -2.2451 -1.9428
12624TIP3   OH259286   6.486   1.321  12.545 -0.0167  0.4717 -0.0311
12624TIP3    H159287   6.452   1.270  12.471  0.4642  1.3216 -0.8573
12624TIP3    H259288   6.556   1.266  12.581  0.5264  0.5471 -0.9450
12625TIP3   OH259289   6.239   5.790   1.385  0.5406  0.1284 -0.0047
12625TIP3    H159290   6.231   5.860   1.450 -1.9779 -0.0302 -0.0402
12625TIP3    H259291   6.274   5.716   1.434 -2.3924 -0.3566  1.6270
12626TIP3   OH259292   2.054   2.129  17.253  0.1776 -0.0184  0.1565
12626TIP3    H159293   2.087   2.114  17.165  1.5957 -2.2858  0.9868
12626TIP3    H259294   2.044   2.041  17.290 -1.4106  0.8301  1.9069
12627TIP3   OH259295   1.521   1.559  14.357 -0.1301 -0.1608 -0.7808
12627TIP3    H159296   1.489   1.474  14.325 -3.7279  0.3693  0.9908
12627TIP3    H259297   1.490   1.564  14.447  2.1334  2.0776 -0.0006
12628TIP3   OH259298   3.885   1.317   5.425  0.2879 -0.3484  0.8265
12628TIP3    H159299   3.857   1.338   5.336 -0.3801  0.9911  1.3232
12628TIP3    H259300   3.803   1.306   5.474  0.6440 -1.2345  1.2414
12629TIP3   OH259301   3.111   6.392   1.214 -0.2373 -0.1473  0.1009
12629TIP3    H159302   3.200   6.425   1.211 -0.8077  1.4290 -2.1078
12629TIP3    H259303   3.107   6.326   1.145 -0.7849 -0.1538  0.1345
12630TIP3   OH259304   4.852   6.453   1.251 -0.1292  0.3102  0.0137
12630TIP3    H159305   4.919   6.413   1.196 -0.9813 -1.2207  0.0246
12630TIP3    H259306   4.782   6.477   1.190 -0.1715  0.6035  0.1738
12631TIP3   OH259307   6.704   0.250  13.871  0.0925 -0.1725  0.3565
12631TIP3    H159308   6.768   0.320  13.882 -0.4543  0.5504 -0.8735
12631TIP3    H259309   6.751   0.170  13.894  1.1814  0.4384  0.2817
12632TIP3   OH259310   2.156   4.361  15.373  0.4347  0.4344  0.1551
12632TIP3    H159311   2.145   4.429  15.439 -3.2365 -0.6502  0.8682
12632TIP3    H259312   2.136   4.404  15.290  0.3637  0.7369  0.3312
12633TIP3   OH259313   5.268   0.823  17.187 -0.1688  0.7827 -0.2785
12633TIP3    H159314   5.312   0.758  17.241  0.3746 -0.2031 -1.8494
12633TIP3    H259315   5.268   0.903  17.241  2.4188  0.4888  0.2749
12634TIP3   OH259316   3.877   5.818  16.465 -0.3437 -0.1740  0.0020
12634TIP3    H159317   3.889   5.856  16.377 -0.5927 -1.1780 -0.4837
12634TIP3    H259318   3.901   5.726  16.454  0.3545 -0.1426  1.1783
12635TIP3   OH259319   0.023   3.524   3.696 -0.3216  0.1811 -0.1164
12635TIP3    H159320   0.050   3.433   3.685  0.9832  0.3689  1.2560
12635TIP3    H259321   0.104   3.574   3.693 -1.0037  1.2970 -0.6847
12636TIP3   OH259322   1.409   3.604   0.808  0.3344 -0.6723 -0.5526
12636TIP3    H159323   1.458   3.685   0.797  0.1339 -0.5502 -0.5455
12636TIP3    H259324   1.378   3.606   0.898 -0.6301 -0.2198 -0.8871
12637TIP3   OH259325   5.713   6.636   4.032 -0.0301 -0.0360 -0.6059
12637TIP3    H159326   5.653   6.561   4.029 -1.4650  1.0602 -0.2909
12637TIP3    H259327   5.668   6.701   4.086  1.2658  0.9859 -0.7129
12638TIP3   OH259328   0.970   0.496  16.297  0.0474 -0.1464  0.5189
12638TIP3    H159329   0.977   0.458  16.210 -0.7873  1.9632 -0.5503
12638TIP3    H259330   0.888   0.461  16.333 -0.1147 -0.2589  0.0391
12639TIP3   OH259331   6.676   0.090   5.247 -0.2579  0.0644 -0.7993
12639TIP3    H159332   6.721   0.172   5.223 -1.1584  0.3155 -1.6982
12639TIP3    H259333   6.688   0.083   5.342  1.5924  0.1646 -0.9776
12640TIP3   OH259334   3.358   6.331  16.969  0.6338 -0.1917  0.0448
12640TIP3    H159335   3.268   6.352  16.994  0.1476  0.9566 -2.3686
12640TIP3    H259336   3.375   6.247  17.011 -2.5501 -1.8168 -1.4493
12641TIP3   OH259337   5.825   0.897  17.203 -0.0311 -0.0243 -0.3819
12641TIP3    H159338   5.730   0.905  17.205 -0.1340 -0.2919 -2.1267
12641TIP3    H259339   5.856   0.952  17.275 -1.5344 -0.9520  1.0419
12642TIP3   OH259340   1.437   1.724  14.175 -0.6951 -0.8126  0.1932
12642TIP3    H159341   1.502   1.701  14.109 -1.4309 -3.0793  0.1807
12642TIP3    H259342   1.445   1.656  14.242 -0.9138  0.6529  1.7768
12643TIP3   OH259343   5.010   5.694  15.736 -0.3715  0.1671  0.4407
12643TIP3    H159344   5.001   5.610  15.781 -1.0002  0.6305  1.1962
12643TIP3    H259345   4.972   5.758  15.795 -0.8369  0.8572 -0.5696
12644TIP3   OH259346   0.366   2.752   0.214  0.0114 -0.2221  0.0839
12644TIP3    H159347   0.350   2.691   0.142  1.1977 -0.0485 -0.3503
12644TIP3    H259348   0.447   2.797   0.190  0.9142 -0.7748  1.9418
12645TIP3   OH259349   5.845   4.510  13.005 -0.2578  0.2878 -0.3265
12645TIP3    H159350   5.835   4.427  12.958 -0.4814  0.4749 -0.6177
12645TIP3    H259351   5.921   4.497  13.062  0.4676  0.2922 -1.2638
12646TIP3   OH259352   1.546   3.257  11.355 -0.0936 -0.5918  0.4755
12646TIP3    H159353   1.624   3.211  11.387 -0.5075 -1.5314  0.1664
12646TIP3    H259354   1.553   3.253  11.260 -0.3747 -0.4341  0.4473
12647TIP3   OH259355   0.399   1.573   2.017  0.4635  0.0113  0.5120
12647TIP3    H159356   0.474   1.517   2.038  0.8603  1.2233  2.6327
12647TIP3    H259357   0.352   1.583   2.100 -1.4943  0.1141 -0.5479
12648TIP3   OH259358   5.232   6.433  12.273  0.3544  0.7686 -0.2134
12648TIP3    H159359   5.273   6.425  12.187  0.9343  0.9232  0.0403
12648TIP3    H259360   5.181   6.514  12.268 -1.3608 -0.3235 -1.1038
12649TIP3   OH259361   0.076   0.932  16.350 -0.0449 -0.1010  0.1593
12649TIP3    H159362   0.066   0.933  16.255  1.8674  1.5255 -0.0835
12649TIP3    H259363   0.123   0.850  16.368  1.9446  0.8087 -0.6403
12650TIP3   OH259364   6.400   3.643   2.882 -0.1465  0.0919  0.0312
12650TIP3    H159365   6.449   3.722   2.906  0.1322  0.4218 -1.4691
12650TIP3    H259366   6.447   3.608   2.806  0.3973 -2.1972  1.3299
12651TIP3   OH259367   5.752   1.993   0.057 -0.0413 -0.3054 -0.3244
12651TIP3    H159368   5.677   2.052   0.068 -1.4908 -1.7909 -1.6290
12651TIP3    H259369   5.827   2.043   0.087 -1.2480  2.0348 -1.0146
12652TIP3   OH259370   5.200   4.842   6.113  0.1599  0.2916 -0.3139
12652TIP3    H159371   5.220   4.750   6.099 -1.0402  0.2654 -2.1382
12652TIP3    H259372   5.225   4.858   6.204  0.2285 -1.8626  0.0974
12653TIP3   OH259373   5.027   4.399  14.726  0.0158 -0.1019  0.1689
12653TIP3    H159374   5.021   4.305  14.746 -0.6052 -0.0688  0.1382
12653TIP3    H259375   5.085   4.404  14.650  0.6168 -0.4037  0.5956
12654TIP3   OH259376   0.127   4.560  16.949  0.3793 -0.4320 -0.0762
12654TIP3    H159377   0.184   4.517  16.885 -1.8384 -0.9033 -1.8396
12654TIP3    H259378   0.067   4.492  16.978 -1.0182  0.6389 -0.3360
12655TIP3   OH259379   2.682   4.409  13.169  0.1164 -0.5376 -0.6650
12655TIP3    H159380   2.729   4.325  13.166  0.5018 -0.3047 -1.4493
12655TIP3    H259381   2.750   4.474  13.184 -0.2934 -0.4302  0.8630
12656TIP3   OH259382   0.927   6.385  17.372 -0.0591 -0.3348 -0.5106
12656TIP3    H159383   0.965   6.384  17.284 -4.7745  0.3398 -2.9021
12656TIP3    H259384   0.928   6.477  17.398  0.1034 -0.3422 -0.4920
12657TIP3   OH259385   5.566   0.243  14.918  0.1615  0.7549  0.2166
12657TIP3    H159386   5.480   0.274  14.891 -0.5905 -1.4343 -0.1684
12657TIP3    H259387   5.597   0.307  14.982 -1.8082  1.5363  0.4478
12658TIP3   OH259388   2.685   1.475  13.202 -0.1192 -0.5800  0.3019
12658TIP3    H159389   2.732   1.555  13.226 -1.8647  0.6023 -0.0450
12658TIP3    H259390   2.619   1.464  13.270 -1.3930 -0.4060 -0.8600
12659TIP3   OH259391   0.150   1.229  11.944 -0.5105 -0.1547 -0.3367
12659TIP3    H159392   0.091   1.304  11.951  1.0952  1.1272  0.1450
12659TIP3    H259393   0.156   1.194  12.033  0.3051  0.4359 -0.1441
12660TIP3   OH259394   5.374   0.553   2.802 -0.1471 -0.6086  0.0140
12660TIP3    H159395   5.436   0.600   2.859  0.6227 -0.3698 -0.9752
12660TIP3    H259396   5.292   0.553   2.850  0.6870 -1.1466  1.4794
12661TIP3   OH259397   0.732   5.557  16.285  0.5327 -0.6406 -0.3881
12661TIP3    H159398   0.651   5.513  16.311 -0.7696  1.8203  0.0078
12661TIP3    H259399   0.730   5.557  16.190 -1.4158  1.6982 -0.4674
12662TIP3   OH259400   6.245   3.693   4.385 -0.6639 -0.5042  0.3617
12662TIP3    H159401   6.222   3.612   4.341  2.6502 -0.2467 -2.2841
12662TIP3    H259402   6.252   3.670   4.477 -2.1178 -2.5793  0.0121
12663TIP3   OH259403   1.415   0.360   6.843  0.1316 -1.2304  1.1777
12663TIP3    H159404   1.452   0.428   6.785  0.1183 -1.2338  1.1654
12663TIP3    H259405   1.323   0.385   6.851 -0.4494 -2.5109 -0.6941
12664TIP3   OH259406   6.056   2.819  16.012  0.0854 -0.0996 -0.0759
12664TIP3    H159407   6.022   2.773  15.935 -0.5672  0.0740  0.1088
12664TIP3    H259408   6.148   2.837  15.990 -0.3329  0.7632 -1.1926
12665TIP3   OH259409   0.766   4.127   2.067  0.0247  0.5384 -0.1540
12665TIP3    H159410   0.849   4.093   2.036  0.5182  0.3461  1.3123
12665TIP3    H259411   0.790   4.200   2.124 -0.9023  1.5938 -1.0425
12666TIP3   OH259412   0.200   2.865  14.332 -0.3704  0.4621  0.0365
12666TIP3    H159413   0.257   2.910  14.270 -1.1767 -0.0885 -1.1297
12666TIP3    H259414   0.244   2.781  14.348 -0.3283  0.4686 -0.0446
12667TIP3   OH259415   0.802   5.842  16.575  0.6544 -0.2745 -0.3380
12667TIP3    H159416   0.880   5.816  16.624  1.8714  2.3272 -0.7344
12667TIP3    H259417   0.832   5.910  16.515 -1.5364 -0.6744 -2.0228
12668TIP3   OH259418   3.463   0.842   4.784  0.6348 -0.5136 -0.4533
12668TIP3    H159419   3.380   0.796   4.790  1.0366 -1.2447 -0.3708
12668TIP3    H259420   3.442   0.923   4.738 -0.5557  0.3968  1.5707
12669TIP3   OH259421   5.549   2.934   0.346  0.1095  1.0839 -0.5501
12669TIP3    H159422   5.632   2.951   0.301 -0.5511 -0.9308 -2.7173
12669TIP3    H259423   5.482   2.965   0.284 -0.8015  0.9200  0.3334
12670TIP3   OH259424   5.675   0.548  15.396  0.3337  0.3933  0.0739
12670TIP3    H159425   5.628   0.465  15.399 -1.4320  1.3316  0.2266
12670TIP3    H259426   5.767   0.525  15.405 -0.1998 -1.4496  1.4699
12671TIP3   OH259427   5.780   0.094   1.823 -0.3058  0.1483  0.6645
12671TIP3    H159428   5.701   0.146   1.810  0.1197  0.7360  0.4081
12671TIP3    H259429   5.787   0.085   1.918 -0.0761  1.0457  0.7417
12672TIP3   OH259430   2.581   3.513   1.133 -0.1184  0.5217  0.2238
12672TIP3    H159431   2.575   3.583   1.068 -1.0304  0.0325 -0.2501
12672TIP3    H259432   2.491   3.481   1.141  0.2948 -0.6417  0.3730
12673TIP3   OH259433   0.184   2.222  12.727 -0.2169  0.2900 -0.2438
12673TIP3    H159434   0.146   2.289  12.671 -1.1116 -0.2468 -0.3043
12673TIP3    H259435   0.158   2.247  12.816 -1.9130 -0.7732 -0.3829
12674TIP3   OH259436   1.230   1.743  12.975 -0.1933  0.4066  0.1388
12674TIP3    H159437   1.318   1.773  12.997 -0.4736  0.5731  1.1237
12674TIP3    H259438   1.232   1.726  12.881  0.5424  1.6126 -0.0886
12675TIP3   OH259439   2.538   6.282   3.170 -0.1389  0.2517  0.1431
12675TIP3    H159440   2.537   6.196   3.127 -0.8320 -0.3726  1.3463
12675TIP3    H259441   2.612   6.277   3.231  1.1413  1.3069 -1.2736
12676TIP3   OH259442   4.874   4.484   1.489  0.0204  0.6075 -0.3745
12676TIP3    H159443   4.960   4.455   1.519  0.5518  0.7506 -1.7038
12676TIP3    H259444   4.813   4.419   1.525  0.9080 -0.6936 -1.1244
12677TIP3   OH259445   6.035   2.861   4.640  0.2004 -0.0161  0.0740
12677TIP3    H159446   5.974   2.927   4.605  0.3358 -0.3982 -0.9078
12677TIP3    H259447   6.073   2.820   4.563 -0.6786 -2.0159  0.6327
12678TIP3   OH259448   4.086   3.901   3.879  0.1693 -0.2276  0.4157
12678TIP3    H159449   4.027   3.921   3.806  0.7711  1.2561  0.3190
12678TIP3    H259450   4.173   3.923   3.847  0.3508  1.4066  1.9008
12679TIP3   OH259451   1.131   0.070  13.374 -0.1799  0.0910  0.5587
12679TIP3    H159452   1.139   0.154  13.420  1.1711  0.6774 -0.7069
12679TIP3    H259453   1.177   0.008  13.430 -1.1203  0.1663  1.4646
12680TIP3   OH259454   3.507   4.743   2.321  0.0177  0.4667 -0.2956
12680TIP3    H159455   3.530   4.800   2.395 -1.2461  1.0025 -0.2854
12680TIP3    H259456   3.493   4.804   2.248 -0.1865  0.0625 -0.5955
12681TIP3   OH259457   5.038   5.579  12.239  0.5293  0.7582  0.1465
12681TIP3    H159458   5.052   5.632  12.318 -1.3144  1.6440 -0.0795
12681TIP3    H259459   4.954   5.536  12.254  0.3836  0.5773 -1.1508
12682TIP3   OH259460   2.882   1.450   3.104  0.2955 -0.0476 -0.0117
12682TIP3    H159461   2.960   1.467   3.158  0.3953 -0.4413 -0.0277
12682TIP3    H259462   2.823   1.522   3.124  0.8427  0.4946 -0.3256
12683TIP3   OH259463   3.706   1.070  14.127 -0.4238  0.4985 -0.4871
12683TIP3    H159464   3.613   1.085  14.147 -0.8945 -2.3164 -0.1003
12683TIP3    H259465   3.745   1.048  14.212  0.5093  1.1882 -0.7217
12684TIP3   OH259466   6.265   1.594   0.580  0.1842 -0.4211  0.6472
12684TIP3    H159467   6.352   1.628   0.601 -0.2675  0.9743  0.3291
12684TIP3    H259468   6.281   1.522   0.519  1.0523  0.6881 -0.4643
12685TIP3   OH259469   0.804   1.326  16.354 -0.0348 -0.4799  0.7827
12685TIP3    H159470   0.738   1.317  16.285 -0.8192  0.7923  1.3342
12685TIP3    H259471   0.864   1.392  16.320  0.5537 -1.1058  0.5960
12686TIP3   OH259472   3.717   2.423  15.362 -0.0916 -0.8410  0.0096
12686TIP3    H159473   3.726   2.358  15.432 -0.9472 -0.8170  0.1405
12686TIP3    H259474   3.645   2.391  15.308  0.7199 -0.9955 -1.0189
12687TIP3   OH259475   2.292   5.792  16.273 -0.2346 -0.0256  0.9511
12687TIP3    H159476   2.317   5.752  16.190 -3.7881  0.7624 -0.6476
12687TIP3    H259477   2.329   5.880  16.269  0.4166 -0.2972  0.7031
12688TIP3   OH259478   5.457   5.262   1.919  0.4512 -0.0136 -0.2083
12688TIP3    H159479   5.387   5.197   1.920  0.3193  0.0959 -1.2441
12688TIP3    H259480   5.423   5.332   1.864  1.0395  0.4276 -0.0146
12689TIP3   OH259481   2.861   3.243  15.797 -0.3494  0.2573  0.0777
12689TIP3    H159482   2.912   3.257  15.717 -1.3536  0.0905 -0.6157
12689TIP3    H259483   2.885   3.155  15.826 -0.4543  0.0671 -0.4052
12690TIP3   OH259484   3.378   4.991   1.509 -0.1210  0.0465  0.0860
12690TIP3    H159485   3.441   5.010   1.579  0.4783  1.7169 -0.8556
12690TIP3    H259486   3.311   5.058   1.519 -0.8428 -0.6393 -0.0308
12691TIP3   OH259487   1.946   4.654   3.426  0.0005 -0.0378  0.4203
12691TIP3    H159488   1.930   4.563   3.402  1.3956 -0.3060  0.4685
12691TIP3    H259489   1.858   4.690   3.440 -0.5736 -1.3586  0.3838
12692TIP3   OH259490   6.284   3.712   3.970  0.3087  0.1658  0.0983
12692TIP3    H159491   6.249   3.793   4.006 -0.0785 -0.1465  0.4440
12692TIP3    H259492   6.367   3.698   4.017  2.2626  2.1990 -2.4443
12693TIP3   OH259493   6.666   2.077   5.267 -0.3934 -0.4474  0.3369
12693TIP3    H159494   6.731   2.035   5.210 -2.1076 -1.9938 -0.5677
12693TIP3    H259495   6.719   2.125   5.331  1.6319  0.7966 -2.0801
12694TIP3   OH259496   1.020   6.426  16.040 -0.3322 -0.1535  0.0975
12694TIP3    H159497   1.113   6.449  16.051 -0.6436  0.6068  1.2927
12694TIP3    H259498   0.974   6.484  16.100 -1.7385  0.5555 -1.5830
12695TIP3   OH259499   6.093   0.565   3.541 -0.2703  0.3532 -0.9198
12695TIP3    H159500   6.068   0.657   3.550  0.0141  0.4107 -0.6815
12695TIP3    H259501   6.188   0.567   3.530 -0.1778  0.0530 -0.2174
12696TIP3   OH259502   1.242   6.411  14.365 -0.3000  0.3469 -0.4222
12696TIP3    H159503   1.195   6.484  14.404 -0.2351 -1.8023  4.4403
12696TIP3    H259504   1.325   6.448  14.336 -0.8901  2.4738  0.4017
12697TIP3   OH259505   2.532   0.696  11.739  0.0167 -0.4532  0.5967
12697TIP3    H159506   2.623   0.668  11.749  0.0593 -0.4576  0.1932
12697TIP3    H259507   2.537   0.779  11.692 -0.1520 -0.1168  1.1646
12698TIP3   OH259508   4.083   0.793  13.791  0.0347  0.1328  0.8548
12698TIP3    H159509   4.103   0.723  13.853 -2.9216 -1.4711  0.1536
12698TIP3    H259510   4.020   0.848  13.836  1.2795  1.5992  0.8721
12699TIP3   OH259511   3.585   0.310  13.337 -0.3940 -0.5977  0.3379
12699TIP3    H159512   3.496   0.292  13.305 -0.5274  2.0947 -1.1576
12699TIP3    H259513   3.591   0.405  13.337  2.1521 -0.6840  1.4987
12700TIP3   OH259514   5.832   4.847  13.756 -0.4166 -0.2921 -0.1417
12700TIP3    H159515   5.851   4.913  13.823  1.7069 -1.4431  0.4675
12700TIP3    H259516   5.918   4.813  13.731 -1.3642 -1.7540 -1.5551
12701TIP3   OH259517   2.981   1.724  10.873 -0.4049  0.3711  0.7697
12701TIP3    H159518   3.005   1.817  10.873  1.8942 -0.1456  0.1201
12701TIP3    H259519   2.973   1.701  10.781  0.9960 -0.4734  0.8252
12702TIP3   OH259520   0.842   6.069  11.907  0.0169 -0.4576  0.4733
12702TIP3    H159521   0.839   6.020  11.824 -3.1924  0.6067 -0.1581
12702TIP3    H259522   0.888   6.150  11.885  2.3913 -1.6407  0.7210
12703TIP3   OH259523   1.018   1.760   0.103  0.7071  0.1120  0.0773
12703TIP3    H159524   0.960   1.788   0.174 -0.8355 -0.0906 -1.0559
12703TIP3    H259525   1.068   1.687   0.140  0.1675  0.2109  1.0469
12704TIP3   OH259526   5.792   0.729   4.690  0.1967  0.2945  0.3643
12704TIP3    H159527   5.850   0.665   4.731  0.2639 -0.8007 -1.3210
12704TIP3    H259528   5.707   0.716   4.733  0.4651 -0.2298  0.7438
12705TIP3   OH259529   5.525   5.236  14.082  0.0528 -0.0360 -0.0443
12705TIP3    H159530   5.602   5.265  14.130 -0.8286 -0.2625  1.5651
12705TIP3    H259531   5.543   5.145  14.059 -0.2906 -0.5408  1.5844
12706TIP3   OH259532   3.340   4.103  11.793  0.3107  0.5664 -0.0284
12706TIP3    H159533   3.276   4.172  11.809 -2.0180 -1.3156 -0.6438
12706TIP3    H259534   3.304   4.026  11.838  1.4246 -0.9233 -1.5690
12707TIP3   OH259535   4.471   1.060  15.712 -0.3483  0.7199  0.5107
12707TIP3    H159536   4.422   1.127  15.665 -1.8045 -0.2420  0.6045
12707TIP3    H259537   4.407   1.020  15.771  0.5472 -0.5623  0.6667
12708TIP3   OH259538   2.285   5.132   4.220 -0.3856  0.2209 -0.0075
12708TIP3    H159539   2.340   5.188   4.164  0.7367 -0.3399  0.4970
12708TIP3    H259540   2.233   5.194   4.270  0.0097  0.7913 -0.2777
12709TIP3   OH259541   5.731   2.418   3.134  0.3029 -0.2320 -0.0999
12709TIP3    H159542   5.653   2.441   3.184 -0.1974  1.7062 -1.6486
12709TIP3    H259543   5.804   2.454   3.185 -0.1598  1.2901 -0.4669
12710TIP3   OH259544   5.633   1.001  11.149 -0.2824  0.1281 -0.3669
12710TIP3    H159545   5.550   1.048  11.161 -0.5670  0.4045 -2.9407
12710TIP3    H259546   5.661   1.023  11.060  2.2308 -0.5251  0.1726
12711TIP3   OH259547   3.023   6.240   3.412 -0.6068  0.1206  0.4348
12711TIP3    H159548   3.079   6.248   3.335  0.5845 -1.2537  1.0947
12711TIP3    H259549   3.016   6.145   3.427 -1.2531  0.3420  1.7044
12712TIP3   OH259550   3.337   0.710  17.263 -0.7478 -0.2673 -0.1644
12712TIP3    H159551   3.355   0.797  17.297  0.1932  0.1487 -1.6613
12712TIP3    H259552   3.323   0.656  17.341  0.1474  0.8885  0.8237
12713TIP3   OH259553   6.694   1.089   3.779 -0.4023 -0.0234  0.0599
12713TIP3    H159554   6.651   1.022   3.725 -0.5123 -0.2110  0.3772
12713TIP3    H259555   6.632   1.162   3.780 -0.9673 -0.4829  0.9332
12714TIP3   OH259556   4.793   3.107   1.919  0.2245 -0.3979 -0.1938
12714TIP3    H159557   4.774   3.164   1.994 -0.3324 -2.6758  1.5138
12714TIP3    H259558   4.869   3.055   1.947  2.5293  1.3028 -2.8125
12715TIP3   OH259559   3.457   4.312   1.042 -0.4213  0.2611 -0.5091
12715TIP3    H159560   3.411   4.229   1.028  1.7368 -1.0127 -0.4512
12715TIP3    H259561   3.434   4.365   0.966 -2.3679 -0.0943 -0.2199
12716TIP3   OH259562   1.605   3.630  13.160  0.2026 -0.0499 -0.9536
12716TIP3    H159563   1.659   3.679  13.223  0.5233 -1.1535 -0.3391
12716TIP3    H259564   1.655   3.550  13.144 -0.0402  0.0707 -2.3892
12717TIP3   OH259565   6.687   5.863  11.212  0.0740 -0.1142  0.9792
12717TIP3    H159566   6.609   5.880  11.160  0.3089  0.1856  0.7217
12717TIP3    H259567   6.757   5.910  11.167  0.2747  0.1841  1.5908
12718TIP3   OH259568   6.198   3.087  16.914  0.0144  0.5880  0.0928
12718TIP3    H159569   6.223   3.007  16.869 -0.8015  0.7021 -0.5848
12718TIP3    H259570   6.167   3.058  17.000  0.7465  0.2928  0.2660
12719TIP3   OH259571   0.428   5.586   2.345 -0.2621 -0.8480 -0.1356
12719TIP3    H159572   0.355   5.552   2.295  0.2134 -2.0548 -0.0461
12719TIP3    H259573   0.484   5.628   2.280  0.3250 -2.3513 -0.6537
12720TIP3   OH259574   0.117   5.256  14.676  0.3379  0.3171  0.1231
12720TIP3    H159575   0.041   5.304  14.708 -1.2526 -0.5840 -2.0429
12720TIP3    H259576   0.172   5.322  14.634  0.1916  0.8088  0.6974
12721TIP3   OH259577   5.017   6.359  12.543 -0.1188  0.1819  0.3144
12721TIP3    H159578   5.081   6.330  12.479  0.9980  0.6972  1.1766
12721TIP3    H259579   5.035   6.452  12.555  2.0407 -0.4964  3.8679
12722TIP3   OH259580   5.626   4.211  17.349 -0.3466 -0.6027 -0.2149
12722TIP3    H159581   5.666   4.292  17.317 -0.7828  0.0569  0.8309
12722TIP3    H259582   5.574   4.239  17.425 -1.7224 -1.6360 -0.7448
12723TIP3   OH259583   3.272   5.529   6.600 -0.3846  0.0471  0.3119
12723TIP3    H159584   3.284   5.435   6.610 -0.1391  0.0561  0.1150
12723TIP3    H259585   3.210   5.538   6.528 -0.5072  0.0330  0.4158
12724TIP3   OH259586   2.182   2.627   5.218 -0.1660  0.0107  0.0012
12724TIP3    H159587   2.092   2.609   5.190  0.2214 -1.4535 -0.4085
12724TIP3    H259588   2.228   2.645   5.136  0.7294 -3.1613 -0.3176
12725TIP3   OH259589   5.240   2.653  11.392 -0.1920  0.6344  0.1709
12725TIP3    H159590   5.243   2.747  11.376  0.8602  0.7914  1.1385
12725TIP3    H259591   5.252   2.613  11.306  1.2588  1.3984 -0.0097
12726TIP3   OH259592   4.521   5.076  10.566 -0.1301  0.0839 -0.1341
12726TIP3    H159593   4.533   5.011  10.497 -0.8318  0.6852 -0.8334
12726TIP3    H259594   4.606   5.121  10.571  0.3663 -0.8920  0.3780
12727TIP3   OH259595   6.403   6.279   4.195 -0.0315 -0.3891  0.5756
12727TIP3    H159596   6.451   6.297   4.114  0.8047 -1.3189  0.8422
12727TIP3    H259597   6.405   6.362   4.243 -1.3968  0.4591 -0.7543
12728TIP3   OH259598   2.195   6.241  12.483  0.1701 -0.1430  0.3845
12728TIP3    H159599   2.241   6.296  12.419 -0.1786  0.1622  0.3918
12728TIP3    H259600   2.205   6.288  12.566 -0.6653  0.2418  0.2781
12729TIP3   OH259601   5.055   0.138   0.202 -0.3356 -0.3017  0.1147
12729TIP3    H159602   5.006   0.112   0.124  1.6876  1.0854 -1.7285
12729TIP3    H259603   5.133   0.083   0.200 -0.0371  0.0860  0.8982
12730TIP3   OH259604   6.248   3.407  16.452 -0.2122  0.5105 -0.2828
12730TIP3    H159605   6.333   3.444  16.476  0.3578 -1.2148  0.5130
12730TIP3    H259606   6.202   3.396  16.536 -1.2483  1.4309 -0.7030
12731TIP3   OH259607   5.561   6.121  11.515 -0.1175  0.1203 -0.2872
12731TIP3    H159608   5.567   6.036  11.559  1.2859 -0.2064 -1.0726
12731TIP3    H259609   5.639   6.125  11.460  1.4184  3.0894  1.8222
12732TIP3   OH259610   4.774   0.203   2.078 -0.1429 -0.0554  0.4953
12732TIP3    H159611   4.853   0.205   2.132  0.3920 -0.2687 -0.2554
12732TIP3    H259612   4.703   0.183   2.139  0.7296 -2.5798  0.7942
12733TIP3   OH259613   6.283   6.473   1.472  0.1485 -0.1490 -0.6444
12733TIP3    H159614   6.220   6.510   1.533  1.2597 -0.4416  0.7180
12733TIP3    H259615   6.232   6.409   1.422 -1.3885  1.8843 -1.8638
12734TIP3   OH259616   5.592   3.131   5.351 -0.4825  0.3018  0.7773
12734TIP3    H159617   5.579   3.037   5.358  1.0630  0.2113  3.9276
12734TIP3    H259618   5.634   3.143   5.266 -0.2038 -1.9078  0.5503
12735TIP3   OH259619   2.648   5.508  17.331 -0.2178  0.4011 -0.0669
12735TIP3    H159620   2.585   5.435  17.335  0.2588 -0.1407 -1.6158
12735TIP3    H259621   2.731   5.470  17.360 -0.3142  0.7660  0.6995
12736TIP3   OH259622   4.748   6.498  11.592 -0.0215  1.0601  0.5255
12736TIP3    H159623   4.731   6.515  11.685 -0.7745  1.0231  0.4051
12736TIP3    H259624   4.677   6.439  11.566 -0.3039  1.7377 -0.2737
12737TIP3   OH259625   3.026   1.823   4.976  0.1117 -0.3776 -0.0700
12737TIP3    H159626   3.006   1.767   4.901  0.8638 -3.7616  2.0500
12737TIP3    H259627   3.120   1.812   4.990  0.3875  1.8103  0.2560
12738TIP3   OH259628   2.653   0.096   0.579 -0.4085 -0.9291  0.0708
12738TIP3    H159629   2.631   0.013   0.537  0.8134 -0.9134 -0.6475
12738TIP3    H259630   2.653   0.160   0.507 -0.9001 -0.3883  0.5429
12739TIP3   OH259631   0.559   3.752   1.916 -0.1477 -0.0499 -0.1586
12739TIP3    H159632   0.637   3.781   1.867 -0.8115  1.4954 -0.3521
12739TIP3    H259633   0.486   3.768   1.857 -0.7727  0.0185  0.6165
12740TIP3   OH259634   6.296   0.229   1.941 -0.1153 -0.1680  0.3332
12740TIP3    H159635   6.285   0.219   2.036 -1.6216 -0.2579  0.1818
12740TIP3    H259636   6.383   0.267   1.931  0.1442 -0.3131  1.7408
12741TIP3   OH259637   0.526   5.293  15.935  0.0755 -0.0915 -0.1660
12741TIP3    H159638   0.475   5.307  15.855 -1.7456  0.9501  1.1153
12741TIP3    H259639   0.467   5.247  15.994  1.5829 -1.3653  0.4239
12742TIP3   OH259640   2.240   6.396   1.933 -0.0737  0.1249 -0.3625
12742TIP3    H159641   2.211   6.487   1.928 -1.4588 -0.3314 -1.2648
12742TIP3    H259642   2.261   6.382   2.025 -1.3978  0.9271  0.0971
12743TIP3   OH259643   3.229   3.578   6.198  0.2287 -0.2882 -0.2429
12743TIP3    H159644   3.253   3.661   6.157 -0.7482 -0.7685 -1.8903
12743TIP3    H259645   3.310   3.527   6.200  0.8670  0.7263  0.9074
12744TIP3   OH259646   4.720   5.191  13.705 -0.6041  0.6315 -0.1156
12744TIP3    H159647   4.649   5.255  13.707  0.3246  1.7045 -0.4487
12744TIP3    H259648   4.721   5.159  13.615 -1.6769 -0.5967  0.2743
12745TIP3   OH259649   0.207   1.965  12.923  0.1985  0.5375 -0.3084
12745TIP3    H159650   0.195   1.873  12.944  1.5322  0.6609  1.1812
12745TIP3    H259651   0.223   2.007  13.008  1.0796  1.8845 -1.1009
12746TIP3   OH259652   5.033   5.288   3.773 -0.2390  0.1170 -0.3265
12746TIP3    H159653   5.120   5.259   3.746 -1.1310 -1.0706 -2.1277
12746TIP3    H259654   5.046   5.325   3.860  2.3052  1.3333 -1.1259
12747TIP3   OH259655   3.072   5.051  14.885  0.0476  0.2269  0.2134
12747TIP3    H159656   3.141   5.006  14.836  1.2544  0.9509  1.1864
12747TIP3    H259657   3.021   5.096  14.818  0.8081  0.0585 -0.4964
12748TIP3   OH259658   0.631   1.899   4.815 -0.5147 -0.5169  0.1822
12748TIP3    H159659   0.630   1.893   4.720 -0.1432 -1.4551  0.2345
12748TIP3    H259660   0.673   1.984   4.833  1.5331 -1.3351 -0.4731
12749TIP3   OH259661   3.072   3.260   6.427  0.1449 -0.6950 -0.2453
12749TIP3    H159662   3.040   3.226   6.510 -0.3851  0.0188 -0.1527
12749TIP3    H259663   3.149   3.312   6.450  0.5360 -1.2318 -0.3104
12750TIP3   OH259664   0.294   1.876   3.429 -0.2878 -0.4266 -0.5959
12750TIP3    H159665   0.263   1.944   3.370  1.0619  0.9758  0.2478
12750TIP3    H259666   0.246   1.890   3.511 -0.0334 -0.5191 -0.4279
12751TIP3   OH259667   1.326   4.887   2.277 -0.7117 -0.1194  0.1556
12751TIP3    H159668   1.279   4.935   2.208  0.3735 -0.4234 -0.8251
12751TIP3    H259669   1.257   4.840   2.324 -2.1112  3.7391  2.3992
12752TIP3   OH259670   0.024   4.820   6.767 -0.5606 -0.3293 -0.4399
12752TIP3    H159671   0.035   4.725   6.778 -1.4531 -0.2841  1.1969
12752TIP3    H259672  -0.061   4.829   6.723 -0.5825 -0.2813 -0.3882
12753TIP3   OH259673   4.433   1.533   6.328 -0.8749 -0.2245  0.0408
12753TIP3    H159674   4.419   1.438   6.339 -1.8803 -0.1267 -0.2849
12753TIP3    H259675   4.396   1.553   6.243  1.7386  0.0210 -1.1375
12754TIP3   OH259676   3.554   4.454   4.814  0.2364  0.3347 -0.5378
12754TIP3    H159677   3.629   4.424   4.866  1.0386  2.1958 -0.5490
12754TIP3    H259678   3.528   4.377   4.764  2.3351 -0.3172 -0.7460
12755TIP3   OH259679   5.938   0.155   5.746  0.2332  0.0875  0.2251
12755TIP3    H159680   5.861   0.177   5.694  0.5434 -2.1733 -1.3296
12755TIP3    H259681   5.934   0.214   5.822 -1.0875  2.4534 -1.5486
12756TIP3   OH259682   3.421   0.185  13.921 -0.0983  0.2221 -0.4919
12756TIP3    H159683   3.434   0.183  13.826 -1.1946 -1.2454 -0.6452
12756TIP3    H259684   3.392   0.097  13.943 -2.0776  1.1495  0.8745
12757TIP3   OH259685   0.825   3.472  14.823 -0.4041  0.3921  0.1372
12757TIP3    H159686   0.838   3.502  14.733 -0.2911  1.5625  0.5220
12757TIP3    H259687   0.750   3.414  14.819 -0.3620  0.3878 -0.7228
12758TIP3   OH259688   5.319   4.308  12.103 -0.1501  0.5292  0.2494
12758TIP3    H159689   5.253   4.282  12.039 -0.7780  4.4780 -0.9851
12758TIP3    H259690   5.398   4.260  12.076 -1.7921 -2.3453  0.2170
12759TIP3   OH259691   3.637   5.982  13.748 -0.2773 -0.5544 -0.3565
12759TIP3    H159692   3.724   6.003  13.713  0.0838 -0.6244  0.4687
12759TIP3    H259693   3.582   5.970  13.671  0.5340 -0.8603 -0.8972
12760TIP3   OH259694   4.619   2.072   2.719  0.4551 -0.5905 -0.5418
12760TIP3    H159695   4.667   2.039   2.643  0.7486 -0.6872 -0.3145
12760TIP3    H259696   4.534   2.099   2.684  0.7557 -0.2142 -0.9785
12761TIP3   OH259697   3.211   5.584  15.706 -0.3850  0.3924 -0.3270
12761TIP3    H159698   3.280   5.631  15.658 -1.0609 -0.3533 -2.1166
12761TIP3    H259699   3.152   5.653  15.736  0.8927  1.0080  0.8752
12762TIP3   OH259700   4.319   6.696  14.226  0.4183 -0.5218  0.0498
12762TIP3    H159701   4.269   6.623  14.190  1.7328 -1.3716 -0.1354
12762TIP3    H259702   4.404   6.658  14.248  1.1534  0.9670 -0.0834
12763TIP3   OH259703   1.509   2.050  13.853 -0.5876  0.4124 -0.5595
12763TIP3    H159704   1.445   1.981  13.872  2.0891 -1.9451  0.5756
12763TIP3    H259705   1.565   2.013  13.785  1.1255  1.2744  0.3201
12764TIP3   OH259706   0.329   0.600   5.355 -0.1751  0.0165 -0.1069
12764TIP3    H159707   0.397   0.635   5.413 -0.1840 -1.1940  0.6580
12764TIP3    H259708   0.306   0.674   5.298  1.9768  0.3810 -0.5930
12765TIP3   OH259709   1.503   0.349   4.406 -0.2131 -0.4680  0.3715
12765TIP3    H159710   1.437   0.337   4.475 -0.4642 -0.4441  0.1353
12765TIP3    H259711   1.586   0.329   4.450 -0.1766  1.2603  1.1456
12766TIP3   OH259712   2.606   2.539  13.146  0.1086  0.6353 -0.1649
12766TIP3    H159713   2.632   2.626  13.116  0.6591  0.7994  0.7487
12766TIP3    H259714   2.512   2.546  13.163  0.4145  1.5050  1.3572
12767TIP3   OH259715   0.012   0.350   5.531 -0.0390  0.2114 -0.0959
12767TIP3    H159716   0.063   0.326   5.453  0.2639 -0.2188  0.2311
12767TIP3    H259717   0.066   0.414   5.577 -1.2620  2.3321 -1.4611
12768TIP3   OH259718   6.471   2.922   2.596 -0.1887  0.1815 -0.1344
12768TIP3    H159719   6.507   2.864   2.529 -2.6359 -2.9299  0.9692
12768TIP3    H259720   6.522   2.902   2.675 -1.0433 -0.5273  0.2516
12769TIP3   OH259721   6.733   4.182   4.561  0.1888 -0.2449 -0.3347
12769TIP3    H159722   6.749   4.116   4.628  3.0660  0.8973  0.2475
12769TIP3    H259723   6.661   4.147   4.509 -0.5230 -2.2862  1.8726
12770TIP3   OH259724   4.708   6.047  17.121 -0.2777  0.3980 -0.1721
12770TIP3    H159725   4.767   6.122  17.117  1.7401 -1.0595  0.0076
12770TIP3    H259726   4.657   6.051  17.041  0.9731  1.0802 -0.9697
12771TIP3   OH259727   2.613   6.365  16.320  0.0047  0.8183 -0.3292
12771TIP3    H159728   2.705   6.389  16.307  0.1999  0.6176  0.5870
12771TIP3    H259729   2.616   6.295  16.386 -0.8264  0.9882 -0.1015
12772TIP3   OH259730   2.454   4.710   2.849 -0.2887 -0.4970 -0.8797
12772TIP3    H159731   2.390   4.772   2.884 -0.8782 -1.3015 -0.4922
12772TIP3    H259732   2.416   4.624   2.867  0.7976 -0.9888 -0.8648
12773TIP3   OH259733   3.363   3.150   2.743 -0.3590  0.0671  0.6674
12773TIP3    H159734   3.289   3.111   2.697  0.0966 -1.8477  1.4128
12773TIP3    H259735   3.410   3.199   2.676 -1.8539  0.6561  0.0112
12774TIP3   OH259736   3.899   2.475   2.540  0.7612 -0.0865 -0.9266
12774TIP3    H159737   3.836   2.424   2.488 -0.9096  1.2670 -0.3311
12774TIP3    H259738   3.965   2.503   2.476 -0.9196  1.0556 -2.2526
12775TIP3   OH259739   3.143   2.291  13.462  0.1878  0.2199  0.3838
12775TIP3    H159740   3.052   2.293  13.432 -0.5607 -2.8014  2.0058
12775TIP3    H259741   3.155   2.374  13.509 -0.9675  1.6372 -1.6723
12776TIP3   OH259742   3.217   1.386   5.272 -0.4623  0.0414 -0.4377
12776TIP3    H159743   3.180   1.350   5.192 -0.6348  1.0184 -0.8026
12776TIP3    H259744   3.308   1.355   5.271 -0.9831 -1.6184  0.0214
12777TIP3   OH259745   6.084   3.060  11.666 -0.1684  0.4628  0.2342
12777TIP3    H159746   6.175   3.064  11.635  0.3724  0.4365  1.7139
12777TIP3    H259747   6.034   3.106  11.599  0.8801  0.1200 -0.8140
12778TIP3   OH259748   2.503   4.107   5.398 -0.2487 -0.4231  0.1278
12778TIP3    H159749   2.571   4.174   5.408  0.5164 -1.4014  2.0248
12778TIP3    H259750   2.551   4.024   5.398 -1.4102 -1.1790  2.0309
12779TIP3   OH259751   1.601   4.190   6.906  0.1130 -0.0575  0.4446
12779TIP3    H159752   1.613   4.127   6.834 -0.4781 -0.2022  0.4650
12779TIP3    H259753   1.678   4.178   6.961  0.9699  0.6147 -0.5706
12780TIP3   OH259754   4.514   4.658   6.539 -0.5384 -0.4380  0.4431
12780TIP3    H159755   4.541   4.746   6.516  1.3065 -0.8072  1.0087
12780TIP3    H259756   4.447   4.669   6.607 -0.7135  0.5103  0.1201
12781TIP3   OH259757   6.224   2.827   4.146 -0.7646  0.1326  0.0444
12781TIP3    H159758   6.207   2.915   4.114 -0.7731  0.3740  0.6934
12781TIP3    H259759   6.317   2.826   4.167 -0.8776  0.1772  0.5803
12782TIP3   OH259760   6.637   5.515   2.012  0.6981 -0.2406  0.0758
12782TIP3    H159761   6.620   5.514   2.106  2.4679  0.0866  0.4360
12782TIP3    H259762   6.552   5.495   1.972 -0.7984  2.4579  1.6195
12783TIP3   OH259763   3.525   2.834   3.387 -0.2362  0.6069  0.6444
12783TIP3    H159764   3.547   2.748   3.354 -1.8389  0.6998 -0.7965
12783TIP3    H259765   3.606   2.868   3.424  1.1719 -0.3181 -1.4442
12784TIP3   OH259766   1.795   5.180  17.097 -0.2344 -0.0770  0.3539
12784TIP3    H159767   1.846   5.101  17.113  1.0416  0.6704  0.1609
12784TIP3    H259768   1.767   5.173  17.006 -0.5556 -0.5246  0.4818
12785TIP3   OH259769   4.821   3.429  15.001 -0.4128 -0.1556 -0.1245
12785TIP3    H159770   4.764   3.358  15.031 -0.0571  0.2710  1.6766
12785TIP3    H259771   4.909   3.394  15.008 -0.0933  0.8913  2.3571
12786TIP3   OH259772   5.525   3.555   2.861 -0.1563 -0.6432 -0.2071
12786TIP3    H159773   5.536   3.650   2.857 -0.7193 -0.6290 -2.4753
12786TIP3    H259774   5.537   3.534   2.954  3.1355  1.2322 -0.0538
12787TIP3   OH259775   5.255   3.867  17.008 -0.2622 -0.3287 -0.1448
12787TIP3    H159776   5.210   3.912  17.079  1.6197  2.5647 -0.6293
12787TIP3    H259777   5.348   3.870  17.033  0.1354 -2.3270 -1.1575
12788TIP3   OH259778   0.788   2.328   3.675  0.2438 -0.0007  0.4191
12788TIP3    H159779   0.695   2.346   3.682  0.3028  0.0936  1.0362
12788TIP3    H259780   0.816   2.374   3.596  0.1284  1.5601  1.2523
12789TIP3   OH259781   2.332   3.781   6.009  0.0959 -0.1484  0.6576
12789TIP3    H159782   2.345   3.745   6.097  0.3938 -0.9840  0.2821
12789TIP3    H259783   2.239   3.765   5.990 -0.1953  0.8644  1.1750
12790TIP3   OH259784   2.634   1.773  15.965  0.3570 -0.1019 -0.0084
12790TIP3    H159785   2.618   1.780  15.871  0.0737 -1.7609 -0.1142
12790TIP3    H259786   2.636   1.864  15.996 -0.0224  0.4537 -1.5224
12791TIP3   OH259787   3.629   2.489  15.871  0.2899 -0.1138 -0.6872
12791TIP3    H159788   3.608   2.477  15.779 -1.2647  1.2404 -0.5684
12791TIP3    H259789   3.687   2.565  15.873 -1.8600  1.6390 -0.4363
12792TIP3   OH259790   3.266   4.354  11.897 -0.0014 -0.3856  0.4392
12792TIP3    H159791   3.231   4.430  11.945  0.5512 -0.4135  0.8929
12792TIP3    H259792   3.202   4.339  11.827 -0.0864  0.5454  0.2968
12793TIP3   OH259793   0.580   3.063  11.926  0.4875 -0.1671  0.2866
12793TIP3    H159794   0.585   3.155  11.950  2.1318 -0.4007  1.0028
12793TIP3    H259795   0.671   3.033  11.925 -0.0727 -2.1081  1.4603
12794TIP3   OH259796   0.610   0.240  13.183 -0.0232  0.3949 -0.1423
12794TIP3    H159797   0.668   0.253  13.108  0.1463 -0.1798 -0.1149
12794TIP3    H259798   0.664   0.266  13.258 -0.0784  0.6446 -0.1881
12795TIP3   OH259799   1.805   0.275  14.434 -0.0305  0.0670  0.1421
12795TIP3    H159800   1.890   0.272  14.389  0.5269  3.8826  0.5691
12795TIP3    H259801   1.825   0.305  14.522 -1.6175 -2.0044  1.2840
12796TIP3   OH259802   1.133   5.883   3.157 -0.0017 -0.0135  0.5313
12796TIP3    H159803   1.067   5.890   3.226 -0.7837 -0.5571 -0.1375
12796TIP3    H259804   1.206   5.936   3.188 -0.4437 -0.0252  1.6481
12797TIP3   OH259805   5.252   2.773  16.293 -0.2640  0.0833  0.6527
12797TIP3    H159806   5.193   2.741  16.362 -1.2693 -0.6309 -0.4876
12797TIP3    H259807   5.218   2.859  16.270 -1.0728 -0.4423 -0.1950
12798TIP3   OH259808   5.748   5.872   3.829  0.4627  0.6622 -0.1473
12798TIP3    H159809   5.842   5.867   3.811  0.8727  1.3420  1.5864
12798TIP3    H259810   5.720   5.780   3.832  1.0975  0.4471 -0.5232
12799TIP3   OH259811   2.953   5.597  15.897 -0.0793 -0.2466  0.1036
12799TIP3    H159812   3.013   5.668  15.875  1.3225 -1.0094  1.2971
12799TIP3    H259813   2.981   5.568  15.984 -2.5651 -0.2513  0.9933
12800TIP3   OH259814   3.536   0.383  12.908  0.2771  0.4698 -0.3018
12800TIP3    H159815   3.532   0.295  12.945 -0.7617  0.4260 -0.5013
12800TIP3    H259816   3.538   0.440  12.985 -3.9970  0.4852  0.0041
12801TIP3   OH259817   3.270   5.599   6.929  0.2630  0.1379  0.3055
12801TIP3    H159818   3.247   5.687   6.959  1.5779  1.1440 -1.4542
12801TIP3    H259819   3.190   5.566   6.889  0.4700  1.7853 -1.6810
12802TIP3   OH259820   2.611   6.599   0.431 -0.4358 -0.4139  0.4108
12802TIP3    H159821   2.621   6.506   0.451 -0.3601 -0.4332  0.2834
12802TIP3    H259822   2.618   6.604   0.335 -1.1637 -0.3689  0.3548
12803TIP3   OH259823   5.521   4.308  14.353 -0.5691  0.4893  0.4508
12803TIP3    H159824   5.492   4.343  14.269 -1.0252  0.3938  0.5600
12803TIP3    H259825   5.508   4.213  14.345  3.1643 -0.0828 -0.8222
12804TIP3   OH259826   3.210   0.312  11.830 -0.1482  0.0757 -0.2172
12804TIP3    H159827   3.150   0.371  11.875 -1.3763  0.4133 -2.1618
12804TIP3    H259828   3.229   0.356  11.747  1.8937 -0.5767 -0.1465
12805TIP3   OH259829   6.573   2.423  11.381  0.0507  1.0868 -0.2001
12805TIP3    H159830   6.639   2.365  11.341  0.0006  1.4831 -0.8778
12805TIP3    H259831   6.621   2.503  11.402 -0.4352  1.8411 -1.8020
12806TIP3   OH259832   6.195   3.687  17.383  0.0179  0.2873 -0.0067
12806TIP3    H159833   6.206   3.595  17.359  0.8936 -0.0177  1.4333
12806TIP3    H259834   6.180   3.732  17.300 -1.2022 -1.2409 -0.6721
12807TIP3   OH259835   2.133   3.201   6.372 -0.5842 -0.1422 -0.1833
12807TIP3    H159836   2.147   3.148   6.294  2.3575 -0.2475  0.2994
12807TIP3    H259837   2.052   3.168   6.409 -0.8687 -1.6244 -1.9855
12808TIP3   OH259838   6.058   0.393   1.068 -0.3981  0.1831  0.1633
12808TIP3    H159839   6.089   0.344   1.144 -0.0208 -0.5205 -0.4332
12808TIP3    H259840   6.117   0.366   0.997  1.0414  2.8870  0.2073
12809TIP3   OH259841   6.028   4.877   0.039 -0.0418 -0.2436 -0.0760
12809TIP3    H159842   6.072   4.885   0.123  0.5354  0.3731 -0.4193
12809TIP3    H259843   6.022   4.967   0.007 -0.2465 -0.4679 -0.6902
12810TIP3   OH259844   3.155   6.276  15.679 -0.3304 -0.5218 -0.1118
12810TIP3    H159845   3.068   6.274  15.638  0.0074  2.3752 -1.1562
12810TIP3    H259846   3.216   6.253  15.610 -0.0938 -0.2369 -0.0002
12811TIP3   OH259847   1.244   4.930   4.251  0.8813  0.6031  0.3383
12811TIP3    H159848   1.178   4.895   4.311  0.4013  0.8190 -0.0527
12811TIP3    H259849   1.279   5.007   4.295  2.1934 -0.5488  1.3614
12812TIP3   OH259850   4.217   1.895   4.446 -0.0456  1.0762  0.0291
12812TIP3    H159851   4.152   1.960   4.472 -1.0040  0.4595 -0.7454
12812TIP3    H259852   4.169   1.812   4.449  1.0368  0.4569  0.5801
12813TIP3   OH259853   5.723   4.103   3.736  0.3740  0.2162  0.3708
12813TIP3    H159854   5.744   4.013   3.761  0.0365  0.1883  0.5550
12813TIP3    H259855   5.695   4.096   3.645 -3.0738 -0.4095  1.3601
12814TIP3   OH259856   2.401   5.191  11.867  0.8366 -0.0546  0.4954
12814TIP3    H159857   2.414   5.260  11.802  0.1591 -0.3159  0.0750
12814TIP3    H259858   2.401   5.110  11.817 -0.7331 -0.1828  0.6686
12815TIP3   OH259859   4.270   1.135  13.987 -0.2498  0.3286  0.5573
12815TIP3    H159860   4.199   1.196  13.966  0.1817  0.4289 -0.6808
12815TIP3    H259861   4.249   1.104  14.075  0.0093  2.9655  1.6342
12816TIP3   OH259862   3.571   5.482  14.387 -0.3658  0.5277 -0.2972
12816TIP3    H159863   3.600   5.440  14.306 -0.2907 -0.1684  0.0880
12816TIP3    H259864   3.637   5.458  14.451 -0.2650  1.3252 -0.0891
12817TIP3   OH259865   2.090   2.212  14.368 -0.2247 -0.0964  0.1711
12817TIP3    H159866   2.090   2.122  14.335  0.2030 -0.2377  0.5291
12817TIP3    H259867   2.004   2.246  14.347 -0.7260 -0.9034  0.8549
12818TIP3   OH259868   3.001   3.255   6.175 -0.0383 -0.1199  0.2160
12818TIP3    H159869   3.035   3.241   6.264  0.1020  1.5464  0.4641
12818TIP3    H259870   2.959   3.172   6.152  1.6841 -1.2730  1.0326
12819TIP3   OH259871   5.321   6.667   0.233  0.5444  0.1118  0.0310
12819TIP3    H159872   5.293   6.651   0.142 -2.0595 -0.2884  0.8007
12819TIP3    H259873   5.301   6.585   0.278  1.2124  0.5306  1.1067
12820TIP3   OH259874   3.970   0.520   0.351  0.9762  0.0642  0.5072
12820TIP3    H159875   4.028   0.448   0.323  1.3878 -0.1701  1.9056
12820TIP3    H259876   3.934   0.554   0.269  0.2191 -2.1934 -0.1792
12821TIP3   OH259877   5.097   0.289  15.837  0.5438 -0.3100  0.0728
12821TIP3    H159878   5.081   0.294  15.931  0.6142  0.5499  0.0459
12821TIP3    H259879   5.011   0.270  15.799  0.8371 -2.7462  0.4354
12822TIP3   OH259880   0.707   5.412   5.419  0.1479  0.6246 -0.0967
12822TIP3    H159881   0.762   5.476   5.465 -1.8036  1.0921  1.7404
12822TIP3    H259882   0.730   5.328   5.457 -1.5840  1.0282  2.0365
12823TIP3   OH259883   6.027   3.319   1.628  0.3005  0.4957  0.2755
12823TIP3    H159884   6.073   3.299   1.547 -0.6517  0.3099 -0.2284
12823TIP3    H259885   5.989   3.406   1.614  0.8721  0.8600  0.8707
12824TIP3   OH259886   3.258   3.833   4.408 -0.0436  0.2511 -0.4459
12824TIP3    H159887   3.342   3.858   4.446 -0.0904  0.3181 -0.3849
12824TIP3    H259888   3.238   3.748   4.447 -0.5482  0.7549  0.4198
12825TIP3   OH259889   0.155   5.386   4.061 -0.5436 -0.3039  0.0585
12825TIP3    H159890   0.210   5.358   4.134 -0.8175  0.0599  0.4065
12825TIP3    H259891   0.109   5.463   4.094 -1.5438 -0.8176 -0.1063
12826TIP3   OH259892   0.356   0.563   2.042 -0.3374  0.3129 -0.3372
12826TIP3    H159893   0.437   0.518   2.022  0.5925  2.2922 -1.2509
12826TIP3    H259894   0.357   0.642   1.987 -1.5151  1.8424  1.6787
12827TIP3   OH259895   5.974   6.282  13.684 -0.1235  0.4353  0.0747
12827TIP3    H159896   6.011   6.339  13.616 -1.3825  2.5209  1.0166
12827TIP3    H259897   5.890   6.253  13.647  1.0642 -2.0364 -0.9415
12828TIP3   OH259898   6.399   3.216   2.574 -0.0604 -0.1267  0.0579
12828TIP3    H159899   6.451   3.141   2.546  0.6072  0.5835 -0.6495
12828TIP3    H259900   6.437   3.291   2.528 -0.0578  0.8214  1.5086
12829TIP3   OH259901   2.189   6.503   5.830  0.2383 -0.3895  0.2725
12829TIP3    H159902   2.279   6.478   5.850  0.4815 -0.3677 -0.7418
12829TIP3    H259903   2.196   6.590   5.792 -0.2200 -0.3494  0.2753
12830TIP3   OH259904   3.583   1.175   4.718 -0.1161 -0.0675  0.1377
12830TIP3    H159905   3.597   1.256   4.669 -0.6819  0.6271  1.0810
12830TIP3    H259906   3.646   1.113   4.681 -2.5317 -0.6139 -3.6786
12831TIP3   OH259907   1.290   1.811   0.547  0.0206  0.0723  0.1434
12831TIP3    H159908   1.312   1.903   0.532 -1.1061  0.3289 -0.0571
12831TIP3    H259909   1.348   1.783   0.618  0.7745  0.7638 -0.1917
12832TIP3   OH259910   5.699   6.536  11.989  0.3931  0.0655 -0.0517
12832TIP3    H159911   5.752   6.546  12.068  0.6403 -1.7815  0.0571
12832TIP3    H259912   5.763   6.520  11.919  0.0635 -0.8207 -0.1625
12833TIP3   OH259913   5.316   0.386  13.432 -0.1693  0.3549 -0.4206
12833TIP3    H159914   5.370   0.311  13.407  1.3142  1.1732  0.1486
12833TIP3    H259915   5.269   0.410  13.352  1.8518  0.8146 -1.5446
12834TIP3   OH259916   1.236   2.821   3.703 -0.2196  0.3249 -0.0741
12834TIP3    H159917   1.181   2.797   3.629  0.6649 -0.3758 -0.5234
12834TIP3    H259918   1.174   2.849   3.771 -1.1101 -0.2808 -0.6165
12835TIP3   OH259919   4.081   6.227   5.500  0.3088 -0.1902 -0.2187
12835TIP3    H159920   4.045   6.145   5.533 -3.2617  0.3391 -2.3248
12835TIP3    H259921   4.021   6.295   5.531  2.3221  1.5378  0.1865
12836TIP3   OH259922   5.876   2.198   5.255 -0.4412 -0.6952  0.4319
12836TIP3    H159923   5.968   2.219   5.270 -0.8937  2.9855 -1.1081
12836TIP3    H259924   5.841   2.180   5.342  1.6848 -2.3608  1.0292
12837TIP3   OH259925   3.919   3.987  11.354 -0.0738  0.5140  0.2137
12837TIP3    H159926   3.962   3.935  11.423  0.1259  2.9862  2.1113
12837TIP3    H259927   3.835   3.944  11.341  1.1150 -1.8489 -0.3709
12838TIP3   OH259928   2.995   6.682  14.781  0.6499  0.3330 -0.3969
12838TIP3    H159929   2.900   6.678  14.771  0.3851  0.2686  1.7457
12838TIP3    H259930   3.022   6.590  14.790  0.6474  0.4308  0.8252
12839TIP3   OH259931   2.730   1.724  15.268 -0.1914  0.5171 -0.4136
12839TIP3    H159932   2.712   1.795  15.207 -1.3347  0.3147 -0.3441
12839TIP3    H259933   2.717   1.644  15.217  2.2774  0.3120 -0.8243
12840TIP3   OH259934   2.391   1.112  16.459 -0.4765  0.0444  0.0167
12840TIP3    H159935   2.307   1.157  16.453 -1.4245 -1.7557 -1.1262
12840TIP3    H259936   2.435   1.131  16.376 -0.3987 -0.2430 -0.0077
12841TIP3   OH259937   5.541   6.567  17.294  0.0620 -0.2715 -0.2315
12841TIP3    H159938   5.466   6.578  17.235 -1.1537  1.9028  1.5828
12841TIP3    H259939   5.581   6.654  17.297 -1.0174  0.2386  3.4625
12842TIP3   OH259940   5.446   4.184  10.861  0.2046  0.2763  0.1299
12842TIP3    H159941   5.515   4.242  10.894  0.0076  0.5353  0.0886
12842TIP3    H259942   5.463   4.179  10.767 -0.3505  1.0384 -0.0164
12843TIP3   OH259943   3.503   1.862  10.994 -0.1321  0.3113  0.1469
12843TIP3    H159944   3.574   1.913  11.033 -0.5798 -0.4813  2.1429
12843TIP3    H259945   3.428   1.921  10.994  0.2926  0.8897 -1.2265
12844TIP3   OH259946   3.451   4.085  16.085 -0.3136  0.2980 -0.5648
12844TIP3    H159947   3.361   4.051  16.091 -0.5700  0.7887 -1.3624
12844TIP3    H259948   3.447   4.148  16.013  1.3148 -1.7364 -2.5777
12845TIP3   OH259949   1.026   5.141  16.512  0.2595 -0.7146 -0.4204
12845TIP3    H159950   1.010   5.177  16.425 -0.6864 -0.4678 -0.1552
12845TIP3    H259951   1.108   5.092  16.503  0.0226 -0.9377 -1.5178
12846TIP3   OH259952   6.656   0.463   0.986 -0.1861  0.0137 -0.1429
12846TIP3    H159953   6.740   0.483   0.945  0.2628 -0.6045  0.4498
12846TIP3    H259954   6.626   0.546   1.022 -0.9363  0.7446 -2.2913
12847TIP3   OH259955   0.657   2.470  12.761 -0.5407 -0.4286  0.1453
12847TIP3    H159956   0.588   2.531  12.734  0.9438  0.5159 -1.8253
12847TIP3    H259957   0.734   2.526  12.774  0.1661 -1.5839  1.1416
12848TIP3   OH259958   2.043   0.952   1.604  0.2561 -0.6984  0.0006
12848TIP3    H159959   2.027   0.937   1.697  0.1151 -0.8738 -0.0528
12848TIP3    H259960   2.004   1.038   1.586 -0.0867 -0.8535  0.0074
12849TIP3   OH259961   1.973   5.915   2.227 -0.8009 -0.3799 -0.2442
12849TIP3    H159962   2.035   5.956   2.168  0.0723 -1.0622  0.1828
12849TIP3    H259963   1.889   5.955   2.205 -0.0502  1.3942 -0.0701
12850TIP3   OH259964   2.206   6.003   4.235 -0.4449  0.5340 -0.1204
12850TIP3    H159965   2.281   5.960   4.195  0.3737  0.7640  1.1180
12850TIP3    H259966   2.173   6.062   4.168  0.5794  0.5560 -0.6190
12851TIP3   OH259967   0.674   1.855   0.193  0.5732  0.5511 -0.2140
12851TIP3    H159968   0.690   1.774   0.241 -0.7309  0.6742  0.4686
12851TIP3    H259969   0.637   1.826   0.109  0.4565  0.4281 -0.1204
12852TIP3   OH259970   5.190   5.563   5.233 -0.1021 -0.0732  0.0310
12852TIP3    H159971   5.164   5.569   5.325  0.6317  1.3050  0.1906
12852TIP3    H259972   5.124   5.508   5.192 -0.3223 -0.8916  1.4308
12853TIP3   OH259973   5.445   3.513   5.034  0.5652 -0.0027 -0.3539
12853TIP3    H159974   5.455   3.504   5.129  0.7670 -0.9373 -0.4554
12853TIP3    H259975   5.434   3.607   5.020 -1.3485 -0.0124  0.7681
12854TIP3   OH259976   3.714   0.430   1.128 -0.1224 -0.5567  0.0870
12854TIP3    H159977   3.666   0.470   1.200  0.6376  0.4666  0.0403
12854TIP3    H259978   3.758   0.355   1.167  1.2154  0.6456  0.9873
12855TIP3   OH259979   1.806   0.301   1.808 -0.2263 -0.1222  0.8753
12855TIP3    H159980   1.788   0.366   1.739  1.6285 -0.1881  0.2677
12855TIP3    H259981   1.787   0.347   1.889 -1.2056  0.3904  0.3800
12856TIP3   OH259982   2.483   4.714   2.556  0.6274  0.1684  0.0782
12856TIP3    H159983   2.490   4.790   2.498 -3.7070  0.6286 -0.1523
12856TIP3    H259984   2.474   4.751   2.644  1.2441 -0.2323  0.3148
12857TIP3   OH259985   3.525   0.332  14.541 -1.1513  0.0474 -0.1591
12857TIP3    H159986   3.615   0.362  14.557 -0.5644 -1.2964 -0.8470
12857TIP3    H259987   3.527   0.238  14.560 -1.5980 -0.6796 -3.2325
12858TIP3   OH259988   2.407   1.229  12.611  0.0405 -0.6201 -0.0894
12858TIP3    H159989   2.400   1.169  12.686  0.2745 -1.0878 -0.4389
12858TIP3    H259990   2.467   1.185  12.550 -2.4493 -1.7214 -1.9211
12859TIP3   OH259991   4.871   6.066   5.960 -0.3933 -0.2836 -0.0269
12859TIP3    H159992   4.784   6.105   5.960  0.2252  1.1347  0.2481
12859TIP3    H259993   4.894   6.056   6.052  0.6945  1.6352 -0.0356
12860TIP3   OH259994   3.249   0.714  14.740 -0.3483  0.5730  0.1808
12860TIP3    H159995   3.313   0.725  14.669 -0.1519  0.8955  0.4027
12860TIP3    H259996   3.171   0.679  14.698 -0.5392  1.6123 -0.3419
12861TIP3   OH259997   6.140   0.316  14.233 -0.3034 -0.9610  0.3220
12861TIP3    H159998   6.217   0.272  14.270 -0.3041 -1.4240 -0.2096
12861TIP3    H259999   6.072   0.248  14.233 -0.7976 -0.4797  1.0394
12862TIP3   OH260000   5.408   4.664   1.671  0.6405  0.2877  0.0038
12862TIP3    H160001   5.364   4.737   1.626  1.8465  0.7573 -0.4349
12862TIP3    H260002   5.404   4.592   1.609  2.0384  0.8495 -0.7705
12863TIP3   OH260003   3.152   4.464   0.826 -0.0139 -0.2155  0.1297
12863TIP3    H160004   3.084   4.528   0.806  0.8637  0.7073 -0.0515
12863TIP3    H260005   3.111   4.401   0.884 -1.3042 -0.2699 -0.8040
12864TIP3   OH260006   2.259   4.447   2.043  0.2216 -0.1328  0.2476
12864TIP3    H160007   2.325   4.509   2.075  1.3743 -0.9251 -0.4892
12864TIP3    H260008   2.264   4.374   2.104 -0.0880 -0.1314  0.2750
12865TIP3   OH260009   1.906   2.910  17.076 -0.0372  0.0792 -0.3073
12865TIP3    H160010   1.917   2.996  17.034 -2.1355  0.4747 -0.1508
12865TIP3    H260011   1.946   2.848  17.015  0.0841  1.0116 -1.1997
12866TIP3   OH260012   1.071   2.521   4.961 -0.2475 -0.1506  0.3282
12866TIP3    H160013   1.088   2.481   5.047 -1.2995  0.4776  0.8455
12866TIP3    H260014   0.988   2.482   4.934 -0.2304  0.1321 -0.1226
12867TIP3   OH260015   5.905   5.155   3.817  0.3521 -0.0248  0.2412
12867TIP3    H160016   5.987   5.133   3.774  0.3665  0.7176 -0.1386
12867TIP3    H260017   5.874   5.233   3.771  0.6197  1.1190  1.8771
12868TIP3   OH260018   3.583   6.688   0.633  0.1260  0.1241 -0.0753
12868TIP3    H160019   3.576   6.669   0.726 -0.6395  0.8075  0.0224
12868TIP3    H260020   3.649   6.757   0.627  1.8878 -1.4942 -0.2949
12869TIP3   OH260021   1.362   6.178   0.305  0.0671  0.1700  0.2232
12869TIP3    H160022   1.284   6.128   0.328  0.6613 -1.0539 -0.3031
12869TIP3    H260023   1.350   6.201   0.213 -0.1982  1.0117  0.4597
12870TIP3   OH260024   4.975   0.960  14.983 -0.3437 -0.6585  0.2274
12870TIP3    H160025   4.883   0.933  14.992 -0.8781  0.8329 -0.3179
12870TIP3    H260026   4.975   1.051  15.013  0.7266 -0.2679 -0.9096
12871TIP3   OH260027   6.612   5.101   4.988  0.5578 -0.0839  0.5250
12871TIP3    H160028   6.684   5.059   5.035 -0.2018 -0.5364  1.3125
12871TIP3    H260029   6.650   5.126   4.904  1.1497 -2.0690  0.1425
12872TIP3   OH260030   2.796   5.665   3.434 -0.1329  0.0964  0.2556
12872TIP3    H160031   2.724   5.608   3.461  0.4944 -0.7294  0.2095
12872TIP3    H260032   2.852   5.610   3.379  1.7797  0.0045  2.1556
12873TIP3   OH260033   3.915   3.392  11.782 -0.1009  0.3939 -0.3963
12873TIP3    H160034   3.837   3.339  11.797  1.1833 -1.2332  0.9632
12873TIP3    H260035   3.972   3.336  11.729  1.2128  0.4299  0.9155
12874TIP3   OH260036   5.465   3.052   4.014  0.3622 -0.5486 -0.4423
12874TIP3    H160037   5.467   3.146   4.031  0.3262 -0.2430 -1.9985
12874TIP3    H260038   5.377   3.035   3.979  0.6987 -0.9582 -1.1285
12875TIP3   OH260039   3.951   2.219  12.997 -0.0890  0.4045  0.3298
12875TIP3    H160040   4.020   2.180  12.943  1.5305  3.7881 -0.3427
12875TIP3    H260041   3.882   2.241  12.934  0.3732  1.3766  0.1431
12876TIP3   OH260042   5.072   2.723  12.199 -0.0959 -0.1359 -0.1275
12876TIP3    H160043   4.988   2.726  12.154  0.1270  0.3013 -0.5257
12876TIP3    H260044   5.135   2.756  12.135  0.1950  0.7462  0.5949
12877TIP3   OH260045   5.129   1.190  15.891  0.5973  0.5471  0.1881
12877TIP3    H160046   5.148   1.195  15.798  0.7512 -1.0155  0.1101
12877TIP3    H260047   5.210   1.217  15.934  0.5876  1.0717 -0.1245
12878TIP3   OH260048   0.343   2.184  10.648  0.3244 -0.0049 -0.0227
12878TIP3    H160049   0.294   2.178  10.729  0.7863  0.8223  0.3403
12878TIP3    H260050   0.341   2.096  10.611  0.0255 -0.3672  0.8363
12879TIP3   OH260051   2.141   2.597  12.587  0.0836  0.1219 -0.0833
12879TIP3    H160052   2.089   2.558  12.517  0.5138 -0.6888  0.0254
12879TIP3    H260053   2.226   2.616  12.547 -0.0788  0.8344 -0.0976
12880TIP3   OH260054   1.289   2.732  16.906 -0.0784 -0.2285  0.2800
12880TIP3    H160055   1.268   2.806  16.849 -0.0132  1.0559  1.8455
12880TIP3    H260056   1.204   2.701  16.937 -0.2159 -1.8512 -1.5487
12881TIP3   OH260057   1.903   5.503   1.022  0.2672  0.0399 -0.0570
12881TIP3    H160058   1.882   5.586   1.064 -1.4239  0.0476 -0.8047
12881TIP3    H260059   1.917   5.526   0.930  1.5835 -0.2774  0.0496
12882TIP3   OH260060   6.683   4.161  14.898 -0.7671  0.4783 -0.5773
12882TIP3    H160061   6.620   4.107  14.946  0.9569 -1.8671 -0.8102
12882TIP3    H260062   6.744   4.192  14.965 -1.9749  2.6099 -0.3773
12883TIP3   OH260063   1.770   0.155  11.769 -0.7881 -0.7716 -0.5330
12883TIP3    H160064   1.735   0.230  11.818 -1.1416 -0.4316 -1.2855
12883TIP3    H260065   1.770   0.083  11.832 -0.2961 -0.1017  0.2450
12884TIP3   OH260066   0.867   4.632   2.387 -0.4359 -0.1287 -0.0635
12884TIP3    H160067   0.863   4.687   2.466 -2.0178 -1.4486  0.8394
12884TIP3    H260068   0.919   4.556   2.414 -0.4494 -0.2853 -0.4807
12885TIP3   OH260069   5.516   0.485  14.296 -0.2703  0.0030  0.0777
12885TIP3    H160070   5.533   0.448  14.382 -0.1647 -0.9189 -0.3264
12885TIP3    H260071   5.570   0.433  14.236  0.7096  1.4861 -0.3919
12886TIP3   OH260072   0.160   0.709  14.043 -0.6132  0.1683  0.0865
12886TIP3    H160073   0.253   0.732  14.052 -0.7320  0.4523  0.6512
12886TIP3    H260074   0.126   0.713  14.133 -0.9239 -0.9940  0.0382
12887TIP3   OH260075   1.664   2.535  11.762 -0.4918  0.1404  0.2084
12887TIP3    H160076   1.630   2.597  11.826 -2.9127 -1.1106  0.2479
12887TIP3    H260077   1.627   2.564  11.678 -2.5739 -1.7651  0.3865
12888TIP3   OH260078   0.942   2.228  15.618 -0.1102 -0.0548 -0.5042
12888TIP3    H160079   0.965   2.292  15.685  0.7174 -0.5776 -0.2739
12888TIP3    H260080   0.905   2.279  15.546 -2.8171  0.3820  1.0711
12889TIP3   OH260081   4.021   0.846   3.816  0.0940 -0.2935  0.5850
12889TIP3    H160082   3.957   0.778   3.793  0.7839 -1.0790  0.9083
12889TIP3    H260083   4.019   0.906   3.742  1.6629 -2.3275 -1.2403
12890TIP3   OH260084   4.488   0.692   4.526  0.0337  0.1277  0.4850
12890TIP3    H160085   4.516   0.687   4.618 -0.7773  1.4016  0.8409
12890TIP3    H260086   4.555   0.747   4.484  0.1563 -0.0713  0.4195
12891TIP3   OH260087   6.209   2.374  14.519  0.8617  0.4425  0.2321
12891TIP3    H160088   6.175   2.430  14.589  3.2252  1.2776  0.8239
12891TIP3    H260089   6.245   2.436  14.454  1.0082 -0.3608 -0.4699
12892TIP3   OH260090   3.145   1.663   2.527  0.6232 -0.3903 -0.4720
12892TIP3    H160091   3.228   1.684   2.483  1.7059 -1.3281  1.0143
12892TIP3    H260092   3.157   1.573   2.558 -0.1475  0.1442  1.5229
12893TIP3   OH260093   5.185   3.209   2.691 -0.4696 -0.5925 -0.0952
12893TIP3    H160094   5.255   3.162   2.737 -1.0252 -1.3958 -0.0490
12893TIP3    H260095   5.231   3.264   2.627  0.1734 -1.9310 -0.8218
12894TIP3   OH260096   2.907   1.249   5.317  0.1363  0.5616  0.1271
12894TIP3    H160097   2.929   1.307   5.245  1.4605  0.6187  0.5511
12894TIP3    H260098   2.811   1.242   5.315  0.0576  1.7627 -0.6830
12895TIP3   OH260099   1.475   5.263   2.775  0.1450  0.3312 -0.3059
12895TIP3    H160100   1.527   5.274   2.696  0.6684  1.6999  0.1900
12895TIP3    H260101   1.533   5.220   2.837 -0.0952 -0.2736 -0.4974
12896TIP3   OH260102   1.303   2.095   5.695  0.7637 -0.1082 -0.6631
12896TIP3    H160103   1.307   2.184   5.729 -1.0490  0.6153 -2.1581
12896TIP3    H260104   1.287   2.041   5.772 -3.2249  1.4680 -0.1043
12897TIP3   OH260105   2.492   5.641   0.389 -0.1026 -0.2217 -0.3866
12897TIP3    H160106   2.512   5.697   0.464  2.0039 -0.2540 -0.8490
12897TIP3    H260107   2.407   5.671   0.358  0.1428  1.4930  0.4811
12898TIP3   OH260108   2.402   0.693   4.399 -0.2261  0.4458  0.4364
12898TIP3    H160109   2.422   0.674   4.307  0.0725 -2.3404  0.9700
12898TIP3    H260110   2.347   0.771   4.396  1.5804  1.7740 -1.9187
12899TIP3   OH260111   5.942   2.519  17.065  0.1124 -0.2382  0.7154
12899TIP3    H160112   5.990   2.465  17.003 -0.5267  1.1055 -1.0349
12899TIP3    H260113   6.006   2.583  17.096  0.9245 -2.0061  2.9444
12900TIP3   OH260114   1.118   2.404  15.181  0.0725 -0.0734  0.0052
12900TIP3    H160115   1.139   2.471  15.246  2.6997  1.7583 -2.5082
12900TIP3    H260116   1.056   2.446  15.122  0.1429 -0.5955 -0.4505
12901TIP3   OH260117   5.244   0.963  15.730 -0.3235 -0.2389 -0.4975
12901TIP3    H160118   5.215   1.046  15.693  0.6805  0.6412  0.5978
12901TIP3    H260119   5.212   0.896  15.669 -0.4530  1.0046 -1.8323
12902TIP3   OH260120   1.195   5.302   2.826  0.2530  0.4666 -0.0919
12902TIP3    H160121   1.290   5.296   2.816  0.3579  0.8704  0.6046
12902TIP3    H260122   1.181   5.383   2.875 -0.1958 -1.3509  3.0946
12903TIP3   OH260123   4.459   0.197  14.396  0.4243 -0.7149 -0.7942
12903TIP3    H160124   4.449   0.108  14.361  1.7728 -1.0215 -0.4438
12903TIP3    H260125   4.373   0.237  14.382 -0.4850 -2.3404 -0.1678
12904TIP3   OH260126   2.934   4.619  14.396  0.1125  0.0145 -0.4405
12904TIP3    H160127   2.840   4.617  14.411 -0.1462  2.7398 -1.0810
12904TIP3    H260128   2.943   4.627  14.301  0.8916  1.1852 -0.2889
12905TIP3   OH260129   6.750   5.769   4.206  1.0903  0.2160  0.3179
12905TIP3    H160130   6.753   5.746   4.113  1.8807  2.5362 -0.3077
12905TIP3    H260131   6.688   5.841   4.211  2.3839  1.3282  1.2535
12906TIP3   OH260132   3.088   0.729  13.528  0.2102 -0.0649  0.0334
12906TIP3    H160133   3.155   0.666  13.504  0.3967  0.1787 -0.0895
12906TIP3    H260134   3.078   0.784  13.451  0.4506  0.4042  0.3308
12907TIP3   OH260135   1.707   1.154  14.794 -0.0404  0.3003  0.2766
12907TIP3    H160136   1.623   1.157  14.748  0.3875  0.4590 -0.5046
12907TIP3    H260137   1.757   1.227  14.757  0.1634  0.6944  1.2986
12908TIP3   OH260138   0.629   6.677   3.182 -0.2658  0.0329 -0.0144
12908TIP3    H160139   0.666   6.655   3.097 -1.3151 -0.7776 -0.2876
12908TIP3    H260140   0.689   6.741   3.220 -0.2609  1.1021 -1.7523
12909TIP3   OH260141   6.497   4.387   0.063 -0.3286 -0.1570 -0.6306
12909TIP3    H160142   6.557   4.321   0.027 -0.7008 -0.1244 -1.3424
12909TIP3    H260143   6.432   4.337   0.111  0.0361 -0.2208 -0.1939
12910TIP3   OH260144   3.504   3.628  13.878 -0.2841  0.7146  0.0871
12910TIP3    H160145   3.468   3.578  13.952 -0.6398  1.8931  0.7254
12910TIP3    H260146   3.578   3.676  13.914  0.0898  0.6348 -0.5409
12911TIP3   OH260147   6.266   2.483   0.988 -0.1897  0.3366 -0.3236
12911TIP3    H160148   6.274   2.565   0.941  1.6444 -0.5295 -1.6510
12911TIP3    H260149   6.334   2.487   1.056 -0.0818 -0.0642 -0.4026
12912TIP3   OH260150   5.874   1.212  11.426 -0.1449  0.5296 -0.2268
12912TIP3    H160151   5.964   1.183  11.412 -1.2063 -1.9519 -3.0822
12912TIP3    H260152   5.853   1.182  11.515  1.5021  0.2192  0.0922
12913TIP3   OH260153   3.787   4.966   1.062 -0.4110  0.3463  0.1328
12913TIP3    H160154   3.832   5.034   1.112 -0.7849  1.2040 -0.6744
12913TIP3    H260155   3.791   4.996   0.972 -0.8226 -0.5779 -0.2068
12914TIP3   OH260156   2.551   0.527   3.739  0.0770  0.1775  0.2697
12914TIP3    H160157   2.503   0.564   3.664 -0.0529 -0.1193  0.2063
12914TIP3    H260158   2.624   0.588   3.753 -1.6815  2.0565  1.9437
12915TIP3   OH260159   2.153   4.786   0.556 -0.4558  0.5633 -0.5639
12915TIP3    H160160   2.220   4.724   0.584 -0.8369 -1.2885 -3.3641
12915TIP3    H260161   2.202   4.858   0.517 -0.0553  0.1173 -0.8936
12916TIP3   OH260162   1.311   5.736   6.517  0.1925 -0.1746  0.5254
12916TIP3    H160163   1.372   5.663   6.507 -0.0428 -0.2603 -0.4011
12916TIP3    H260164   1.285   5.733   6.609  1.7437  0.0016  0.9990
12917TIP3   OH260165   3.877   3.459   6.635 -0.1255  0.0100 -0.4940
12917TIP3    H160166   3.855   3.547   6.663 -0.8414 -0.4425  0.4103
12917TIP3    H260167   3.959   3.438   6.679 -0.1503  0.0850 -0.4139
12918TIP3   OH260168   1.644   1.967   3.401  0.1861  0.1910 -0.4057
12918TIP3    H160169   1.689   1.884   3.386 -0.1715  0.0355 -0.6300
12918TIP3    H260170   1.697   2.011   3.468 -0.0688 -0.5738  0.3137
12919TIP3   OH260171   3.455   1.746  16.046 -0.3253  0.0941  0.3486
12919TIP3    H160172   3.365   1.715  16.055 -0.3918 -0.8338 -2.5742
12919TIP3    H260173   3.497   1.684  15.986  1.6336  1.7018 -0.0926
12920TIP3   OH260174   2.662   4.546  11.694  0.0697 -0.6481  0.4135
12920TIP3    H160175   2.627   4.459  11.714 -1.4391 -0.0380  0.5337
12920TIP3    H260176   2.596   4.607  11.727  0.7633  0.5372 -0.3164
12921TIP3   OH260177   2.503   0.566   0.266 -0.0960 -0.1379 -0.1248
12921TIP3    H160178   2.571   0.608   0.213  0.9862  0.8487  1.9083
12921TIP3    H260179   2.428   0.626   0.260  0.5287  0.7509  0.6112
12922TIP3   OH260180   1.168   4.667   2.491  0.1226 -0.5102  1.0147
12922TIP3    H160181   1.208   4.672   2.577 -0.2725  1.0014  1.1430
12922TIP3    H260182   1.117   4.748   2.483  2.9008  1.2081 -1.9974
12923TIP3   OH260183   4.694   5.329  15.137  0.1993  0.4169  0.0225
12923TIP3    H160184   4.674   5.306  15.228 -0.0140  1.5490  0.2811
12923TIP3    H260185   4.643   5.267  15.085  1.1672 -0.9453  0.6494
12924TIP3   OH260186   2.295   1.148  10.669 -0.4327 -0.2172 -0.6171
12924TIP3    H160187   2.327   1.219  10.724 -1.9253 -0.6570  0.8860
12924TIP3    H260188   2.373   1.096  10.650  0.2350  0.3102  0.5540
12925TIP3   OH260189   3.087   5.172  11.737  0.2133  0.4175  0.4213
12925TIP3    H160190   3.123   5.255  11.707 -1.5274  0.6926 -1.1261
12925TIP3    H260191   2.995   5.174  11.708  0.0850 -1.9599  0.4699
12926TIP3   OH260192   2.178   4.163   0.020 -0.2363  0.5324 -0.3971
12926TIP3    H160193   2.128   4.150   0.100 -0.4358  0.0548 -0.5927
12926TIP3    H260194   2.220   4.248   0.031  1.3263 -0.3712  1.0629
12927TIP3   OH260195   2.448   0.298   2.232 -0.1061 -0.0009 -0.0125
12927TIP3    H160196   2.392   0.319   2.306 -0.1854 -1.2067  0.2899
12927TIP3    H260197   2.526   0.353   2.244 -1.2875  1.9099 -0.5952
12928TIP3   OH260198   4.620   3.340   6.723  0.3440 -0.3266 -0.0445
12928TIP3    H160199   4.634   3.364   6.631 -0.5677  0.2122 -0.0526
12928TIP3    H260200   4.524   3.337   6.732  0.3695 -3.1268  0.1696
12929TIP3   OH260201   2.982   3.496  10.814  0.1639  0.0499  0.2248
12929TIP3    H160202   3.057   3.517  10.870  0.0744  0.3739  0.2250
12929TIP3    H260203   2.933   3.431  10.863 -0.3345  0.8957  0.8829
12930TIP3   OH260204   2.679   3.819  11.071  0.0144 -0.6135 -0.2868
12930TIP3    H160205   2.757   3.809  11.018  0.1283  0.2910 -0.2937
12930TIP3    H260206   2.612   3.769  11.024  0.2718 -0.3539 -0.9408
12931TIP3   OH260207   6.321   1.824  14.677 -0.7979 -0.3243 -0.0048
12931TIP3    H160208   6.329   1.758  14.608 -1.5198  0.5153 -0.9405
12931TIP3    H260209   6.234   1.862  14.664 -0.4807  0.6675  0.6132
12932TIP3   OH260210   6.671   6.492  13.562 -0.6641  0.3269 -0.5112
12932TIP3    H160211   6.642   6.425  13.623 -1.4731 -0.2792 -1.5277
12932TIP3    H260212   6.674   6.573  13.614  0.9777 -0.5767  0.9018
12933TIP3   OH260213   1.926   3.961   0.193 -0.2061  0.1031  0.1546
12933TIP3    H160214   1.881   4.018   0.131  0.5235 -0.8030 -1.2811
12933TIP3    H260215   1.887   3.874   0.178  2.1458 -0.7940 -1.4188
12934TIP3   OH260216   1.180   0.047   3.356 -0.0716  0.0857 -0.0968
12934TIP3    H160217   1.261   0.038   3.406  1.0533  0.1310 -1.8204
12934TIP3    H260218   1.194  -0.007   3.278 -0.3437  2.6035 -2.0175
12935TIP3   OH260219   0.514   5.089  16.968  0.3982 -1.0118  0.2135
12935TIP3    H160220   0.489   5.028  17.037 -2.7572  0.7510  0.8281
12935TIP3    H260221   0.542   5.168  17.014 -1.0620 -0.0599 -0.4402
12936TIP3   OH260222   6.026   4.476  12.089  0.3677 -0.3010  0.1440
12936TIP3    H160223   6.057   4.397  12.044  0.8322  0.6916 -1.3696
12936TIP3    H260224   5.980   4.526  12.021  0.3961  0.9005  0.9747
12937TIP3   OH260225   0.028   1.622   0.310  0.4212 -0.2960  0.1313
12937TIP3    H160226   0.115   1.643   0.274  0.2670  0.2163  0.0417
12937TIP3    H260227  -0.030   1.621   0.233  0.2309  0.0279  0.2680
12938TIP3   OH260228   4.753   5.134   5.791 -0.1541  0.0701  0.1653
12938TIP3    H160229   4.683   5.127   5.856 -0.8368  2.7465 -0.1513
12938TIP3    H260230   4.743   5.056   5.737 -1.8299 -0.4537  1.1355
12939TIP3   OH260231   2.968   1.436  17.145 -0.2546 -0.1763 -0.7289
12939TIP3    H160232   2.876   1.424  17.120  0.3854 -0.8611 -2.9670
12939TIP3    H260233   2.972   1.527  17.176 -1.6591 -0.1154 -0.6335
12940TIP3   OH260234   6.523   2.741  13.760 -0.3061 -0.3252  0.1254
12940TIP3    H160235   6.460   2.793  13.810  0.5267  1.0992 -0.2599
12940TIP3    H260236   6.567   2.687  13.826 -0.1978  0.5138  0.7617
12941TIP3   OH260237   2.997   1.414  16.880 -0.2356 -0.3448 -0.0055
12941TIP3    H160238   2.973   1.409  16.973  1.2431  0.7136  0.4627
12941TIP3    H260239   2.934   1.355  16.837  0.1359 -2.2679  1.8703
12942TIP3   OH260240   6.483   4.520  15.931  0.0349  0.2313 -0.3132
12942TIP3    H160241   6.430   4.593  15.963 -1.3116 -0.7514 -0.1963
12942TIP3    H260242   6.557   4.516  15.992 -1.1370  0.0152  1.1738
12943TIP3   OH260243   2.381   5.785   3.479  0.0396 -0.0756 -0.2550
12943TIP3    H160244   2.298   5.779   3.433  0.0488  0.0127 -0.2836
12943TIP3    H260245   2.445   5.802   3.410  0.3953 -2.2289 -0.5258
12944TIP3   OH260246   2.976   1.266   3.702  0.8949 -0.4887 -0.1694
12944TIP3    H160247   3.058   1.301   3.736  0.6598  0.2616 -0.3555
12944TIP3    H260248   2.936   1.340   3.655  1.1752 -1.4506 -2.0335
12945TIP3   OH260249   4.718   1.328   2.573  0.3686  0.2031 -0.4221
12945TIP3    H160250   4.662   1.264   2.616  0.9431 -0.5143 -0.7267
12945TIP3    H260251   4.804   1.316   2.614  0.9553 -0.5822 -1.8456
12946TIP3   OH260252   5.391   6.315  15.365 -0.3770 -0.3626 -0.3659
12946TIP3    H160253   5.345   6.241  15.404 -1.4430 -0.2839 -1.3781
12946TIP3    H260254   5.367   6.311  15.272  0.0382  0.8865 -0.5471
12947TIP3   OH260255   5.603   1.943   3.946  0.0299  0.7791  0.0184
12947TIP3    H160256   5.535   1.906   4.002  0.9893 -0.4592  0.4240
12947TIP3    H260257   5.683   1.897   3.972  0.5329  0.2305 -2.3177
12948TIP3   OH260258   4.669   5.349  12.965  0.3264  1.1492 -0.9593
12948TIP3    H160259   4.729   5.283  12.999  0.7916  1.7320 -0.6363
12948TIP3    H260260   4.705   5.371  12.879 -1.0485 -0.5868 -2.0573
12949TIP3   OH260261   5.620   3.886  16.566 -0.4268 -1.0435 -0.3686
12949TIP3    H160262   5.686   3.914  16.629 -1.0758 -2.3424  0.9709
12949TIP3    H260263   5.670   3.851  16.493  0.3497  0.7420 -0.7362
12950TIP3   OH260264   5.348   5.137   0.500  0.1780  0.0953  0.3427
12950TIP3    H160265   5.264   5.119   0.458 -0.0026  0.0382  0.7264
12950TIP3    H260266   5.334   5.216   0.551  0.4320  0.2341  0.2000
12951TIP3   OH260267   6.702   4.733   3.607  0.4597  0.1035 -0.2249
12951TIP3    H160268   6.623   4.736   3.554 -0.5073  0.0449  1.1471
12951TIP3    H260269   6.771   4.709   3.546 -0.9783 -2.2433 -1.0721
12952TIP3   OH260270   0.916   5.989   1.280 -0.0801  0.5072 -0.3773
12952TIP3    H160271   0.931   6.047   1.355 -1.0842  0.4126 -0.0978
12952TIP3    H260272   0.999   5.942   1.269  0.1079  0.5927  0.6055
12953TIP3   OH260273   2.847   4.373   2.049 -0.8917 -0.1600 -0.3299
12953TIP3    H160274   2.856   4.295   1.994  3.3544 -0.2306  0.1198
12953TIP3    H260275   2.841   4.446   1.987 -0.9048 -0.5537 -0.7970
12954TIP3   OH260276   2.892   2.331   0.090  0.1974 -0.2484  0.0187
12954TIP3    H160277   2.960   2.264   0.086 -0.6966 -1.2160  0.6198
12954TIP3    H260278   2.860   2.337   0.000 -0.1222 -1.0626  0.0699
12955TIP3   OH260279   3.390   1.937  15.594  0.6480 -0.1224  0.0792
12955TIP3    H160280   3.387   1.918  15.688  0.7813  1.5413  0.4406
12955TIP3    H260281   3.422   2.027  15.589 -1.3219  0.5479 -1.4628
12956TIP3   OH260282   5.165   2.474   0.326 -0.1381  0.0310  0.9902
12956TIP3    H160283   5.229   2.538   0.295 -0.1409 -0.5478 -0.2995
12956TIP3    H260284   5.143   2.502   0.415  0.6060  1.2252  0.8161
12957TIP3   OH260285   3.934   6.651   4.167  0.0139 -0.0744  0.0992
12957TIP3    H160286   3.964   6.720   4.226  0.5258  0.9051 -1.2463
12957TIP3    H260287   3.848   6.682   4.136  0.1635 -0.1231 -0.3688
12958TIP3   OH260288   0.013   4.316  12.595 -0.0016 -0.3211  0.2098
12958TIP3    H160289   0.059   4.246  12.549  1.2302 -0.0858  1.0371
12958TIP3    H260290   0.069   4.393  12.585 -2.0537  1.0112 -1.9810
12959TIP3   OH260291   2.752   6.681  15.114 -0.3483 -0.1301  0.1966
12959TIP3    H160292   2.740   6.674  15.019  1.8562  0.4913 -0.1774
12959TIP3    H260293   2.842   6.712  15.125 -0.1354 -1.3383  2.5275
12960TIP3   OH260294   0.772   3.262   6.456 -0.2236  0.2797  0.7647
12960TIP3    H160295   0.842   3.314   6.416 -0.1560 -0.5589 -0.2088
12960TIP3    H260296   0.763   3.185   6.401 -0.8873 -0.3678  1.7404
12961TIP3   OH260297   1.057   1.131  13.251  0.4978 -0.0268 -0.1283
12961TIP3    H160298   1.136   1.105  13.298  0.1512  0.3425  0.6576
12961TIP3    H260299   1.065   1.225  13.239  0.2817 -0.0230 -0.2508
12962TIP3   OH260300   5.664   3.513   1.800  0.7728 -0.2588 -0.1115
12962TIP3    H160301   5.672   3.563   1.881  3.4427 -0.7516 -0.0082
12962TIP3    H260302   5.632   3.578   1.736  0.4249  0.5816  0.8802
12963TIP3   OH260303   4.373   0.933  13.182  0.0040 -0.2219  0.1316
12963TIP3    H160304   4.445   0.935  13.244  1.6724 -1.4955 -1.6490
12963TIP3    H260305   4.385   0.852  13.133 -2.8139 -0.5992 -0.0900
12964TIP3   OH260306   3.696   1.676  12.077 -0.1129  0.0825  0.0527
12964TIP3    H160307   3.751   1.616  12.129 -1.0694 -0.4842  0.4412
12964TIP3    H260308   3.678   1.628  11.996  0.1084  0.3390 -0.1498
12965TIP3   OH260309   0.008   2.916  15.736  1.1777 -0.2398  0.0360
12965TIP3    H160310   0.024   3.005  15.765  1.2371  0.0453 -0.8425
12965TIP3    H260311  -0.055   2.924  15.665  3.0413 -0.6272 -1.7826
12966TIP3   OH260312   0.775   5.561  12.025  0.7851 -0.3264  0.2673
12966TIP3    H160313   0.854   5.598  12.064  0.0097  0.8335  0.7971
12966TIP3    H260314   0.735   5.635  11.979 -0.3491 -0.7276  0.5936
12967TIP3   OH260315   1.926   4.720  13.932 -0.2086  0.0381 -0.5637
12967TIP3    H160316   1.944   4.814  13.929 -0.6300  0.2715 -5.8299
12967TIP3    H260317   2.004   4.683  13.973  0.1396  2.5502  1.3331
12968TIP3   OH260318   3.308   4.132  12.994 -0.4829 -0.1471  0.1359
12968TIP3    H160319   3.227   4.133  12.943 -1.6099 -2.2195  1.7076
12968TIP3    H260320   3.323   4.224  13.018 -2.2175  0.3101 -0.4002
12969TIP3   OH260321   1.670   3.769   2.550  0.0941 -0.6852 -0.4957
12969TIP3    H160322   1.674   3.733   2.461  1.8596 -1.6817 -0.0443
12969TIP3    H260323   1.586   3.736   2.585 -1.4217  1.0513 -2.2852
12970TIP3   OH260324   4.423   0.130  15.104  0.3375 -0.7801 -0.0913
12970TIP3    H160325   4.375   0.211  15.123  1.4902 -0.6460  2.5599
12970TIP3    H260326   4.363   0.060  15.129  1.1299 -0.6218  2.4649
12971TIP3   OH260327   5.118   0.938   4.966  0.0415 -0.2121 -0.6505
12971TIP3    H160328   5.047   0.931   5.030  0.9684  0.6810  0.5236
12971TIP3    H260329   5.086   1.000   4.901 -0.2207  0.2830 -0.0604
12972TIP3   OH260330   1.568   2.603  15.743  0.1187 -0.0148 -0.8981
12972TIP3    H160331   1.612   2.680  15.778 -0.6312  0.3386 -0.7292
12972TIP3    H260332   1.638   2.538  15.733  0.5012  0.1756  0.3966
12973TIP3   OH260333   2.167   0.859  11.986 -0.1715  0.3733 -0.2819
12973TIP3    H160334   2.125   0.880  12.069  1.0978 -1.3744  0.8780
12973TIP3    H260335   2.097   0.866  11.921 -1.8292 -0.6095  1.3078
12974TIP3   OH260336   1.259   0.715   5.579 -0.7644  0.2823 -0.7532
12974TIP3    H160337   1.304   0.785   5.530  0.0640 -0.6646 -1.3752
12974TIP3    H260338   1.330   0.664   5.617 -1.3258 -0.8399 -1.1784
12975TIP3   OH260339   0.245   5.875  14.284  0.4675  0.0475 -0.4229
12975TIP3    H160340   0.167   5.930  14.294 -1.2617 -2.1588 -0.9899
12975TIP3    H260341   0.240   5.843  14.194  2.0917 -0.0881 -0.4863
12976TIP3   OH260342   5.085   3.595  12.964 -0.0062  0.7296 -0.2784
12976TIP3    H160343   5.010   3.653  12.973  0.4230  1.4825 -1.3633
12976TIP3    H260344   5.145   3.621  13.034 -1.1605 -0.5733  1.2676
12977TIP3   OH260345   3.342   0.898  15.753 -0.1779 -0.3314  0.4094
12977TIP3    H160346   3.344   0.864  15.842  2.3978 -0.4058  0.4131
12977TIP3    H260347   3.434   0.916  15.732 -0.8663  1.2380 -1.6563
12978TIP3   OH260348   3.269   0.928   5.393  0.6387 -0.5251  0.4602
12978TIP3    H160349   3.324   0.980   5.334 -0.3501  0.4491  0.3718
12978TIP3    H260350   3.324   0.854   5.418  1.1889 -0.8059 -1.4538
12979TIP3   OH260351   0.222   0.743   4.565  0.0909  0.3997 -0.1423
12979TIP3    H160352   0.169   0.693   4.503 -0.9344 -0.7275  1.5707
12979TIP3    H260353   0.235   0.685   4.640  1.8499  1.4727  0.4743
12980TIP3   OH260354   2.945   5.797  10.866 -0.3402 -0.1726 -0.3751
12980TIP3    H160355   2.943   5.790  10.770  0.4064  2.2982 -0.6280
12980TIP3    H260356   2.855   5.817  10.890 -0.7750 -1.9377 -0.4017
12981TIP3   OH260357   3.386   0.981  17.107  0.1043  0.3078 -0.1335
12981TIP3    H160358   3.302   1.016  17.078 -0.4582  0.5391  1.6281
12981TIP3    H260359   3.389   1.002  17.201  1.4289 -1.0637  0.1674
12982TIP3   OH260360   1.816   3.786  14.694 -0.4336  0.1045 -0.3454
12982TIP3    H160361   1.741   3.774  14.752  1.0524 -3.4184  1.0767
12982TIP3    H260362   1.779   3.777  14.606 -1.7905 -0.8776  0.2881
12983TIP3   OH260363   1.398   0.773   3.245 -0.2267 -0.0826 -0.0525
12983TIP3    H160364   1.443   0.689   3.246 -0.5510 -0.2861 -1.0834
12983TIP3    H260365   1.468   0.837   3.228 -0.1619 -0.2826 -0.5558
12984TIP3   OH260366   5.564   5.536  10.836  0.1688  0.1698 -0.5416
12984TIP3    H160367   5.576   5.578  10.751 -1.4475 -2.9831 -2.5020
12984TIP3    H260368   5.572   5.442  10.818 -2.4343 -0.7641  2.3475
12985TIP3   OH260369   5.623   4.643   5.380  0.3647  0.1266  0.0615
12985TIP3    H160370   5.605   4.567   5.436  1.9782 -0.1616  0.2351
12985TIP3    H260371   5.601   4.719   5.434  0.4426 -0.1864  0.5337
12986TIP3   OH260372   5.283   5.068  11.303  0.1255 -0.5794 -0.2651
12986TIP3    H160373   5.261   5.154  11.340 -0.5778 -0.5481 -0.7403
12986TIP3    H260374   5.362   5.085  11.251  2.2994 -1.0012  2.6661
12987TIP3   OH260375   5.129   1.349   0.279  0.6261 -0.4397  0.5952
12987TIP3    H160376   5.222   1.331   0.293  1.1126  0.6072 -0.9748
12987TIP3    H260377   5.126   1.396   0.196 -1.1410  1.1100  1.4518
12988TIP3   OH260378   1.310   5.009  16.663 -0.8618  0.3941 -0.6886
12988TIP3    H160379   1.287   5.030  16.754  0.0679 -2.3554  0.2843
12988TIP3    H260380   1.238   4.955  16.631 -0.3878 -0.0717 -0.9929
12989TIP3   OH260381   1.471   1.556  12.848  0.3676  0.2661 -0.4301
12989TIP3    H160382   1.561   1.589  12.847  0.1939  0.7590 -1.1233
12989TIP3    H260383   1.454   1.532  12.757  1.1353 -3.6137  0.2928
12990TIP3   OH260384   1.792   0.063   1.242  0.0444 -0.2022 -0.2065
12990TIP3    H160385   1.774  -0.031   1.246  0.3899 -0.2955 -0.7545
12990TIP3    H260386   1.869   0.070   1.186 -0.7905  0.4990 -1.3274
12991TIP3   OH260387   4.094   0.346  16.612 -0.4511  0.2544  0.0942
12991TIP3    H160388   4.062   0.258  16.630  1.9705 -0.6587  0.2403
12991TIP3    H260389   4.018   0.402  16.628 -1.7403 -1.6680  1.1557
12992TIP3   OH260390   3.577   6.333  13.711  0.1999  0.0596 -0.3392
12992TIP3    H160391   3.646   6.325  13.645  0.8643  0.2339  0.3102
12992TIP3    H260392   3.625   6.339  13.794 -0.6001  0.2889  0.1161
12993TIP3   OH260393   0.846   1.821  13.551 -0.2712  0.4239  0.1346
12993TIP3    H160394   0.796   1.895  13.517 -1.9219 -1.4801 -1.9437
12993TIP3    H260395   0.883   1.779  13.474  0.6910 -0.8755  1.2438
12994TIP3   OH260396   4.001   4.563   3.965 -0.2887  0.1118 -0.0784
12994TIP3    H160397   3.998   4.598   4.054 -0.3068 -3.6582  1.5987
12994TIP3    H260398   3.911   4.537   3.946  0.2080 -1.9074  0.1319
12995TIP3   OH260399   5.136   1.828  15.253 -0.3376  0.4945  0.1853
12995TIP3    H160400   5.128   1.819  15.348 -1.6863  0.8044  0.1196
12995TIP3    H260401   5.229   1.844  15.238  0.3440 -1.9488  1.2369
12996TIP3   OH260402   2.152   5.457  16.216  0.4108  0.3400 -0.5654
12996TIP3    H160403   2.144   5.524  16.285  1.2625 -0.6116  0.4947
12996TIP3    H260404   2.240   5.469  16.181  0.0690  0.6543 -1.3517
12997TIP3   OH260405   5.385   0.675  11.802 -0.4120  0.1342 -0.3092
12997TIP3    H160406   5.458   0.634  11.755 -1.2884  0.9084 -2.4768
12997TIP3    H260407   5.308   0.657  11.747 -1.8192 -0.2971  1.6922
12998TIP3   OH260408   4.421   4.111  14.022  0.3355 -0.0429 -0.5699
12998TIP3    H160409   4.414   4.181  13.957 -0.6512  0.5447  0.1457
12998TIP3    H260410   4.470   4.042  13.977  2.0665  1.4127 -1.0198
12999TIP3   OH260411   4.360   4.855  16.731 -0.1188 -0.1382  0.0472
12999TIP3    H160412   4.438   4.840  16.783 -0.3998  1.5092  1.0348
12999TIP3    H260413   4.314   4.926  16.776 -1.9507 -0.7284 -0.7576
13000TIP3   OH260414   5.302   2.535  11.149  0.1570 -0.0891  0.5279
13000TIP3    H160415   5.367   2.514  11.082  0.4237  0.7787  0.5030
13000TIP3    H260416   5.247   2.601  11.109 -1.5033 -1.6393  0.1104
13001TIP3   OH260417   4.058   6.213  13.543  0.2743  0.4372 -0.0613
13001TIP3    H160418   4.152   6.218  13.563  0.5785 -3.0972 -0.0314
13001TIP3    H260419   4.054   6.168  13.459 -1.3469 -1.6667  1.0343
13002TIP3   OH260420   6.054   5.219   0.982 -0.3688 -0.9068  0.0396
13002TIP3    H160421   5.996   5.184   0.916  0.2242 -0.7017 -0.6031
13002TIP3    H260422   6.140   5.181   0.962 -0.1696 -0.8107  0.6622
13003TIP3   OH260423   0.910   0.762   0.547 -0.2576 -0.1659 -0.7325
13003TIP3    H160424   0.820   0.791   0.563 -0.1953  0.0819 -0.8290
13003TIP3    H260425   0.953   0.838   0.510  0.3083  0.0792  0.3961
13004TIP3   OH260426   6.276   4.760   0.612 -0.1632  0.2464 -0.6653
13004TIP3    H160427   6.225   4.758   0.692  3.7774 -0.4274  2.1431
13004TIP3    H260428   6.314   4.848   0.610 -0.7419  0.4931 -2.2466
13005TIP3   OH260429   6.437   0.314   5.002 -0.0906  0.1541 -0.6108
13005TIP3    H160430   6.524   0.293   5.037 -1.2000  0.3799  2.5463
13005TIP3    H260431   6.450   0.399   4.958  1.6247 -0.7121 -1.9235
13006TIP3   OH260432   1.584   2.242   0.139  0.0610 -0.6101 -0.0219
13006TIP3    H160433   1.602   2.299   0.064  0.6043 -1.3431 -0.4647
13006TIP3    H260434   1.497   2.206   0.122 -0.9945  1.2385  1.0304
13007TIP3   OH260435   5.994   0.150  12.489  0.1007  0.2066  0.0762
13007TIP3    H160436   5.931   0.084  12.519  2.2711 -2.1411 -0.1391
13007TIP3    H260437   5.998   0.213  12.561 -1.1561 -0.5361  0.8414
13008TIP3   OH260438   1.108   5.554   5.383  0.2739  0.5043  0.3378
13008TIP3    H160439   1.185   5.595   5.422  0.7785 -0.5983  0.5095
13008TIP3    H260440   1.034   5.599   5.424  0.8148  1.0735  0.7018
13009TIP3   OH260441   0.997   3.184  12.145  0.2160  0.5328 -0.3490
13009TIP3    H160442   0.954   3.200  12.229 -0.2363 -0.7449 -0.3143
13009TIP3    H260443   1.024   3.271  12.115  1.1783  0.9428  1.5273
13010TIP3   OH260444   2.360   1.633  14.323  0.2296 -0.7973 -0.4966
13010TIP3    H160445   2.373   1.724  14.350  1.2310 -1.2909  0.7780
13010TIP3    H260446   2.417   1.622  14.246 -0.3410 -0.1951 -1.0092
13011TIP3   OH260447   6.599   1.611   0.099  0.0667 -0.5772 -0.3318
13011TIP3    H160448   6.635   1.585   0.014 -2.2532 -2.3098 -0.9046
13011TIP3    H260449   6.538   1.681   0.080 -2.1993 -2.4808 -0.5732
13012TIP3   OH260450   4.788   5.501  12.407  0.2288 -0.2128  0.1629
13012TIP3    H160451   4.746   5.519  12.491 -1.0086 -1.1108 -0.2261
13012TIP3    H260452   4.860   5.442  12.429 -0.5262 -1.0273  0.5387
13013TIP3   OH260453   3.713   5.739  11.218  0.4362 -0.1315  0.2828
13013TIP3    H160454   3.626   5.765  11.189  0.6084 -1.0510 -1.1908
13013TIP3    H260455   3.701   5.652  11.255  0.8977 -0.7971 -1.0822
13014TIP3   OH260456   3.983   4.523  16.560 -0.0386 -0.2580  1.4877
13014TIP3    H160457   4.016   4.443  16.602 -0.8400 -0.7084  1.2760
13014TIP3    H260458   4.009   4.515  16.469 -2.7869 -1.8308  0.7279
13015TIP3   OH260459   1.552   1.720  11.640  0.2177  0.3928  0.0082
13015TIP3    H160460   1.647   1.716  11.629  0.1888  0.9914 -0.5591
13015TIP3    H260461   1.532   1.813  11.645 -0.4085  0.3014 -0.5622
13016TIP3   OH260462   6.549   1.011  12.828 -0.8577  0.0001 -0.0788
13016TIP3    H160463   6.542   1.046  12.739 -2.3590 -0.6525 -0.2469
13016TIP3    H260464   6.617   0.943  12.821  0.2511  1.0956 -0.3157
13017TIP3   OH260465   3.392   3.864  13.155  0.3222  0.2785  0.3823
13017TIP3    H160466   3.414   3.779  13.116 -1.0921 -0.5691  1.3165
13017TIP3    H260467   3.398   3.926  13.082 -0.7256 -1.0005 -0.8586
13018TIP3   OH260468   6.532   4.210  16.839  0.9376 -0.2964 -0.2314
13018TIP3    H160469   6.464   4.147  16.861  1.7052 -1.5568 -1.3200
13018TIP3    H260470   6.491   4.295  16.853 -0.0150 -0.9995  1.6301
13019TIP3   OH260471   2.269   6.431  15.163 -0.1780 -0.1894 -0.4278
13019TIP3    H160472   2.319   6.349  15.159  0.8330  0.4567 -2.1511
13019TIP3    H260473   2.189   6.413  15.113 -0.6089 -0.5041  0.3457
13020TIP3   OH260474   5.090   0.021   4.581  0.3969 -0.1031 -0.4854
13020TIP3    H160475   5.004  -0.018   4.568  0.1445  0.3958 -0.3250
13020TIP3    H260476   5.099   0.030   4.676  1.2126 -1.4416 -0.4063
13021TIP3   OH260477   6.538   3.293  13.254 -0.4031  0.6384  0.3725
13021TIP3    H160478   6.494   3.291  13.169 -2.3200  1.6279  1.2692
13021TIP3    H260479   6.500   3.368  13.299  1.2340  0.6866  1.7714
13022TIP3   OH260480   3.955   3.454   4.945  0.1398  0.9467 -0.0984
13022TIP3    H160481   4.019   3.520   4.972  0.3079  1.1252 -0.9272
13022TIP3    H260482   3.986   3.423   4.861 -0.5414  0.5955 -0.2265
13023TIP3   OH260483   6.545   5.573   4.763  0.2705  0.5196 -0.2940
13023TIP3    H160484   6.469   5.607   4.715  0.2503  0.7311 -0.1136
13023TIP3    H260485   6.557   5.635   4.835  0.0744  0.0037  0.1895
13024TIP3   OH260486   4.322   1.047   2.857 -0.5184  0.0180  0.3067
13024TIP3    H160487   4.388   0.978   2.848  0.7698  1.1759  0.4864
13024TIP3    H260488   4.280   1.029   2.941 -0.8131 -1.0349 -0.0514
13025TIP3   OH260489   4.818   0.561   2.923 -0.6544 -0.2567 -0.5135
13025TIP3    H160490   4.799   0.483   2.975 -0.7045 -0.5129 -0.9091
13025TIP3    H260491   4.772   0.547   2.840 -0.8427  0.2960 -0.5080
13026TIP3   OH260492   1.149   1.836  15.579 -0.1755 -0.6764 -0.4849
13026TIP3    H160493   1.104   1.752  15.594 -0.1116 -0.9421 -1.6876
13026TIP3    H260494   1.242   1.815  15.590 -0.2541 -0.3779  0.8748
13027TIP3   OH260495   0.827   5.360  12.654 -0.3569 -0.0584  0.2441
13027TIP3    H160496   0.785   5.414  12.587 -0.8165  0.8316  1.2143
13027TIP3    H260497   0.789   5.273  12.643 -1.8808  0.5443  0.5855
13028TIP3   OH260498   6.464   6.014  11.074 -0.2406  0.1169 -0.1267
13028TIP3    H160499   6.438   5.955  11.145  2.9579 -1.2255  0.1219
13028TIP3    H260500   6.519   6.079  11.117  2.6642 -1.3343 -1.3357
13029TIP3   OH260501   6.699   6.537   3.045  0.2743 -0.6131 -0.0107
13029TIP3    H160502   6.705   6.531   2.950  0.3165  1.4029 -0.1636
13029TIP3    H260503   6.762   6.604   3.070 -2.3842  1.7056  1.0161
13030TIP3   OH260504   6.711   1.320  14.501  0.0798 -0.5790  0.5512
13030TIP3    H160505   6.701   1.241  14.448 -0.3048 -0.4994  0.5057
13030TIP3    H260506   6.787   1.302  14.557 -0.7520 -1.4843  1.4260
13031TIP3   OH260507   2.538   2.438  15.112 -0.1205  0.2937  0.0918
13031TIP3    H160508   2.445   2.413  15.111 -0.3289  1.0465 -0.0787
13031TIP3    H260509   2.576   2.392  15.037 -0.3038 -0.2093  0.3057
13032TIP3   OH260510   5.584   6.093   3.336 -0.0658 -0.1453  0.3742
13032TIP3    H160511   5.605   6.011   3.381  0.5731 -0.3223 -0.2280
13032TIP3    H260512   5.494   6.082   3.306 -0.1909 -0.3770  0.8304
13033TIP3   OH260513   0.498   3.628  14.279 -0.0140 -0.3017  0.3170
13033TIP3    H160514   0.530   3.608  14.191  0.9296 -0.3038  0.6484
13033TIP3    H260515   0.462   3.717  14.272 -0.3625 -0.4782 -0.1734
13034TIP3   OH260516   2.001   2.417  13.903 -0.3484  0.1608 -0.1554
13034TIP3    H160517   2.039   2.458  13.981 -1.5465 -1.1312  1.1846
13034TIP3    H260518   2.012   2.323  13.918  1.0842 -0.1089 -2.4773
13035TIP3   OH260519   5.704   0.370   3.020  0.3326  0.2015  0.3153
13035TIP3    H160520   5.610   0.385   3.029 -0.0303  2.2433 -4.0354
13035TIP3    H260521   5.744   0.453   3.047  0.8913 -0.4596  1.5945
13036TIP3   OH260522   6.568   2.544  12.579  0.2123 -0.0173 -0.4462
13036TIP3    H160523   6.555   2.516  12.670  1.7642  0.8981  0.0949
13036TIP3    H260524   6.568   2.640  12.584 -2.6003  0.1650 -1.8845
13037TIP3   OH260525   3.147   1.683   3.226 -0.0550 -0.0733 -0.4779
13037TIP3    H160526   3.195   1.682   3.143  0.0892  0.2133 -0.4012
13037TIP3    H260527   3.194   1.747   3.280  1.5050 -2.1584  0.8258
13038TIP3   OH260528   5.698   4.015   4.287  0.1241 -0.4220 -0.2433
13038TIP3    H160529   5.756   4.091   4.281 -1.2286  0.5697 -1.2914
13038TIP3    H260530   5.682   3.990   4.196 -1.5804 -0.2697 -0.0166
13039TIP3   OH260531   5.966   1.581   1.073 -0.0361 -0.0850  0.0139
13039TIP3    H160532   6.005   1.536   0.998 -0.0201  0.1623 -0.1256
13039TIP3    H260533   5.906   1.644   1.035  0.4252  0.4661  0.1926
13040TIP3   OH260534   1.349   6.460  13.258 -0.1335 -0.1949 -0.9128
13040TIP3    H160535   1.444   6.444  13.263 -0.6379 -3.6658  1.1632
13040TIP3    H260536   1.330   6.510  13.337  0.1220  2.1748 -2.2815
13041TIP3   OH260537   2.007   2.679  11.295 -0.5762 -0.2773  0.1507
13041TIP3    H160538   2.094   2.649  11.320 -0.7147 -1.3410 -0.5828
13041TIP3    H260539   1.947   2.621  11.342 -0.9648  1.4368  1.9133
13042TIP3   OH260540   1.224   5.097   2.079  0.0469  0.4560  0.0867
13042TIP3    H160541   1.301   5.145   2.112  0.3730 -0.5511  0.8155
13042TIP3    H260542   1.236   5.097   1.984  0.8913  0.4066  0.1828
13043TIP3   OH260543   6.485   2.752  14.499  0.1328  0.3648 -0.5171
13043TIP3    H160544   6.579   2.765  14.507  0.0702  0.6166 -0.1568
13043TIP3    H260545   6.475   2.660  14.477  0.4807  0.4209 -0.9324
13044TIP3   OH260546   1.167   4.615  10.743 -0.4940 -0.0739  0.2328
13044TIP3    H160547   1.085   4.642  10.702  0.2318 -1.1859 -2.1107
13044TIP3    H260548   1.225   4.691  10.733 -0.7765  0.2020  0.6279
13045TIP3   OH260549   0.434   2.194   4.230  0.1175  0.3163  0.3078
13045TIP3    H160550   0.366   2.140   4.270  2.2461 -2.2101  0.8094
13045TIP3    H260551   0.486   2.132   4.179  1.7665  2.2149 -0.4238
13046TIP3   OH260552   1.565   0.386   1.427 -0.1989 -0.4341  0.1683
13046TIP3    H160553   1.528   0.363   1.512 -0.5138 -0.7873 -0.0661
13046TIP3    H260554   1.656   0.356   1.432  0.0028  0.2157  0.6506
13047TIP3   OH260555   0.419   1.658   4.711  0.2685  0.1590 -0.3237
13047TIP3    H160556   0.460   1.639   4.795  0.2622  0.2837 -0.2928
13047TIP3    H260557   0.370   1.579   4.690 -0.0854  0.2929 -0.0012
13048TIP3   OH260558   0.185   0.913  15.313 -0.1232 -0.0609  0.4549
13048TIP3    H160559   0.092   0.918  15.334  0.2464  1.9932  1.9496
13048TIP3    H260560   0.225   0.869  15.389  0.1515 -0.9195 -0.1702
13049TIP3   OH260561   4.598   6.435  16.679  0.1838  0.4315 -0.0055
13049TIP3    H160562   4.621   6.399  16.765 -1.4899 -0.7894 -0.0320
13049TIP3    H260563   4.559   6.361  16.632  0.3163  1.2988 -1.5365
13050TIP3   OH260564   5.963   6.595  12.087  0.4864  0.4486 -0.4435
13050TIP3    H160565   5.949   6.532  12.158 -1.1395 -0.4095 -1.4634
13050TIP3    H260566   5.953   6.681  12.128  1.3157  0.0175  0.6922
13051TIP3   OH260567   5.332   1.359  16.475 -0.2669  0.7503 -0.1282
13051TIP3    H160568   5.288   1.357  16.390 -0.0983 -2.1313 -0.2378
13051TIP3    H260569   5.387   1.438  16.472  0.1859  0.4260 -2.9365
13052TIP3   OH260570   1.028   0.741  10.691 -0.1601 -0.8213  0.3857
13052TIP3    H160571   0.935   0.720  10.701 -0.3614  0.2827  1.0236
13052TIP3    H260572   1.073   0.657  10.701 -1.1153 -1.4565 -0.5061
13053TIP3   OH260573   2.302   4.671   5.113  0.7128 -0.1014  0.0257
13053TIP3    H160574   2.250   4.624   5.049  1.9686 -1.7221  0.1254
13053TIP3    H260575   2.255   4.660   5.196  0.6437 -0.6089 -0.0811
13054TIP3   OH260576   1.207   4.399  11.471 -0.1024  0.3927 -0.4883
13054TIP3    H160577   1.198   4.399  11.376 -2.0686  1.5465 -0.3717
13054TIP3    H260578   1.253   4.481  11.491  1.0268 -0.2315 -0.4658
13055TIP3   OH260579   0.423   0.708  11.977 -0.1936  0.0143 -0.2583
13055TIP3    H160580   0.488   0.729  11.910 -0.4440  0.1681 -0.4547
13055TIP3    H260581   0.474   0.675  12.051  0.2490  1.7650  0.2542
13056TIP3   OH260582   6.384   5.821   1.139 -0.6963  0.2281  0.6835
13056TIP3    H160583   6.340   5.901   1.111 -0.0348  1.1021  2.0272
13056TIP3    H260584   6.353   5.805   1.228  1.1378  0.5021  1.4250
13057TIP3   OH260585   4.457   0.028   1.486 -0.2961 -0.1417  0.0092
13057TIP3    H160586   4.413   0.113   1.488 -0.1251 -0.0500 -0.0528
13057TIP3    H260587   4.424  -0.018   1.563  0.6901  0.5327  0.8838
13058TIP3   OH260588   1.863   0.649   4.733 -0.3430 -0.0273  0.4450
13058TIP3    H160589   1.874   0.554   4.729  0.0663  0.0413 -0.2221
13058TIP3    H260590   1.788   0.662   4.791 -0.5440 -0.7665  0.3608
13059TIP3   OH260591   1.072   3.098   3.070  0.0714  0.2750 -0.5527
13059TIP3    H160592   1.086   3.149   2.990  1.1108  1.0287  0.0850
13059TIP3    H260593   1.122   3.145   3.137 -0.3685 -0.6313  0.4279
13060TIP3   OH260594   6.604   6.397  12.748  0.3882  0.3273 -0.6978
13060TIP3    H160595   6.603   6.315  12.796  1.9698  0.8951  0.3680
13060TIP3    H260596   6.610   6.371  12.656 -0.7743 -0.7432 -0.4946
13061TIP3   OH260597   1.968   2.907  14.078 -0.3861 -0.2803  0.4233
13061TIP3    H160598   1.887   2.895  14.127 -0.8630 -0.3900 -0.3663
13061TIP3    H260599   1.941   2.900  13.986  0.5328 -0.4117  0.1548
13062TIP3   OH260600   5.319   3.089  16.858  0.3436  0.1628 -0.2802
13062TIP3    H160601   5.353   3.128  16.778 -1.7107  0.4542 -1.0681
13062TIP3    H260602   5.346   2.997  16.854  0.1974  0.1610 -1.3424
13063TIP3   OH260603   2.901   4.050  12.624  0.4834 -0.6917 -0.0531
13063TIP3    H160604   2.813   4.059  12.660 -0.1060 -0.5400 -1.4742
13063TIP3    H260605   2.890   4.067  12.530  2.2563  0.8692 -0.0417
13064TIP3   OH260606   6.524   4.292  15.665  0.7007  0.1481 -0.2980
13064TIP3    H160607   6.576   4.216  15.690 -1.4697 -1.3797 -0.2020
13064TIP3    H260608   6.468   4.261  15.595 -0.9685  1.3560  0.4406
13065TIP3   OH260609   4.657   2.513  13.437 -0.3891 -0.1227  0.3919
13065TIP3    H160610   4.702   2.561  13.368 -0.3609  1.3079  1.3591
13065TIP3    H260611   4.623   2.434  13.394  3.9240 -1.8977 -0.2035
13066TIP3   OH260612   4.559   4.995   1.723  0.6236  0.8191 -0.4255
13066TIP3    H160613   4.464   5.003   1.731  0.7771  1.9486  0.5627
13066TIP3    H260614   4.574   4.975   1.631 -0.6612 -1.4283 -0.2177
13067TIP3   OH260615   3.564   3.076   0.504 -0.1062  0.2209  0.0444
13067TIP3    H160616   3.652   3.042   0.489  0.1213  1.7950 -2.8891
13067TIP3    H260617   3.578   3.161   0.545 -0.3509 -0.0427  0.6911
13068TIP3   OH260618   6.613   5.524   6.182 -0.3508  0.7045 -0.2380
13068TIP3    H160619   6.537   5.471   6.160 -0.1304  1.3566 -2.8653
13068TIP3    H260620   6.610   5.598   6.121  2.4458  0.6734 -0.5493
13069TIP3   OH260621   6.015   0.227   2.118  0.1273  0.4882  0.3421
13069TIP3    H160622   5.956   0.266   2.182  0.1658  0.2095  0.5507
13069TIP3    H260623   6.102   0.241   2.154  0.3093  2.1730 -0.6546
13070TIP3   OH260624   6.149   0.518   4.169  0.2749  0.2569 -0.4134
13070TIP3    H160625   6.081   0.540   4.104 -0.2059  1.7852  0.5360
13070TIP3    H260626   6.114   0.442   4.215 -0.3883  0.4635 -0.5549
13071TIP3   OH260627   2.329   3.727  16.715  0.1929  0.1505 -0.1325
13071TIP3    H160628   2.273   3.691  16.646 -1.0640  0.0787  0.8903
13071TIP3    H260629   2.369   3.805  16.676 -0.3568  0.0155 -0.9888
13072TIP3   OH260630   5.168   3.132   1.527  0.1271  0.2235  0.0282
13072TIP3    H160631   5.073   3.121   1.532 -0.1301  0.7023 -2.5145
13072TIP3    H260632   5.195   3.071   1.458  1.4805  0.9852 -0.1458
13073TIP3   OH260633   0.462   3.505   4.164  0.0925 -0.0065  0.3642
13073TIP3    H160634   0.506   3.577   4.209 -0.1549  1.1103 -1.0889
13073TIP3    H260635   0.433   3.446   4.234  1.4278  0.6440  1.5134
13074TIP3   OH260636   4.695   6.076  16.398  0.2123  0.6558  1.0561
13074TIP3    H160637   4.702   6.073  16.493  1.4090 -0.5453  0.9696
13074TIP3    H260638   4.773   6.030  16.367 -1.0556 -0.6224 -0.4627
13075TIP3   OH260639   4.141   0.537   2.576  0.2297 -0.4794 -0.3850
13075TIP3    H160640   4.231   0.569   2.570 -0.3713  0.9534 -2.8166
13075TIP3    H260641   4.088   0.615   2.586 -0.8688 -1.1732 -0.6076
13076TIP3   OH260642   0.484   6.712  15.190  0.0943 -0.6237  0.4151
13076TIP3    H160643   0.568   6.720  15.234 -0.5376  0.1136  1.5342
13076TIP3    H260644   0.445   6.800  15.197 -1.3422 -1.2937  1.1175
13077TIP3   OH260645   1.935   0.875  16.040 -0.2953 -0.0982 -0.4806
13077TIP3    H160646   2.006   0.851  16.099 -0.8446 -0.4318  0.0485
13077TIP3    H260647   1.859   0.825  16.070  0.0252 -2.3807 -3.0317
13078TIP3   OH260648   5.813   6.000  12.246 -0.0852  0.5288  0.2826
13078TIP3    H160649   5.800   6.010  12.152  2.3149 -0.8245 -0.2774
13078TIP3    H260650   5.797   6.087  12.282  1.5869  1.7677 -1.7585
13079TIP3   OH260651   2.352   1.736  15.231  0.1965 -0.5246  0.2590
13079TIP3    H160652   2.391   1.818  15.200  1.4749 -1.2028  0.0118
13079TIP3    H260653   2.323   1.691  15.151  0.1871 -0.6564  0.3361
13080TIP3   OH260654   4.892   0.972  11.883  0.3358 -0.3959 -0.1148
13080TIP3    H160655   4.799   0.972  11.905  1.0349 -1.6422  3.4976
13080TIP3    H260656   4.923   1.059  11.907  0.0088  0.3384 -2.1869
13081TIP3   OH260657   6.091   1.127   2.012  0.3125 -0.0547  0.9579
13081TIP3    H160658   6.063   1.218   2.000  0.8772 -0.0444 -0.5364
13081TIP3    H260659   6.071   1.107   2.103 -2.9338  0.4912  0.4793
13082TIP3   OH260660   5.454   0.618   6.365  0.2593 -0.5817 -0.1518
13082TIP3    H160661   5.456   0.688   6.299 -1.3792  0.2383  0.6047
13082TIP3    H260662   5.366   0.623   6.402  0.8364 -1.6442  1.4472
13083TIP3   OH260663   3.956   6.611   3.556  0.0015 -0.2956  0.1206
13083TIP3    H160664   4.028   6.624   3.618 -0.0245  0.1180  0.0671
13083TIP3    H260665   3.935   6.518   3.562 -0.8391 -0.0299  1.6415
13084TIP3   OH260666   2.962   4.629  13.639 -0.9456  0.0248  0.2664
13084TIP3    H160667   2.882   4.678  13.623 -0.3567  0.3425 -2.1251
13084TIP3    H260668   2.948   4.544  13.597  0.1465  0.2972 -0.7048
13085TIP3   OH260669   1.877   3.845  13.171 -0.2075  0.2731  0.5655
13085TIP3    H160670   1.897   3.795  13.091  0.4894  0.8146  0.3865
13085TIP3    H260671   1.850   3.779  13.234 -1.3208 -0.1106 -0.2789
13086TIP3   OH260672   0.441   4.507   2.872  0.1700 -0.2808  0.1905
13086TIP3    H160673   0.523   4.544   2.838 -0.0644  0.0248 -0.0533
13086TIP3    H260674   0.373   4.552   2.823 -0.1782  0.1766  1.0721
13087TIP3   OH260675   3.418   3.157  11.819 -0.1913 -0.1936  0.2723
13087TIP3    H160676   3.340   3.170  11.766 -1.0964  1.6242  1.9216
13087TIP3    H260677   3.386   3.113  11.898  0.0356  2.1060  1.7474
13088TIP3   OH260678   1.232   6.361  13.747  0.1231  0.1064  0.5414
13088TIP3    H160679   1.288   6.414  13.691 -0.5778  1.2520  0.8871
13088TIP3    H260680   1.255   6.387  13.836  0.9976 -1.4582  0.8011
13089TIP3   OH260681   4.340   4.031   0.620 -0.1408 -0.6307  0.7266
13089TIP3    H160682   4.291   4.028   0.702  0.3835 -1.3760  1.0225
13089TIP3    H260683   4.431   4.040   0.648  0.1753 -2.2395  0.2627
13090TIP3   OH260684   2.457   1.717   4.275  0.1619  0.5458 -0.0614
13090TIP3    H160685   2.455   1.621   4.281 -2.7191  0.4639 -0.6828
13090TIP3    H260686   2.466   1.735   4.181 -2.9109  0.6957 -0.4393
13091TIP3   OH260687   6.720   0.918   5.241  0.6569 -0.9883  0.5366
13091TIP3    H160688   6.643   0.861   5.233  0.0568 -0.3165  1.2956
13091TIP3    H260689   6.685   1.000   5.275  1.7570 -0.7571  1.1580
13092TIP3   OH260690   1.351   0.146  15.937 -0.1734 -0.0507 -0.4225
13092TIP3    H160691   1.441   0.116  15.945  0.0122  0.3419 -0.9538
13092TIP3    H260692   1.308   0.080  15.883 -0.3955 -0.6192  0.4435
13093TIP3   OH260693   5.751   6.232   2.536 -0.3715  0.1704 -0.2004
13093TIP3    H160694   5.822   6.295   2.549 -0.3465 -0.0139  0.5839
13093TIP3    H260695   5.690   6.250   2.607  0.7436 -2.2287  1.5128
13094TIP3   OH260696   2.289   0.456   1.498 -0.8506 -0.4216 -0.1411
13094TIP3    H160697   2.237   0.399   1.555 -2.1430  0.7515 -0.0888
13094TIP3    H260698   2.256   0.544   1.517  1.4936  0.4432  0.2121
13095TIP3   OH260699   6.237   1.002  13.655  0.6673 -0.3593 -0.2589
13095TIP3    H160700   6.269   1.048  13.732  0.3139  0.2144 -0.4503
13095TIP3    H260701   6.190   1.068  13.605 -0.2817 -1.0396 -0.2936
13096TIP3   OH260702   2.982   2.109  17.432 -0.4810 -0.3638 -0.3895
13096TIP3    H160703   3.026   2.089  17.350 -1.4016  0.3719 -1.0799
13096TIP3    H260704   2.898   2.148  17.406 -0.0258  1.6052  0.8598
13097TIP3   OH260705   0.093   1.571   2.039  0.3768  0.0443  0.0040
13097TIP3    H160706   0.005   1.537   2.026 -0.2362  0.9645  1.4469
13097TIP3    H260707   0.119   1.605   1.954 -1.0194  0.5016 -0.2672
13098TIP3   OH260708   6.393   2.067  15.284 -0.0432 -0.0026  0.0903
13098TIP3    H160709   6.348   2.151  15.275  1.2866  0.6805 -0.5843
13098TIP3    H260710   6.455   2.080  15.356  0.0173 -0.4746  0.1293
13099TIP3   OH260711   5.798   4.100   0.159  0.4486  0.2070  0.3271
13099TIP3    H160712   5.723   4.064   0.206  1.5101 -0.5800  1.4630
13099TIP3    H260713   5.870   4.039   0.176  0.9095 -0.1410 -2.3345
13100TIP3   OH260714   5.008   0.545  12.407 -0.1227  0.4856  0.0036
13100TIP3    H160715   5.080   0.605  12.385 -0.5093  1.0249  0.2008
13100TIP3    H260716   4.945   0.557  12.336  0.1822 -0.3343 -0.4224
13101TIP3   OH260717   1.384   2.617   3.805 -0.2706  0.1577  0.2360
13101TIP3    H160718   1.348   2.667   3.732 -0.5304 -0.8777 -0.3747
13101TIP3    H260719   1.312   2.560   3.833  0.2127 -0.3599  0.4521
13102TIP3   OH260720   5.299   4.272   1.949 -0.1891 -0.2146  0.4530
13102TIP3    H160721   5.309   4.217   2.026  2.0741  0.5428  0.7556
13102TIP3    H260722   5.380   4.260   1.899 -1.3838 -0.2987 -1.5738
13103TIP3   OH260723   6.148   2.371   2.598  0.1802 -0.0676  0.7523
13103TIP3    H160724   6.221   2.324   2.637 -1.2389 -2.6407  0.5392
13103TIP3    H260725   6.187   2.424   2.528  2.0131  0.0962  1.8520
13104TIP3   OH260726   1.775   4.900  16.681  0.3766  0.3530  0.6164
13104TIP3    H160727   1.776   4.804  16.686  2.7456  0.3613  2.2595
13104TIP3    H260728   1.820   4.921  16.599 -1.5512  0.1073 -0.5484
13105TIP3   OH260729   5.990   4.294  11.267  0.2790  0.1425 -0.5849
13105TIP3    H160730   6.079   4.330  11.261 -0.0989  1.0664 -0.9354
13105TIP3    H260731   5.987   4.248  11.351  1.3407 -0.6231 -0.9529
13106TIP3   OH260732   4.036   5.762  11.166  0.0316  0.1545  0.0185
13106TIP3    H160733   4.006   5.681  11.123  0.2106  0.2355 -0.2573
13106TIP3    H260734   3.961   5.790  11.218 -0.2481  0.1462 -0.3714
13107TIP3   OH260735   2.686   1.612   1.212  0.5186 -1.0870  0.0962
13107TIP3    H160736   2.617   1.640   1.152  0.1244  0.5673  1.2400
13107TIP3    H260737   2.643   1.551   1.272 -0.9239  2.1901  2.7110
13108TIP3   OH260738   2.720   0.961  13.082 -0.1228 -0.2468  0.3773
13108TIP3    H160739   2.722   1.015  13.161  0.6002 -0.6917  0.6725
13108TIP3    H260740   2.747   1.020  13.012 -2.4209  0.6136  0.1513
13109TIP3   OH260741   4.056   1.816   0.201  0.7714  0.5618  0.2929
13109TIP3    H160742   4.021   1.729   0.222  0.0357  0.9478  0.6841
13109TIP3    H260743   4.145   1.815   0.237  0.7824 -0.0338  0.2719
13110TIP3   OH260744   6.442   4.471   5.435  0.0627 -0.3865  0.3168
13110TIP3    H160745   6.516   4.429   5.391 -0.1737  0.3906 -0.8894
13110TIP3    H260746   6.435   4.556   5.391 -1.7324 -0.5687  0.2155
13111TIP3   OH260747   3.716   4.522  16.046 -0.2028 -0.7882  0.3946
13111TIP3    H160748   3.762   4.501  15.965 -1.5264 -0.8162 -0.3838
13111TIP3    H260749   3.768   4.591  16.086  0.0161 -0.1700 -0.9152
13112TIP3   OH260750   6.728   2.112   5.741 -0.1544 -0.2403  0.1716
13112TIP3    H160751   6.638   2.145   5.737  0.4017  1.2376 -2.5988
13112TIP3    H260752   6.719   2.022   5.773 -2.7107 -0.4047 -0.7383
13113TIP3   OH260753   4.614   0.619   0.575 -0.5986 -0.2424  0.4806
13113TIP3    H160754   4.672   0.544   0.569 -1.4366 -0.8613 -0.2029
13113TIP3    H260755   4.669   0.694   0.550  0.7211 -0.3091  2.8871
13114TIP3   OH260756   3.319   5.837  14.515 -0.6510 -0.0886  0.1815
13114TIP3    H160757   3.398   5.886  14.496 -1.0769  1.2965  1.7272
13114TIP3    H260758   3.247   5.896  14.493 -1.2376 -0.8905 -0.1207
13115TIP3   OH260759   6.610   0.691   2.466 -0.8165  0.1265  0.1702
13115TIP3    H160760   6.592   0.754   2.396 -0.0211 -0.5590 -0.6791
13115TIP3    H260761   6.625   0.745   2.544 -1.4120  0.9164 -0.2524
13116TIP3   OH260762   0.854   1.065  11.336  0.1407 -0.0580  0.9109
13116TIP3    H160763   0.848   1.076  11.241  1.6940  3.8282  1.0797
13116TIP3    H260764   0.945   1.043  11.352 -0.1886 -1.0460  1.5269
13117TIP3   OH260765   3.806   2.111  14.014 -0.4482  0.1534  0.7158
13117TIP3    H160766   3.745   2.065  13.955 -0.8544  0.9567  0.4945
13117TIP3    H260767   3.773   2.201  14.016 -0.2646  0.2047  1.9464
13118TIP3   OH260768   2.418   1.137   0.330 -0.3706  0.8466  0.1691
13118TIP3    H160769   2.416   1.182   0.415  1.2860 -0.6327  1.0633
13118TIP3    H260770   2.511   1.128   0.310 -0.4440 -3.3885  0.8428
13119TIP3   OH260771   2.868   5.209   5.636  0.3369 -0.4742 -0.3610
13119TIP3    H160772   2.930   5.202   5.564 -1.3115 -1.9984 -1.7159
13119TIP3    H260773   2.890   5.136   5.694  0.0074 -0.8615 -0.7129
13120TIP3   OH260774   0.552   3.369   1.062 -0.4556 -0.3007 -0.4151
13120TIP3    H160775   0.620   3.331   1.007  0.3278 -0.5639  0.6982
13120TIP3    H260776   0.574   3.462   1.068  0.6641 -0.6376  1.1085
13121TIP3   OH260777   5.742   4.373  15.364  0.1639 -0.3166 -0.0478
13121TIP3    H160778   5.647   4.360  15.357 -0.3053  1.9609  1.0988
13121TIP3    H260779   5.768   4.408  15.279 -0.6602  2.0850  0.6222
13122TIP3   OH260780   1.197   3.025  13.325  0.1491  0.2171  0.0315
13122TIP3    H160781   1.197   3.051  13.233 -1.7955 -2.6542 -0.9271
13122TIP3    H260782   1.288   3.000  13.344  0.5028  0.5233 -1.2059
13123TIP3   OH260783   1.247   4.181  15.419 -0.1190 -0.3594 -0.0855
13123TIP3    H160784   1.208   4.246  15.477  0.6044  1.1774 -1.2661
13123TIP3    H260785   1.177   4.116  15.406 -1.3828  0.9363 -0.0374
13124TIP3   OH260786   4.343   3.271  12.753  0.0932 -0.0071 -0.4795
13124TIP3    H160787   4.411   3.252  12.688 -1.7588 -0.5189 -2.3669
13124TIP3    H260788   4.367   3.217  12.828  1.8239 -0.0822 -1.0380
13125TIP3   OH260789   0.776   6.079  13.850  0.0163  0.0515 -0.0483
13125TIP3    H160790   0.729   6.014  13.798  1.2438 -1.9626  1.2133
13125TIP3    H260791   0.710   6.112  13.912 -0.3139 -1.0547  0.2098
13126TIP3   OH260792   5.759   4.920   5.294 -0.9098 -0.4924 -0.2226
13126TIP3    H160793   5.841   4.876   5.271 -0.5230  0.5477 -0.9562
13126TIP3    H260794   5.779   4.968   5.375 -0.5602  0.3012 -0.7588
13127TIP3   OH260795   3.058   4.998   5.188 -0.3180  0.3639  0.0255
13127TIP3    H160796   3.144   5.041   5.189 -0.7629  1.2797  0.4564
13127TIP3    H260797   3.053   4.956   5.102  0.4978  0.4371 -0.0613
13128TIP3   OH260798   0.943   2.302   2.393 -0.1771 -0.3029 -0.1248
13128TIP3    H160799   0.926   2.323   2.301 -1.2874 -0.1104  0.1097
13128TIP3    H260800   0.972   2.385   2.431 -0.1675 -0.2752 -0.1914
13129TIP3   OH260801   6.295   2.355  16.952 -0.4526 -0.1559 -0.0781
13129TIP3    H160802   6.310   2.450  16.953  2.3589 -0.4957  0.3522
13129TIP3    H260803   6.379   2.319  16.924 -1.1846 -2.5739  0.6524
13130TIP3   OH260804   3.976   3.954  15.249 -0.1895 -0.2311 -0.4790
13130TIP3    H160805   4.059   3.971  15.295 -1.0048  2.6142  0.1283
13130TIP3    H260806   3.939   3.878  15.295  1.0542 -0.1693  0.7109
13131TIP3   OH260807   4.647   6.419   4.482 -0.0743 -0.0395  0.1526
13131TIP3    H160808   4.676   6.403   4.393 -1.0023  1.7767 -0.5236
13131TIP3    H260809   4.641   6.332   4.521 -0.2849 -0.9332 -1.7636
13132TIP3   OH260810   2.222   3.010   0.827  0.0525 -0.0851 -0.6362
13132TIP3    H160811   2.207   2.916   0.839  3.0423 -0.2504  4.0241
13132TIP3    H260812   2.307   3.015   0.784  0.2426  0.4753 -0.2004
13133TIP3   OH260813   6.032   3.153  16.396  0.1522  0.2095 -0.0241
13133TIP3    H160814   6.056   3.092  16.325  0.0286  1.2374 -0.9746
13133TIP3    H260815   6.100   3.140  16.462 -0.0134 -1.1425 -0.0948
13134TIP3   OH260816   6.215   3.681   1.735 -0.3411  0.5719  0.4173
13134TIP3    H160817   6.197   3.712   1.646 -0.2301 -0.5065  0.0020
13134TIP3    H260818   6.289   3.621   1.724 -0.2740  0.4984  1.2544
13135TIP3   OH260819   4.494   0.510  12.160 -0.8280  0.2097  0.1557
13135TIP3    H160820   4.496   0.422  12.121 -1.1183  0.3702 -0.2365
13135TIP3    H260821   4.486   0.569  12.084  0.3001  0.6323  0.3508
13136TIP3   OH260822   1.903   0.335   6.315 -0.4152 -0.3335 -0.5829
13136TIP3    H160823   1.946   0.377   6.240 -0.4281  0.5370 -0.1245
13136TIP3    H260824   1.833   0.397   6.339  0.0279 -0.2655  0.5677
13137TIP3   OH260825   3.136   2.357  15.981  0.0721 -0.5067 -0.0732
13137TIP3    H160826   3.057   2.346  16.035  1.5670 -1.2886  2.0579
13137TIP3    H260827   3.110   2.323  15.895 -2.8573  2.1428 -0.4296
13138TIP3   OH260828   5.211   0.605   4.131  0.0422 -0.5035 -0.0756
13138TIP3    H160829   5.176   0.677   4.184 -1.7912 -0.0264 -1.8192
13138TIP3    H260830   5.258   0.550   4.194  1.3141  2.0270  1.3696
13139TIP3   OH260831   2.149   5.252  12.113 -0.2864 -0.1492 -0.3172
13139TIP3    H160832   2.094   5.322  12.077 -0.8555 -0.4836 -0.1159
13139TIP3    H260833   2.120   5.173  12.068 -1.4702 -0.6883  1.2861
13140TIP3   OH260834   4.050   4.525  15.992  0.0995 -1.0212  0.0365
13140TIP3    H160835   4.069   4.619  15.981  4.8945 -1.1425  3.8980
13140TIP3    H260836   4.091   4.484  15.915 -1.8985 -0.1348 -1.6074
13141TIP3   OH260837   1.280   4.372   1.673 -0.1381  0.1688 -0.0839
13141TIP3    H160838   1.333   4.446   1.702 -1.9937  1.7112 -0.4024
13141TIP3    H260839   1.210   4.367   1.738  1.4295 -3.2172  1.6068
13142TIP3   OH260840   1.427   1.720   0.811 -0.5496 -0.2025  0.5976
13142TIP3    H160841   1.484   1.795   0.830 -0.2937 -0.0350 -0.7759
13142TIP3    H260842   1.480   1.643   0.832 -0.3634 -0.0188  0.8019
13143TIP3   OH260843   2.862   5.898   5.143  0.1596 -0.2410 -0.2227
13143TIP3    H160844   2.882   5.809   5.114 -0.0939 -0.1263 -0.7420
13143TIP3    H260845   2.785   5.888   5.199  1.6215 -0.6999  1.8579
13144TIP3   OH260846   1.208   1.176  15.926  0.7201 -0.0870 -0.6103
13144TIP3    H160847   1.150   1.251  15.939  0.4825 -0.6840  2.6561
13144TIP3    H260848   1.150   1.100  15.920  1.0234 -0.4720  0.7852
13145TIP3   OH260849   2.888   3.720   3.424 -0.5178  0.0207  0.2641
13145TIP3    H160850   2.887   3.632   3.386 -0.4378  0.0173  0.2694
13145TIP3    H260851   2.978   3.732   3.455 -0.3901  0.3019 -0.1996
13146TIP3   OH260852   6.701   6.003   4.781  0.2952 -0.0823 -0.1167
13146TIP3    H160853   6.654   5.998   4.698 -0.9067 -0.0429  0.5418
13146TIP3    H260854   6.739   6.091   4.781  0.7755 -0.2750 -0.8498
13147TIP3   OH260855   2.369   5.240   2.447 -0.4124 -0.0489  0.1133
13147TIP3    H160856   2.319   5.301   2.392  0.2234 -0.0225 -0.4493
13147TIP3    H260857   2.412   5.295   2.512  0.3399  0.1364 -0.5320
13148TIP3   OH260858   0.262   1.998  13.358  0.0023  0.0960  0.2745
13148TIP3    H160859   0.316   2.001  13.437  0.5438 -0.9672 -0.0398
13148TIP3    H260860   0.325   2.000  13.286 -0.3836 -0.7490 -0.1015
13149TIP3   OH260861   1.395   1.014   4.799 -0.3755 -0.5308 -0.1250
13149TIP3    H160862   1.318   1.070   4.808 -0.5976 -0.8317 -0.1454
13149TIP3    H260863   1.434   1.013   4.886 -0.7767 -0.9278  0.0523
13150TIP3   OH260864   2.826   2.872  13.729  0.1113  0.1230 -0.0789
13150TIP3    H160865   2.773   2.796  13.704 -0.1346  0.0813  0.5386
13150TIP3    H260866   2.818   2.876  13.824  0.7389  0.4749 -0.0353
13151TIP3   OH260867   2.866   4.963   2.666 -0.1839 -0.2298 -0.4051
13151TIP3    H160868   2.930   4.912   2.618 -0.9119  1.2131 -3.0813
13151TIP3    H260869   2.907   5.048   2.678 -1.3791  0.6080 -1.8628
13152TIP3   OH260870   2.719   0.185  16.642 -0.2819  0.5413  0.0494
13152TIP3    H160871   2.667   0.205  16.563 -0.7889  0.1213  0.2717
13152TIP3    H260872   2.725   0.089  16.642  1.4470  0.6190 -0.5731
13153TIP3   OH260873   4.221   5.932   3.582 -0.0356  0.4112  0.4513
13153TIP3    H160874   4.133   5.957   3.611 -0.2460 -0.5319  0.6377
13153TIP3    H260875   4.242   5.997   3.514 -0.9785  0.4930  0.2169
13154TIP3   OH260876   5.090   4.663  17.404 -0.4163 -0.2652  0.6632
13154TIP3    H160877   5.042   4.743  17.423 -1.4052 -0.5032 -0.7341
13154TIP3    H260878   5.092   4.616  17.488 -0.8361  0.6754  1.2138
13155TIP3   OH260879   2.970   1.311  12.132  0.3987 -0.2013  0.0014
13155TIP3    H160880   2.887   1.312  12.086 -0.7820 -1.6373  1.9335
13155TIP3    H260881   2.995   1.219  12.135  1.6673  0.1226  0.1516
13156TIP3   OH260882   2.391   1.351   0.539 -0.2384  0.3133 -0.0539
13156TIP3    H160883   2.366   1.361   0.631 -0.9323 -1.7319  0.0301
13156TIP3    H260884   2.481   1.383   0.535 -0.1141  0.2000  1.3927
13157TIP3   OH260885   3.070   1.558  11.436  0.5649  0.5154 -0.3056
13157TIP3    H160886   2.979   1.581  11.419  0.6081  0.6360 -0.3803
13157TIP3    H260887   3.093   1.497  11.366  0.6001  0.6401 -0.4039
13158TIP3   OH260888   2.374   0.208  15.187 -0.6207 -0.5416  0.0605
13158TIP3    H160889   2.402   0.282  15.134 -1.1359 -0.2679  0.1636
13158TIP3    H260890   2.387   0.236  15.278 -3.2265  0.4561  0.2065
13159TIP3   OH260891   1.072   3.602   2.938  0.2184  0.4053  0.1571
13159TIP3    H160892   0.978   3.616   2.932  0.2800  1.3750  1.1502
13159TIP3    H260893   1.110   3.669   2.880  0.3237  0.6318  0.4855
13160TIP3   OH260894   1.585   6.198   2.969 -0.1895 -0.2847 -0.1487
13160TIP3    H160895   1.531   6.148   2.908  0.9862 -0.8249 -0.7854
13160TIP3    H260896   1.578   6.288   2.938 -2.2734  0.0069  0.9679
13161TIP3   OH260897   0.711   3.318   4.106 -0.1165  0.3971 -0.2765
13161TIP3    H160898   0.763   3.282   4.035 -1.1775  0.6433 -1.2089
13161TIP3    H260899   0.720   3.413   4.097  0.7108  0.4162  0.6678
13162TIP3   OH260900   2.400   2.600  17.354  0.0721 -0.3618 -0.1172
13162TIP3    H160901   2.423   2.676  17.408 -0.0573  0.8229 -1.6297
13162TIP3    H260902   2.354   2.541  17.413  0.7734  0.4298  1.2781
13163TIP3   OH260903   4.630   1.507  14.334 -0.5143 -0.2040  0.1283
13163TIP3    H160904   4.590   1.540  14.254 -1.5038  2.3842  1.5652
13163TIP3    H260905   4.556   1.471  14.384 -0.1876 -0.2582  0.5799
13164TIP3   OH260906   6.640   3.645   3.086 -0.2825 -0.3220  0.8738
13164TIP3    H160907   6.608   3.727   3.049 -0.7251 -0.9707 -0.2296
13164TIP3    H260908   6.721   3.627   3.037 -0.6577 -0.9824  0.4849
13165TIP3   OH260909   1.073   2.900   1.199  0.0967  0.0889 -0.1081
13165TIP3    H160910   0.986   2.893   1.158 -0.6488  2.0664  0.9717
13165TIP3    H260911   1.071   2.837   1.271  1.1225 -2.8297 -2.4424
13166TIP3   OH260912   5.305   1.998  14.873  0.4876  0.7992 -0.1263
13166TIP3    H160913   5.303   1.903  14.861 -1.3908  0.6796  0.8465
13166TIP3    H260914   5.239   2.031  14.812 -1.6916  1.0779  2.2421
13167TIP3   OH260915   3.831   6.378  13.275 -0.0521 -0.1796 -0.1518
13167TIP3    H160916   3.803   6.297  13.232 -0.4227  0.1825 -0.6098
13167TIP3    H260917   3.793   6.447  13.221 -0.8727  0.2910  1.0041
13168TIP3   OH260918   1.236   0.769  17.239 -0.6927 -0.4400  0.0350
13168TIP3    H160919   1.283   0.815  17.170 -0.6242  1.0694  1.0522
13168TIP3    H260920   1.304   0.738  17.299 -0.8592 -0.0549  0.4289
13169TIP3   OH260921   6.571   0.941   5.579  0.4527 -0.1977 -0.0864
13169TIP3    H160922   6.585   0.978   5.492  1.7010  1.7722  0.8942
13169TIP3    H260923   6.517   1.006   5.624 -1.5894 -1.9457  0.1746
13170TIP3   OH260924   3.832   2.189  15.503  0.7474  0.2434 -0.1033
13170TIP3    H160925   3.893   2.130  15.460 -1.0523 -1.0847 -0.9091
13170TIP3    H260926   3.834   2.162  15.595 -1.1205 -2.1586 -0.6694
13171TIP3   OH260927   2.959   1.734  10.586  0.4180  0.0523 -0.0307
13171TIP3    H160928   2.900   1.792  10.538  0.0654  0.3558  0.7505
13171TIP3    H260929   3.043   1.780  10.587  0.6011 -0.2534 -0.9077
13172TIP3   OH260930   5.185   1.551   2.566 -0.4242  0.0161 -0.2717
13172TIP3    H160931   5.110   1.551   2.625  1.3878  0.9358  2.2303
13172TIP3    H260932   5.199   1.643   2.544  0.1763 -0.0971 -0.3787
13173TIP3   OH260933   2.479   1.560  15.671 -0.0726 -0.3544 -0.0506
13173TIP3    H160934   2.439   1.645  15.650 -0.4087 -0.1291  1.3833
13173TIP3    H260935   2.404   1.503  15.692  0.1238 -1.1388 -1.4217
13174TIP3   OH260936   1.472   6.221  15.009  0.1855  0.3355 -0.3883
13174TIP3    H160937   1.383   6.201  15.040  1.3721 -2.0677  1.8284
13174TIP3    H260938   1.518   6.252  15.087  2.2696 -2.1555 -0.5043
13175TIP3   OH260939   4.454   5.662  10.880 -0.1732  0.1067  0.5477
13175TIP3    H160940   4.528   5.631  10.827 -1.6241 -1.2875 -0.7968
13175TIP3    H260941   4.410   5.582  10.908 -1.3205  0.9077  1.1098
13176TIP3   OH260942   6.135   4.262  11.932  0.3968 -0.1329  0.4249
13176TIP3    H160943   6.216   4.230  11.892 -0.3432  1.2479 -2.4315
13176TIP3    H260944   6.079   4.185  11.939  1.7516 -1.0493  2.1846
13177TIP3   OH260945   3.039   6.389  13.979 -0.4985 -0.9264 -0.2349
13177TIP3    H160946   3.006   6.299  13.981  1.0468 -1.5930 -2.1991
13177TIP3    H260947   2.965   6.441  13.947 -1.0848 -1.6180 -0.0504
13178TIP3   OH260948   3.942   6.008  14.159 -0.4115  0.2277  0.2765
13178TIP3    H160949   3.983   5.986  14.075 -1.7461 -1.6600  0.0587
13178TIP3    H260950   3.920   6.101  14.151  1.5202  0.6581 -0.5505
13179TIP3   OH260951   1.882   1.321   0.270  0.0142  0.7950  0.9130
13179TIP3    H160952   1.936   1.399   0.258 -1.9124  2.1272  0.4431
13179TIP3    H260953   1.795   1.347   0.240 -0.5242 -1.8026 -0.0373
13180TIP3   OH260954   5.103   6.584  15.925  0.2075  0.1299 -0.1900
13180TIP3    H160955   5.129   6.659  15.979 -0.2690 -0.8114  1.4183
13180TIP3    H260956   5.136   6.508  15.973  0.5351 -0.7165 -1.6998
13181TIP3   OH260957   0.814   5.675   4.741  0.4763 -0.0278 -0.2560
13181TIP3    H160958   0.736   5.654   4.690  1.0673 -0.1350 -1.1365
13181TIP3    H260959   0.828   5.768   4.725  0.7768 -0.1059 -0.4478
13182TIP3   OH260960   3.289   0.970   4.047 -0.3236 -0.6178 -0.8987
13182TIP3    H160961   3.256   0.972   3.958  0.7792 -2.2391 -1.3925
13182TIP3    H260962   3.289   1.062   4.075 -1.3595 -0.1680 -2.2944
13183TIP3   OH260963   2.379   0.613   5.663  0.5299  0.3702 -0.2732
13183TIP3    H160964   2.411   0.697   5.694  0.5767  0.1842  0.1956
13183TIP3    H260965   2.421   0.549   5.720 -1.4858  0.1631  1.0762
13184TIP3   OH260966   5.286   0.658  17.421 -0.2443  0.0770  0.0744
13184TIP3    H160967   5.285   0.580  17.366 -2.0950  1.0115 -1.3548
13184TIP3    H260968   5.195   0.667  17.451 -0.4464  2.4127 -0.9763
13185TIP3   OH260969   6.675   6.233   5.687  0.1816 -0.6035 -0.0950
13185TIP3    H160970   6.758   6.218   5.733 -0.7288 -1.6195  1.3180
13185TIP3    H260971   6.675   6.327   5.668  1.1044 -0.3531  1.0082
13186TIP3   OH260972   5.330   4.840   1.434 -0.2117 -0.6493  0.3624
13186TIP3    H160973   5.378   4.886   1.366 -1.4688 -1.5226 -1.1986
13186TIP3    H260974   5.300   4.908   1.493 -1.0882  0.4683 -1.2861
13187TIP3   OH260975   3.484   4.763   5.661  0.6193 -0.6675 -0.1676
13187TIP3    H160976   3.478   4.845   5.610 -0.3001  0.4690  1.6635
13187TIP3    H260977   3.408   4.712   5.632 -0.3336  0.2961  0.5424
13188TIP3   OH260978   5.993   4.905   3.236  0.2935  0.5662 -0.0593
13188TIP3    H160979   5.940   4.980   3.209  0.6293  1.7336  2.2363
13188TIP3    H260980   5.929   4.841   3.267  0.0836  0.7177 -0.1764
13189TIP3   OH260981   6.586   1.034  12.548  0.5922  0.1646 -0.2416
13189TIP3    H160982   6.556   1.031  12.457 -1.2909  0.3421  0.3199
13189TIP3    H260983   6.637   0.954  12.560  0.6051 -0.0032 -1.3680
13190TIP3   OH260984   6.543   0.632   1.620  0.2731 -0.3472  0.3550
13190TIP3    H160985   6.466   0.576   1.612 -0.7432  0.8598  1.2263
13190TIP3    H260986   6.596   0.612   1.542 -1.5902 -0.1916 -1.0058
13191TIP3   OH260987   0.332   6.420   2.492  0.0639 -0.1596  0.5253
13191TIP3    H160988   0.288   6.335   2.495  0.8629 -0.5567  1.4564
13191TIP3    H260989   0.302   6.465   2.571  0.5512 -0.0414  0.6441
13192TIP3   OH260990   3.222   6.282  15.937  0.2141 -0.0454  0.8043
13192TIP3    H160991   3.312   6.307  15.957  0.7956 -2.8033  2.1641
13192TIP3    H260992   3.208   6.311  15.847  2.5428  0.2846  0.4866
13193TIP3   OH260993   3.234   1.771  15.457 -0.1514 -0.5293 -0.3399
13193TIP3    H160994   3.262   1.835  15.523 -0.2764 -0.3453 -0.4635
13193TIP3    H260995   3.139   1.767  15.468 -0.4114  0.8504 -1.7080
13194TIP3   OH260996   6.083   5.118   3.373  0.4205 -0.4452 -0.5145
13194TIP3    H160997   6.067   5.025   3.356  0.8439 -0.3896 -1.2527
13194TIP3    H260998   6.000   5.161   3.349  0.5077 -0.5425 -1.0043
13195TIP3   OH260999   5.665   5.607  16.691  0.1973 -0.7046  0.0901
13195TIP3    H161000   5.576   5.573  16.702  0.3154 -0.7034  1.0992
13195TIP3    H261001   5.705   5.549  16.626 -0.0993 -1.5695  0.6596
13196TIP3   OH261002   1.988   1.044  15.546 -0.6347  0.2381 -0.2347
13196TIP3    H161003   1.973   1.085  15.631  0.3705 -0.3949  0.2680
13196TIP3    H261004   1.908   0.997  15.527  0.3613 -2.7107  2.1615
13197TIP3   OH261005   6.138   6.171  13.954  0.2517  0.5781 -0.4983
13197TIP3    H161006   6.178   6.123  14.027  0.5593 -0.8982 -1.5703
13197TIP3    H261007   6.052   6.130  13.943  0.1079  0.9548 -0.8037
13198TIP3   OH261008   5.326   4.724  15.799  0.0237  0.0381  0.2747
13198TIP3    H161009   5.307   4.632  15.776  2.4382 -0.5876  0.5715
13198TIP3    H261010   5.246   4.754  15.843 -1.3577 -1.4531 -1.0538
13199TIP3   OH261011   5.764   6.127   0.093  0.0820 -0.5021  0.7214
13199TIP3    H161012   5.776   6.214   0.054 -1.5366 -0.3953  0.3935
13199TIP3    H261013   5.853   6.098   0.114  0.9206 -0.0498 -1.9123
13200TIP3   OH261014   3.917   0.556   1.280  0.4501  0.3547  0.3594
13200TIP3    H161015   3.943   0.464   1.270 -0.8171 -0.2410  1.9176
13200TIP3    H261016   3.822   0.555   1.268  0.1692  1.1150  2.1653
13201TIP3   OH261017   3.501   0.030   1.669 -0.0340 -0.1452  0.1610
13201TIP3    H161018   3.438  -0.027   1.713 -0.9209  2.0274  1.8689
13201TIP3    H261019   3.586   0.006   1.707  0.1282 -2.4048 -1.4393
13202TIP3   OH261020   0.832   4.535   4.807 -0.2554 -0.4693 -0.2340
13202TIP3    H161021   0.802   4.481   4.881  0.4503 -0.8022 -0.1761
13202TIP3    H261022   0.769   4.606   4.802 -0.3473 -0.4656  0.6714
13203TIP3   OH261023   3.349   6.668   6.254  0.3878  0.8702  0.0508
13203TIP3    H161024   3.308   6.604   6.312 -1.1718  0.0508 -1.8526
13203TIP3    H261025   3.443   6.654   6.266  0.1800  1.5472  3.1853
13204TIP3   OH261026   4.422   5.691   0.214 -0.2643  0.5988 -0.1524
13204TIP3    H161027   4.387   5.744   0.143 -2.1095  1.3809  1.2705
13204TIP3    H261028   4.356   5.624   0.230 -0.8104  1.5591  2.0101
13205TIP3   OH261029   2.737   5.341   5.082 -0.4884  0.2728 -0.3252
13205TIP3    H161030   2.744   5.340   5.178  0.8885 -1.0243 -0.3949
13205TIP3    H261031   2.710   5.252   5.060  0.4541  0.1872 -1.2026
13206TIP3   OH261032   4.645   0.692  16.193 -0.6662 -0.3430  0.2817
13206TIP3    H161033   4.721   0.748  16.209  0.5205 -2.5019  3.2215
13206TIP3    H261034   4.659   0.658  16.105  0.7328  0.8028  0.0069
13207TIP3   OH261035   5.176   0.093  13.814 -0.1083  0.4421  0.1234
13207TIP3    H161036   5.231   0.140  13.876  0.6255 -0.9201  0.5412
13207TIP3    H261037   5.201   0.001  13.824 -0.6314  0.0775 -1.5238
13208TIP3   OH261038   2.705   0.522  10.976  0.1187 -0.0381 -0.1654
13208TIP3    H161039   2.733   0.597  10.924 -1.7848  0.9739  0.1737
13208TIP3    H261040   2.620   0.498  10.940 -0.7911  0.0656  1.7976
13209TIP3   OH261041   5.496   0.448  12.456  0.1106 -0.5479 -0.6734
13209TIP3    H161042   5.432   0.378  12.443 -0.2275 -0.4756  0.4654
13209TIP3    H261043   5.536   0.461  12.370  0.2495 -2.2021 -0.8771
13210TIP3   OH261044   2.618   5.713   0.634 -0.6825  0.2942 -0.4211
13210TIP3    H161045   2.677   5.788   0.644 -1.3902  0.9184 -0.8072
13210TIP3    H261046   2.632   5.662   0.713  0.9478  0.0010 -0.8482
13211TIP3   OH261047   0.911   3.726  12.733  0.5639 -0.2527  0.1211
13211TIP3    H161048   0.852   3.652  12.720  0.4309 -0.4007  1.3926
13211TIP3    H261049   0.872   3.775  12.805  1.3190  0.3529  0.1314
13212TIP3   OH261050   2.477   5.677   1.338 -0.1933  0.2630 -0.2499
13212TIP3    H161051   2.540   5.646   1.273  0.2057  0.5227  0.0123
13212TIP3    H261052   2.409   5.609   1.338 -0.0628  0.1242 -0.7378
13213TIP3   OH261053   4.170   1.473  17.375 -0.4319  0.1998  0.5250
13213TIP3    H161054   4.091   1.506  17.331 -0.9205 -0.3401  0.9792
13213TIP3    H261055   4.235   1.466  17.305 -0.3786  1.8544  0.3566
13214TIP3   OH261056   3.241   5.477   6.184 -0.0571 -0.4895 -0.7720
13214TIP3    H161057   3.320   5.503   6.135 -0.0045  0.6339 -0.1396
13214TIP3    H261058   3.169   5.502   6.127  0.0242 -0.1500 -0.7305
13215TIP3   OH261059   2.605   1.058  15.771 -0.7090  0.0265 -0.1934
13215TIP3    H161060   2.557   1.035  15.691 -0.8804  3.5200 -1.2764
13215TIP3    H261061   2.628   0.974  15.810 -0.1948 -1.9136 -4.1286
13216TIP3   OH261062   6.707   4.351   5.986 -0.1009  0.3485  0.0534
13216TIP3    H161063   6.630   4.322   6.034  1.4385 -1.1999  1.7330
13216TIP3    H261064   6.718   4.286   5.917 -0.3148  0.6011 -0.2218
13217TIP3   OH261065   2.325   4.627  10.985 -0.2185  0.1537  0.1124
13217TIP3    H161066   2.367   4.544  10.961 -0.2163 -0.0031  0.6365
13217TIP3    H261067   2.340   4.684  10.910  0.8240  0.0610  0.2286
13218TIP3   OH261068   6.587   2.366  15.387  0.1083 -0.4251 -0.0803
13218TIP3    H161069   6.663   2.310  15.378  0.1569 -0.2100 -1.0763
13218TIP3    H261070   6.518   2.308  15.421  0.3696 -0.8996 -0.3561
13219TIP3   OH261071   0.662   4.997   0.494 -0.5766 -0.4852 -0.4696
13219TIP3    H161072   0.734   4.936   0.480 -0.1454 -0.5202  1.6063
13219TIP3    H261073   0.676   5.066   0.429  1.2935 -0.5143 -0.1397
13220TIP3   OH261074   5.449   3.228   4.955  0.2472  0.2612 -0.3072
13220TIP3    H161075   5.437   3.320   4.979 -2.7476 -0.2373  0.4802
13220TIP3    H261076   5.536   3.206   4.989  0.1873  2.2383  1.3403
13221TIP3   OH261077   3.210   0.183   3.289  0.0317  0.0071 -0.0650
13221TIP3    H161078   3.248   0.231   3.362  0.0431 -0.1921  0.0615
13221TIP3    H261079   3.199   0.248   3.220  2.2412 -0.2551 -0.7382
13222TIP3   OH261080   4.104   6.506   5.690  0.0986 -0.2478 -0.1242
13222TIP3    H161081   4.166   6.474   5.624  0.2259 -0.6988  0.2068
13222TIP3    H261082   4.077   6.427   5.737  1.1029  0.2128  1.3060
13223TIP3   OH261083   1.295   2.049   1.649 -0.1441  0.6317  0.0115
13223TIP3    H161084   1.265   1.986   1.583 -1.9435  1.3501  0.0764
13223TIP3    H261085   1.234   2.036   1.723 -1.9708  3.7944 -0.7499
13224TIP3   OH261086   5.242   0.862  12.686  0.2489  0.1405 -0.0146
13224TIP3    H161087   5.227   0.954  12.708 -0.6435  0.2670 -1.0735
13224TIP3    H261088   5.165   0.816  12.718 -0.1142  0.0321 -1.0049
13225TIP3   OH261089   1.535   6.265   3.383  0.0283  0.0899  0.3829
13225TIP3    H161090   1.448   6.281   3.421  0.5931  0.0694  1.7222
13225TIP3    H261091   1.575   6.351   3.379  0.0564  0.0617  0.0063
13226TIP3   OH261092   3.151   5.702  15.352  0.0451  0.0176  0.1267
13226TIP3    H161093   3.122   5.757  15.279 -1.2328  0.3298  0.8511
13226TIP3    H261094   3.205   5.635  15.310  0.2548  0.8292 -0.9685
13227TIP3   OH261095   1.952   0.147   5.234 -0.1319  0.4449  0.6308
13227TIP3    H161096   1.931   0.106   5.150 -0.1315 -0.2420  0.9531
13227TIP3    H261097   1.867   0.160   5.276 -0.1251  0.6852  0.5688
13228TIP3   OH261098   2.733   5.307  16.551 -0.0117  0.4172  0.3264
13228TIP3    H161099   2.638   5.312  16.538 -0.5213 -1.6462  2.3581
13228TIP3    H261100   2.748   5.216  16.578  2.2771  1.1374  1.7858
13229TIP3   OH261101   3.222   5.373   4.638 -0.2258  0.0733 -0.1213
13229TIP3    H161102   3.203   5.279   4.637 -1.2788  0.2127 -3.0998
13229TIP3    H261103   3.300   5.381   4.693 -0.1486 -2.5056  0.2735
13230TIP3   OH261104   5.407   3.682  13.167  0.3628  0.3198 -0.6743
13230TIP3    H161105   5.318   3.650  13.186  0.6204  0.1825  0.3516
13230TIP3    H261106   5.433   3.633  13.089 -0.4038  0.2486 -0.9007
13231TIP3   OH261107   5.846   4.094   0.802 -0.3425  0.2848 -0.2965
13231TIP3    H161108   5.933   4.056   0.788  0.7043  0.5344  4.0957
13231TIP3    H261109   5.857   4.187   0.780  0.9569  0.5889  1.4280
13232TIP3   OH261110   2.383   2.187  10.739  0.0493 -0.3406 -0.1333
13232TIP3    H161111   2.335   2.125  10.683 -0.9242  1.3141 -1.2068
13232TIP3    H261112   2.412   2.256  10.679  0.6895  0.5021  1.1079
13233TIP3   OH261113   0.523   2.974  14.428 -0.0064 -0.4513 -0.4074
13233TIP3    H161114   0.477   3.045  14.473  0.1958 -0.5968  0.0365
13233TIP3    H261115   0.577   3.019  14.364 -1.1455 -0.3040 -1.3021
13234TIP3   OH261116   1.046   5.652   3.417 -0.1487 -0.1952 -0.3579
13234TIP3    H161117   1.003   5.733   3.388 -1.7711 -1.2471 -1.0210
13234TIP3    H261118   1.106   5.631   3.346 -1.3479 -0.7268 -1.2520
13235TIP3   OH261119   2.952   2.062   3.547 -0.4049  0.1432 -0.5958
13235TIP3    H161120   2.925   1.971   3.548  1.0686 -0.3299  0.2981
13235TIP3    H261121   2.878   2.110   3.585 -0.6216 -0.8747  0.3040
13236TIP3   OH261122   1.156   4.376   3.899  0.0964  0.4767 -0.2055
13236TIP3    H161123   1.105   4.438   3.847  1.0852  1.0005 -0.5814
13236TIP3    H261124   1.096   4.304   3.917 -0.7468  1.0459 -0.6846
13237TIP3   OH261125   1.938   4.425  17.374 -0.4749 -0.2116  0.3035
13237TIP3    H161126   1.849   4.438  17.407 -0.2897 -1.4708  1.3709
13237TIP3    H261127   1.931   4.441  17.279 -0.6510  5.3801  0.9033
13238TIP3   OH261128   1.346   3.932  16.328  0.0571  0.1830  0.0959
13238TIP3    H161129   1.398   3.858  16.296  0.4904  1.3880 -2.1746
13238TIP3    H261130   1.262   3.893  16.352  0.0320 -0.9752 -1.6732
13239TIP3   OH261131   4.778   2.324   3.841  0.0401  0.0824  0.7724
13239TIP3    H161132   4.710   2.257   3.838  0.2305 -0.0933 -1.7019
13239TIP3    H261133   4.840   2.293   3.907 -1.8804 -0.0964  2.5832
13240TIP3   OH261134   5.505   0.696  15.277 -0.9864  0.0045  0.1782
13240TIP3    H161135   5.573   0.643  15.319 -1.1875 -2.2152 -2.0696
13240TIP3    H261136   5.539   0.786  15.280  1.4146 -0.8516  0.3041
13241TIP3   OH261137   0.622   1.405   2.021 -0.1481 -0.4847  0.5452
13241TIP3    H161138   0.689   1.466   1.991 -0.0341 -1.0547 -0.4057
13241TIP3    H261139   0.620   1.337   1.954 -1.9028 -0.3071  0.3639
13242TIP3   OH261140   2.193   5.810   3.886 -0.7271  0.2572  0.3201
13242TIP3    H161141   2.255   5.860   3.939 -1.3706 -0.3112  1.6588
13242TIP3    H261142   2.169   5.735   3.940 -0.5764 -0.9722 -1.2363
13243TIP3   OH261143   1.663   4.465   0.063  0.8448 -0.7067  0.2701
13243TIP3    H161144   1.628   4.470   0.152  1.4296  0.7833  0.4333
13243TIP3    H261145   1.589   4.490   0.007  0.9290 -0.0621  0.4448
13244TIP3   OH261146   0.853   0.914  13.256 -0.3451  0.3298  0.5228
13244TIP3    H161147   0.917   0.978  13.226  0.0596 -0.8883 -1.4382
13244TIP3    H261148   0.768   0.953  13.235 -0.2258  1.2633  1.6709
13245TIP3   OH261149   3.716   4.870  16.003  0.4809  0.4070  0.0959
13245TIP3    H161150   3.770   4.838  16.076 -0.8736 -0.4606  0.7553
13245TIP3    H261151   3.666   4.793  15.975 -0.2181  1.1280 -0.6847
13246TIP3   OH261152   0.796   0.226   4.973  0.7151 -0.0476 -0.3600
13246TIP3    H161153   0.733   0.275   4.919 -0.1452  0.5400  1.0873
13246TIP3    H261154   0.834   0.162   4.914  1.0271  1.6090 -2.0674
13247TIP3   OH261155   4.698   4.841   3.022  0.2289  0.0237 -0.1462
13247TIP3    H161156   4.722   4.934   3.027 -0.4856  0.1627  1.7726
13247TIP3    H261157   4.606   4.841   2.996  0.2472 -0.1550 -0.2120
13248TIP3   OH261158   4.629   3.673  16.645  0.2582  0.0246  0.2290
13248TIP3    H161159   4.561   3.610  16.622 -0.3151  0.9255 -0.6132
13248TIP3    H261160   4.655   3.649  16.734  1.3276 -2.5246 -0.6582
13249TIP3   OH261161   3.515   5.052  11.999  0.2192 -0.0156 -0.1068
13249TIP3    H161162   3.552   4.964  11.988  0.1122 -0.1744  0.7353
13249TIP3    H261163   3.560   5.087  12.076  0.6804  0.8983 -0.7758
13250TIP3   OH261164   6.632   4.130   1.298  0.2642  0.1921  0.0285
13250TIP3    H161165   6.709   4.166   1.341 -0.9471  0.9386  1.7036
13250TIP3    H261166   6.581   4.207   1.272 -1.2358 -0.2394  1.5133
13251TIP3   OH261167   6.210   4.431  16.249  0.1258 -0.2520  0.4497
13251TIP3    H161168   6.155   4.506  16.230 -1.1943 -1.1227  0.7352
13251TIP3    H261169   6.207   4.421  16.344  1.3128  0.0709  0.5434
13252TIP3   OH261170   2.751   5.641   1.530  0.3704  0.3392  0.2895
13252TIP3    H161171   2.747   5.548   1.551  1.7825  0.4208  0.9953
13252TIP3    H261172   2.667   5.676   1.561  0.8645 -0.2343  2.3994
13253TIP3   OH261173   4.255   1.007  17.073 -0.3258  0.8450  0.5585
13253TIP3    H161174   4.276   0.965  16.989 -1.3904 -0.4433  0.8994
13253TIP3    H261175   4.188   0.950  17.111  2.0976 -0.2096  3.5866
13254TIP3   OH261176   0.237   0.772  14.505 -0.0643  0.1428  0.0227
13254TIP3    H161177   0.171   0.704  14.512  0.8696 -0.6999  0.9021
13254TIP3    H261178   0.305   0.735  14.450  0.1835  0.5839  0.0235
13255TIP3   OH261179   1.571   2.620   0.653  0.1618 -0.2904  0.2856
13255TIP3    H161180   1.479   2.639   0.633  0.1982 -1.7970 -1.7072
13255TIP3    H261181   1.597   2.687   0.716 -1.7455  1.4214 -0.6304
13256TIP3   OH261182   2.633   3.874  14.237  0.7016  0.6281  0.4128
13256TIP3    H161183   2.655   3.806  14.301  0.8111  0.3961  0.1310
13256TIP3    H261184   2.632   3.956  14.287 -1.6896  0.1635  1.2580
13257TIP3   OH261185   3.622   2.443   6.000  0.5645  0.0321  0.3777
13257TIP3    H161186   3.615   2.501   6.077  1.6320 -1.0098  1.3005
13257TIP3    H261187   3.715   2.419   5.997  0.5561  0.0842 -1.2964
13258TIP3   OH261188   5.995   0.718  11.988 -0.1537  0.0169 -0.0289
13258TIP3    H161189   5.998   0.622  11.983 -1.2133 -0.0012 -0.6676
13258TIP3    H261190   6.056   0.740  12.058 -0.4305 -1.1776  0.6220
13259TIP3   OH261191   5.426   1.551  11.268 -0.2457  0.4675 -0.1393
13259TIP3    H161192   5.508   1.600  11.261 -0.8756  1.7634  1.0644
13259TIP3    H261193   5.418   1.531  11.361 -1.4872  0.7158 -0.1783
13260TIP3   OH261194   1.531   0.732  11.522  0.1206 -0.1916 -0.3556
13260TIP3    H161195   1.533   0.787  11.444 -0.0606  0.1294 -0.1358
13260TIP3    H261196   1.448   0.754  11.565  0.4222 -0.0425  0.1581
13261TIP3   OH261197   2.381   5.051  13.337  0.5197 -0.4220  0.0616
13261TIP3    H161198   2.409   4.969  13.377  1.2360 -1.2011 -1.9211
13261TIP3    H261199   2.304   5.027  13.285 -0.9675  0.7511  1.5995
13262TIP3   OH261200   6.273   0.167  14.679 -0.0147 -0.1523 -0.3032
13262TIP3    H161201   6.211   0.176  14.751  0.3663  2.7391 -0.2073
13262TIP3    H261202   6.239   0.226  14.611 -0.1579 -2.4963 -2.4089
13263TIP3   OH261203   1.169   0.751  13.173  0.4804 -0.3666 -0.0083
13263TIP3    H161204   1.120   0.670  13.188 -0.8809  0.6505  1.3973
13263TIP3    H261205   1.156   0.770  13.080 -0.3340 -1.0673 -0.0494
13264TIP3   OH261206   5.595   1.723  14.809  0.0971 -0.0221 -0.4675
13264TIP3    H161207   5.620   1.684  14.892 -1.2959 -0.3453 -0.1671
13264TIP3    H261208   5.499   1.717  14.807  0.1371 -1.4682 -2.7893
13265TIP3   OH261209   6.205   1.366   1.771  0.5152  0.2772  0.2112
13265TIP3    H161210   6.149   1.325   1.704  1.1561 -0.3351  0.0318
13265TIP3    H261211   6.179   1.323   1.852 -0.2664  1.0233  0.3686
13266TIP3   OH261212   0.150   1.779   4.380  0.1269 -0.2054 -0.4692
13266TIP3    H161213   0.126   1.779   4.472 -2.7999  1.9415 -1.0857
13266TIP3    H261214   0.218   1.846   4.373 -0.8415  0.8652 -0.0454
13267TIP3   OH261215   2.845   6.150   5.233 -0.8319 -0.2422 -0.1572
13267TIP3    H161216   2.883   6.212   5.171  0.3485 -0.5384  0.2254
13267TIP3    H261217   2.860   6.064   5.193 -1.3125 -0.3539 -0.1019
13268TIP3   OH261218   2.123   0.685   3.402  0.6147  0.0177  0.5355
13268TIP3    H161219   2.163   0.701   3.317 -0.5387  0.8774  0.1155
13268TIP3    H261220   2.154   0.599   3.428  0.1295 -0.7671 -1.2865
13269TIP3   OH261221   4.776   0.724  12.518  0.3275  1.0169  0.2124
13269TIP3    H161222   4.722   0.729  12.439  1.5339 -0.3566 -0.7800
13269TIP3    H261223   4.750   0.641  12.559 -0.0809  1.5808  1.1051
13270TIP3   OH261224   4.608   0.527   0.917 -0.3127 -0.1579  0.6067
13270TIP3    H161225   4.701   0.551   0.912 -0.3206 -0.4408 -2.3953
13270TIP3    H261226   4.598   0.455   0.856 -2.4455 -0.4752  1.2549
13271TIP3   OH261227   0.095   1.627  16.544 -0.6590 -0.6624  0.5664
13271TIP3    H161228   0.121   1.570  16.617 -0.5390 -1.9594 -0.4597
13271TIP3    H261229   0.115   1.716  16.575 -0.2453 -1.2141  1.9567
13272TIP3   OH261230   1.940   2.147   2.931  0.0918  0.6174  0.1433
13272TIP3    H161231   1.936   2.242   2.940  0.2462  0.8354 -1.6082
13272TIP3    H261232   1.926   2.113   3.019 -1.3299  2.2272  0.5733
13273TIP3   OH261233   2.660   1.044  13.738 -0.0749  0.2878 -0.9342
13273TIP3    H161234   2.565   1.042  13.738 -0.0918 -0.1378  0.2670
13273TIP3    H261235   2.686   0.954  13.760  0.5427  0.7261  0.2438
13274TIP3   OH261236   3.095   0.938   1.754 -0.1172 -0.2750 -0.3073
13274TIP3    H161237   3.033   0.878   1.711 -0.6390  0.5127 -0.6788
13274TIP3    H261238   3.101   0.905   1.844 -0.5227 -0.7855 -0.4607
13275TIP3   OH261239   6.617   4.979   3.333 -0.4888  0.1015  0.0618
13275TIP3    H161240   6.637   4.886   3.317  0.5754  0.5842 -1.6747
13275TIP3    H261241   6.550   5.000   3.268 -2.5866 -0.0028  2.0493
13276TIP3   OH261242   3.149   3.560   4.989 -0.4607 -0.2013  0.2509
13276TIP3    H161243   3.214   3.490   4.980 -0.0603  0.3338 -1.2432
13276TIP3    H261244   3.067   3.514   5.011 -0.3646 -1.2306 -1.3578
13277TIP3   OH261245   3.896   5.208   2.145 -0.2741  0.0989  0.0820
13277TIP3    H161246   3.851   5.208   2.229 -1.3827  0.9155 -0.4927
13277TIP3    H261247   3.987   5.229   2.167 -0.5379  0.2558  1.0847
13278TIP3   OH261248   2.619   4.241  11.388 -0.1902 -0.1632 -0.4349
13278TIP3    H161249   2.655   4.153  11.382 -0.4484 -0.4391  1.4409
13278TIP3    H261250   2.695   4.299  11.380  0.5107 -0.6885  1.6380
13279TIP3   OH261251   2.387   5.351   3.671  0.2058  0.3926 -0.0594
13279TIP3    H161252   2.417   5.261   3.677  2.8888  1.2224  0.4404
13279TIP3    H261253   2.401   5.387   3.759 -1.2783  1.2045 -0.1106
13280TIP3   OH261254   3.444   4.120   3.954 -0.1694 -0.3284  0.1810
13280TIP3    H161255   3.501   4.065   4.008 -0.4424 -1.3429 -0.5190
13280TIP3    H261256   3.360   4.120   4.001  0.2649  0.8290  1.0005
13281TIP3   OH261257   1.551   5.211  12.704 -0.7700 -0.1379  0.3827
13281TIP3    H161258   1.585   5.136  12.752  0.0118  0.2971  0.5366
13281TIP3    H261259   1.609   5.217  12.627 -0.0481  1.0202  0.9888
13282TIP3   OH261260   4.536   0.389  15.846 -0.4873  0.1066 -0.7378
13282TIP3    H161261   4.624   0.387  15.809 -0.9878 -0.5652 -1.9219
13282TIP3    H261262   4.521   0.482  15.866  0.7330  0.1396  0.1198
13283TIP3   OH261263   4.254   2.392   2.564 -0.8089 -0.5119  0.3824
13283TIP3    H161264   4.221   2.459   2.624 -0.2877 -1.2318  1.5022
13283TIP3    H261265   4.177   2.338   2.544 -1.6411  1.3350 -1.8820
13284TIP3   OH261266   4.605   1.004  16.256 -0.1408 -0.8622  0.1333
13284TIP3    H161267   4.515   0.974  16.241  0.5049 -2.1741 -1.3852
13284TIP3    H261268   4.604   1.040  16.345 -2.7105  1.4284 -0.6836
13285TIP3   OH261269   1.199   3.298  10.967 -0.2611 -0.0870 -0.4758
13285TIP3    H161270   1.204   3.207  10.938 -2.6488 -1.5190  2.9813
13285TIP3    H261271   1.287   3.318  10.999 -0.0819 -1.7492  0.1261
13286TIP3   OH261272   2.468   2.254   1.012 -0.2849 -0.3004  0.3158
13286TIP3    H161273   2.497   2.345   1.011 -0.6934 -0.1332 -2.1181
13286TIP3    H261274   2.456   2.234   1.105  1.7021  1.4836  1.0505
13287TIP3   OH261275   3.563   0.051  14.586 -0.2465  0.2272 -0.2607
13287TIP3    H161276   3.587   0.021  14.499  0.7782  0.2170  0.0124
13287TIP3    H261277   3.640   0.033  14.640 -0.2590  1.6878  0.3005
13288TIP3   OH261278   2.586   1.095   4.763  0.4043  0.0365  0.1709
13288TIP3    H161279   2.657   1.143   4.720 -0.3573  1.2172  0.2000
13288TIP3    H261280   2.623   1.069   4.848  1.0117  0.0577 -0.0793
13289TIP3   OH261281   1.907   4.105  14.245 -1.1576  0.1401 -0.0057
13289TIP3    H161282   1.915   4.201  14.246 -0.4279  0.0806  0.5659
13289TIP3    H261283   1.838   4.086  14.308 -0.6948  0.2404  0.5332
13290TIP3   OH261284   5.110   4.618  15.247 -0.4915  0.3750 -0.3108
13290TIP3    H161285   5.186   4.614  15.190  0.0572 -0.3210  0.4423
13290TIP3    H261286   5.036   4.598  15.190 -0.0495  0.5226 -0.9424
13291TIP3   OH261287   6.311   0.154  15.794 -0.1903 -0.1035 -0.0455
13291TIP3    H161288   6.371   0.080  15.803 -0.2317 -0.1138  0.1365
13291TIP3    H261289   6.368   0.232  15.797 -0.2738 -0.0753  0.9932
13292TIP3   OH261290   2.143   4.432   0.394  0.2622 -0.2915  0.0756
13292TIP3    H161291   2.087   4.419   0.471 -0.7122  0.2611 -0.5180
13292TIP3    H261292   2.232   4.417   0.426 -0.1159  0.0470  1.3319
13293TIP3   OH261293   0.205   6.121   3.891  0.2527 -0.0628  0.1550
13293TIP3    H161294   0.247   6.071   3.961 -0.2851  0.9403  1.2317
13293TIP3    H261295   0.213   6.066   3.813  0.1674 -1.5736  1.1833
13294TIP3   OH261296   0.783   2.538  13.847  0.2042 -0.4759  0.8440
13294TIP3    H161297   0.838   2.521  13.924 -0.8517  1.7504  2.2132
13294TIP3    H261298   0.818   2.620  13.811 -0.2719 -0.7029 -0.1620
13295TIP3   OH261299   3.600   2.083   0.774  0.1260  0.5325  0.1186
13295TIP3    H161300   3.625   2.032   0.697 -2.1695 -0.9269  0.2325
13295TIP3    H261301   3.608   2.174   0.747  1.3618  0.0934 -1.1276
13296TIP3   OH261302   1.392   0.542  14.692  0.0188  0.1300  0.3228
13296TIP3    H161303   1.479   0.510  14.671 -0.4380 -0.1466 -1.3185
13296TIP3    H261304   1.333   0.470  14.669 -0.6176  0.0992  1.9464
13297TIP3   OH261305   1.765   2.062   4.008 -0.0769  0.0306  0.5585
13297TIP3    H161306   1.710   2.079   4.084  0.4382 -0.1943  0.9935
13297TIP3    H261307   1.708   2.015   3.947 -0.3690 -0.2091  1.0073
13298TIP3   OH261308   6.419   1.525   5.431  0.2443 -0.2413 -0.2237
13298TIP3    H161309   6.446   1.567   5.350  1.0529 -3.0409 -1.5201
13298TIP3    H261310   6.349   1.582   5.466  0.6387  1.6007 -2.2649
13299TIP3   OH261311   3.915   2.187  11.768 -0.6070  0.3447  0.1367
13299TIP3    H161312   3.851   2.190  11.698 -0.6230  0.6161  0.1616
13299TIP3    H261313   3.872   2.229  11.842 -0.5187  0.2372  0.2505
13300TIP3   OH261314   4.302   3.006  11.145  0.3986 -0.6463  0.3716
13300TIP3    H161315   4.207   3.016  11.137  0.4816 -0.0231  0.1179
13300TIP3    H261316   4.318   2.913  11.128 -0.4382 -1.3790  3.1861
13301TIP3   OH261317   0.887   4.847   3.245 -0.2024  0.8605 -0.0667
13301TIP3    H161318   0.952   4.789   3.284  0.4782  0.9078 -1.0869
13301TIP3    H261319   0.803   4.811   3.273  0.2426  0.4924  0.8440
13302TIP3   OH261320   2.749   4.991   2.311  0.7074 -0.4143 -0.2077
13302TIP3    H161321   2.828   5.008   2.260  0.8997  0.6467  0.4289
13302TIP3    H261322   2.698   5.071   2.304 -0.4382 -1.1789 -0.8137
13303TIP3   OH261323   3.086   6.684   1.401  0.3896 -0.3831  0.0132
13303TIP3    H161324   3.046   6.712   1.319 -0.4370  0.0465  0.5505
13303TIP3    H261325   3.015   6.690   1.466  0.8828 -1.2243  0.6572
13304TIP3   OH261326   4.489   4.405  16.316  0.0605  0.0903 -0.3682
13304TIP3    H161327   4.538   4.342  16.368  3.5015  1.8025 -1.1993
13304TIP3    H261328   4.440   4.457  16.380 -0.0410 -1.1874  0.6071
13305TIP3   OH261329   2.280   3.442   1.316 -0.5354 -0.7827  0.4103
13305TIP3    H161330   2.307   3.373   1.256  0.2567  0.0116 -0.1732
13305TIP3    H261331   2.309   3.413   1.402  0.4258 -0.8492  0.0665
13306TIP3   OH261332   6.070   2.049   0.879  0.1600 -0.2723 -0.0195
13306TIP3    H161333   6.126   2.077   0.951 -1.2320 -0.1777  1.0596
13306TIP3    H261334   6.123   2.063   0.801  1.2543  0.8172  0.8799
13307TIP3   OH261335   2.216   3.106  15.218 -0.1087  0.1527 -0.1399
13307TIP3    H161336   2.304   3.069  15.215  0.9174  2.5208 -1.5010
13307TIP3    H261337   2.160   3.038  15.180  1.2276 -1.0558 -0.0146
13308TIP3   OH261338   2.625   3.796  17.341 -0.2140 -0.3458 -0.3530
13308TIP3    H161339   2.531   3.796  17.358 -0.3822  0.2539 -1.1883
13308TIP3    H261340   2.658   3.716  17.382 -1.2755 -1.1550 -1.0514
13309TIP3   OH261341   5.227   0.191   1.521  0.4861 -0.2740  0.1729
13309TIP3    H161342   5.291   0.130   1.485  2.5012  1.7793  0.0640
13309TIP3    H261343   5.162   0.202   1.452  0.1028 -2.1947  0.1780
13310TIP3   OH261344   4.906   5.845   3.462  0.2677  0.0613  0.4563
13310TIP3    H161345   4.866   5.790   3.529  0.0088 -0.9552 -0.5102
13310TIP3    H261346   4.860   5.929   3.471 -2.5663 -1.1924 -0.9422
13311TIP3   OH261347   5.554   0.986  17.196  0.2490 -0.6382  0.2172
13311TIP3    H161348   5.490   0.960  17.262 -0.9051 -0.5959 -0.8649
13311TIP3    H261349   5.502   1.018  17.122  1.5040  2.9800  0.6880
13312TIP3   OH261350   0.590   6.414   2.390  0.1519  0.2168 -0.0453
13312TIP3    H161351   0.631   6.428   2.476  1.1815  1.7856 -0.7410
13312TIP3    H261352   0.497   6.409   2.409  0.2514  1.8626  1.0560
13313TIP3   OH261353   0.716   2.050   2.684  0.0388 -0.3075 -0.4309
13313TIP3    H161354   0.807   2.025   2.667 -0.4422 -1.5603 -1.3529
13313TIP3    H261355   0.678   2.064   2.597 -0.9388 -0.9737 -0.1364
13314TIP3   OH261356   5.500   6.204   1.967 -0.0939 -0.1885  0.0759
13314TIP3    H161357   5.574   6.251   1.927  1.6078 -0.7708  2.3289
13314TIP3    H261358   5.491   6.124   1.915  0.5516  0.1145 -0.5135
13315TIP3   OH261359   1.068   5.916  11.996 -0.4382 -0.2619  0.7631
13315TIP3    H161360   1.015   5.954  11.926  0.8897  1.4422  0.5863
13315TIP3    H261361   1.015   5.845  12.031 -3.2546  1.8765  1.2208
13316TIP3   OH261362   5.236   0.595   5.156  0.2936 -0.2068 -0.4076
13316TIP3    H161363   5.303   0.586   5.089  2.5306 -0.9950  1.7516
13316TIP3    H261364   5.248   0.683   5.191 -0.6830  0.1129 -0.8495
13317TIP3   OH261365   5.617   4.162   2.266  0.3462  0.8845 -0.2189
13317TIP3    H161366   5.662   4.081   2.289  1.1676  1.0332 -1.2638
13317TIP3    H261367   5.610   4.210   2.349  0.1050 -0.1108  0.3487
13318TIP3   OH261368   3.803   0.494  14.882  0.4177  0.2770  0.2880
13318TIP3    H161369   3.899   0.494  14.890  0.5250 -1.0231 -0.6418
13318TIP3    H261370   3.775   0.572  14.930  1.9494  0.7543  0.4691
13319TIP3   OH261371   6.258   5.127   4.122  0.2767  0.6474  0.0165
13319TIP3    H161372   6.188   5.119   4.188 -0.9210 -0.2511 -1.2875
13319TIP3    H261373   6.306   5.044   4.129  0.5153  0.7922  0.1292
13320TIP3   OH261374   1.367   4.231  12.616 -0.1082  0.1368 -0.6087
13320TIP3    H161375   1.371   4.311  12.562 -0.1284  1.5206  1.3358
13320TIP3    H261376   1.420   4.251  12.693  1.8727 -2.6424 -1.1060
13321TIP3   OH261377   6.222   0.288   1.261  0.2583  0.5392 -0.7228
13321TIP3    H161378   6.260   0.320   1.180  1.0438 -0.5943 -0.8269
13321TIP3    H261379   6.291   0.300   1.326  0.4531 -0.5996 -0.6985
13322TIP3   OH261380   5.536   3.278   5.793  0.6520 -0.3570  0.2294
13322TIP3    H161381   5.558   3.367   5.768  2.5767 -1.3933 -2.0805
13322TIP3    H261382   5.502   3.286   5.882 -0.8876  2.8470 -0.5056
13323TIP3   OH261383   3.497   3.869  12.523 -0.0856 -0.0575  0.0316
13323TIP3    H161384   3.421   3.873  12.466 -1.0972  0.9407  1.3905
13323TIP3    H261385   3.462   3.845  12.609  1.4527 -1.9843  0.1909
13324TIP3   OH261386   1.810   5.383  12.776  0.2589 -0.5878 -0.1513
13324TIP3    H161387   1.833   5.291  12.786  0.8510 -0.7245 -2.2437
13324TIP3    H261388   1.865   5.414  12.704 -1.7310  0.7175 -1.2238
13325TIP3   OH261389   4.948   5.710  14.882  0.4062 -0.5853  0.1189
13325TIP3    H161390   4.929   5.621  14.912  1.0557 -0.7895 -0.0704
13325TIP3    H261391   5.034   5.704  14.841  0.5087  0.1565  0.2133
13326TIP3   OH261392   0.076   0.482   4.140  0.2971 -0.3528  0.6193
13326TIP3    H161393   0.018   0.440   4.076 -0.2322  1.6285 -0.2706
13326TIP3    H261394   0.163   0.446   4.121 -0.1462 -1.1584  0.0314
13327TIP3   OH261395   0.302   6.022  12.244 -0.5673  0.3539 -0.2094
13327TIP3    H161396   0.275   5.932  12.225 -0.0421 -0.8622  3.9068
13327TIP3    H261397   0.394   6.026  12.217  0.0451 -1.1330  1.4352
13328TIP3   OH261398   5.722   5.638   0.240 -0.1120 -0.5044  0.4265
13328TIP3    H161399   5.662   5.564   0.228 -0.2938 -0.2621 -0.2387
13328TIP3    H261400   5.754   5.629   0.329 -0.8171 -0.8797  0.6517
13329TIP3   OH261401   5.441   4.049  13.052 -0.1347  0.4470  0.2101
13329TIP3    H161402   5.398   4.081  12.972  0.1033  0.3072  0.0252
13329TIP3    H261403   5.370   4.043  13.116 -0.0717  2.0094  0.4547
13330TIP3   OH261404   1.352   6.088  11.685  0.4557  0.3122  0.6655
13330TIP3    H161405   1.415   6.157  11.662  1.8940 -0.4757  2.0908
13330TIP3    H261406   1.271   6.116  11.643  1.2829  2.2973  0.2512
13331TIP3   OH261407   5.003   2.403  14.832 -0.3498  0.0781  0.5426
13331TIP3    H161408   5.002   2.453  14.914 -0.6634 -0.1218  0.6628
13331TIP3    H261409   5.061   2.453  14.774 -0.4834  0.4605  0.7351
13332TIP3   OH261410   6.435   5.014   3.813  0.1782 -0.3503  0.3691
13332TIP3    H161411   6.499   5.075   3.848  0.5383  0.2774 -1.2821
13332TIP3    H261412   6.363   5.015   3.876  0.8645  0.5655  1.1645
13333TIP3   OH261413   0.574   2.130   1.297  0.3696  0.5326  0.2360
13333TIP3    H161414   0.625   2.092   1.226  0.4934 -0.4551  0.8452
13333TIP3    H261415   0.638   2.149   1.365 -0.1510 -1.7051  1.4371
13334TIP3   OH261416   2.973   2.881   3.317 -0.0359  0.2423 -0.3376
13334TIP3    H161417   3.008   2.793   3.327  0.6300  0.4228 -0.9795
13334TIP3    H261418   2.976   2.897   3.222  1.2734  1.5241 -0.1068
13335TIP3   OH261419   5.299   6.376   1.428  0.1005  0.4792 -0.5627
13335TIP3    H161420   5.272   6.345   1.515 -0.0941 -0.0718 -0.8132
13335TIP3    H261421   5.290   6.471   1.433  0.1679  0.4583  0.0480
13336TIP3   OH261422   4.207   4.452  13.642 -0.0024 -0.8204  0.3391
13336TIP3    H161423   4.259   4.442  13.563  0.6452 -1.0071  0.7858
13336TIP3    H261424   4.230   4.539  13.676  0.7647 -1.2957  1.0658
13337TIP3   OH261425   0.350   1.592   1.688  0.4674 -0.3626  0.1193
13337TIP3    H161426   0.377   1.514   1.737  0.0721  0.2605  1.3658
13337TIP3    H261427   0.419   1.656   1.705  1.5562 -0.8524 -2.0825
13338TIP3   OH261428   2.645   3.124   5.133  0.1374 -0.3793  0.1259
13338TIP3    H161429   2.632   3.218   5.145  1.9940 -0.2030  1.0462
13338TIP3    H261430   2.581   3.083   5.191  2.0084  0.4099  2.9229
13339TIP3   OH261431   3.024   1.922   0.191  0.0323 -0.4577 -0.6065
13339TIP3    H161432   3.019   1.844   0.137  0.0870 -1.5736  0.9311
13339TIP3    H261433   3.026   1.995   0.129  0.2017 -1.6789 -2.0756
13340TIP3   OH261434   1.218   5.093  13.248 -0.2533  0.5686  0.3165
13340TIP3    H161435   1.205   5.052  13.333  0.1381  1.2820  0.7340
13340TIP3    H261436   1.184   5.030  13.184  0.1742 -0.3172  0.9486
13341TIP3   OH261437   2.604   5.717  12.421  0.3185  0.1165  0.1554
13341TIP3    H161438   2.666   5.778  12.380 -0.1625  0.5421  0.0456
13341TIP3    H261439   2.658   5.664  12.480  0.7242  0.7829  0.3986
13342TIP3   OH261440   2.794   4.633   2.870 -0.1384  0.3626 -0.1057
13342TIP3    H161441   2.846   4.575   2.814  0.1500  0.1490  0.3827
13342TIP3    H261442   2.852   4.707   2.889  0.0921 -0.0007  0.6535
13343TIP3   OH261443   4.006   0.185  17.350  0.3358 -0.2616  0.0949
13343TIP3    H161444   4.070   0.114  17.356  2.7073  1.7167 -0.3273
13343TIP3    H261445   3.993   0.197  17.256  0.0100 -0.0593  0.1637
13344TIP3   OH261446   1.024   0.290   0.486 -0.3164  0.3344 -0.0821
13344TIP3    H161447   0.937   0.295   0.446 -0.1684  2.0594 -0.2780
13344TIP3    H261448   1.054   0.201   0.469 -1.8796 -0.1600 -0.3515
13345TIP3   OH261449   0.188   1.039  12.811  0.2212 -0.5526 -0.4253
13345TIP3    H161450   0.187   0.986  12.890  2.4885 -0.1618 -0.0556
13345TIP3    H261451   0.174   1.129  12.841 -0.1080 -0.5384 -0.6168
13346TIP3   OH261452   6.444   3.876   3.710  0.2362  1.0310 -0.0211
13346TIP3    H161453   6.359   3.843   3.741 -0.2740  3.6747  1.6994
13346TIP3    H261454   6.508   3.835   3.767 -0.0178  0.2420 -0.2880
13347TIP3   OH261455   2.681   3.712   3.230 -0.7017  0.5308  0.9081
13347TIP3    H161456   2.756   3.716   3.290  1.2096 -0.6582 -1.2444
13347TIP3    H261457   2.680   3.621   3.200 -1.6602  1.0704 -0.7820
13348TIP3   OH261458   6.141   1.985   0.347 -0.2132 -0.6283 -0.1578
13348TIP3    H161459   6.101   1.935   0.419  0.1838  0.1528  0.6281
13348TIP3    H261460   6.226   2.012   0.381  0.7145 -1.6469 -1.5490
13349TIP3   OH261461   0.162   3.350  13.532  0.2086  0.0046 -0.4241
13349TIP3    H161462   0.100   3.406  13.485 -1.9039 -1.0972  0.9023
13349TIP3    H261463   0.145   3.262  13.500 -0.8317 -0.6833  1.8280
13350TIP3   OH261464   1.307   5.069   2.672 -0.0638 -0.0434 -0.0590
13350TIP3    H161465   1.388   5.100   2.715 -0.5678 -0.4260  1.2095
13350TIP3    H261466   1.312   4.974   2.678 -1.2443 -0.0513  1.3000
13351TIP3   OH261467   6.599   0.256  14.304  0.5598  0.3722 -0.2841
13351TIP3    H161468   6.649   0.182  14.270 -2.0863 -1.9017  0.3393
13351TIP3    H261469   6.517   0.255  14.254 -0.8864  0.7557  1.8975
13352TIP3   OH261470   4.328   6.715   5.341  0.3375  0.1890  0.4589
13352TIP3    H161471   4.321   6.810   5.342  0.4980  0.2188 -0.5880
13352TIP3    H261472   4.363   6.693   5.428 -0.0278  1.0475  0.8363
13353TIP3   OH261473   5.823   3.252  15.295 -0.3543 -0.3319  0.0191
13353TIP3    H161474   5.831   3.157  15.303 -0.3854 -0.4194 -0.9019
13353TIP3    H261475   5.771   3.278  15.371 -2.1060 -1.3241 -0.7637
13354TIP3   OH261476   4.950   3.009   3.600  0.4058  0.0830 -0.2779
13354TIP3    H161477   4.868   3.055   3.582 -0.2245 -1.8235 -2.7122
13354TIP3    H261478   5.016   3.059   3.551  0.6951  1.3277  1.2857
13355TIP3   OH261479   4.159   5.595   5.656  0.1557 -0.2656 -0.4818
13355TIP3    H161480   4.194   5.509   5.633  1.8261  0.7182 -1.8961
13355TIP3    H261481   4.065   5.581   5.667  0.6272 -2.5986  1.2313
13356TIP3   OH261482   1.855   0.614   2.079 -0.3686  0.0963 -0.4297
13356TIP3    H161483   1.811   0.530   2.092  1.5780 -1.0498 -0.7877
13356TIP3    H261484   1.903   0.629   2.160  0.9401 -0.2105 -1.1189
13357TIP3   OH261485   4.296   1.685   1.066 -0.2549 -0.1129 -0.1443
13357TIP3    H161486   4.289   1.619   1.136  2.5827  0.6166  0.9774
13357TIP3    H261487   4.287   1.768   1.112  1.4652  0.3688 -0.6159
13358TIP3   OH261488   1.655   6.531  15.884  0.0212  0.0553 -0.1680
13358TIP3    H161489   1.700   6.456  15.924  0.0785  1.7754  3.3716
13358TIP3    H261490   1.569   6.497  15.859  0.5647 -1.5203  0.0085
13359TIP3   OH261491   0.892   6.611  15.818 -0.1074  0.0715  0.3242
13359TIP3    H161492   0.896   6.533  15.763 -0.6958 -1.0944  1.8418
13359TIP3    H261493   0.933   6.583  15.901 -0.0288  1.4866  0.7820
13360TIP3   OH261494   0.514   0.680   0.297 -0.5278 -0.0371  0.4643
13360TIP3    H161495   0.468   0.611   0.250  0.7448  0.2666 -1.3431
13360TIP3    H261496   0.582   0.633   0.347 -0.6974 -0.2134  0.5320
13361TIP3   OH261497   0.892   3.030   4.667 -0.4599 -0.0606 -0.3225
13361TIP3    H161498   0.858   3.119   4.668 -1.3979 -0.4039  1.1971
13361TIP3    H261499   0.883   3.002   4.576 -0.1958  1.3699 -0.8039
13362TIP3   OH261500   6.371   6.536   4.895  0.0742  0.0596 -0.3968
13362TIP3    H161501   6.434   6.491   4.839  0.2891  1.5315 -1.3939
13362TIP3    H261502   6.286   6.512   4.859  0.2307  1.5347 -1.8360
13363TIP3   OH261503   4.150   1.765  16.462 -0.5530  0.3924 -0.2571
13363TIP3    H161504   4.116   1.787  16.548  0.1772 -1.9856  0.7112
13363TIP3    H261505   4.102   1.686  16.437  0.5218  0.0315 -1.2287
13364TIP3   OH261506   0.058   6.239  15.413  0.4128  0.2697 -0.4299
13364TIP3    H161507   0.055   6.148  15.441  0.6902  0.8329  1.6364
13364TIP3    H261508  -0.029   6.273  15.431  0.7294  0.7664  0.2312
13365TIP3   OH261509   0.321   3.023   0.530 -0.4025 -0.0624 -0.6469
13365TIP3    H161510   0.265   2.947   0.512  3.7783 -3.9609  0.7500
13365TIP3    H261511   0.318   3.033   0.625  2.3280 -1.6078 -0.2817
13366TIP3   OH261512   1.821   4.795  13.401 -0.3646 -0.3440 -0.0157
13366TIP3    H161513   1.870   4.785  13.483 -0.4038 -1.5448 -0.1177
13366TIP3    H261514   1.835   4.886  13.376  0.7955 -0.3297  0.6025
13367TIP3   OH261515   3.078   0.223   3.906  0.4844  0.0738  0.1097
13367TIP3    H161516   3.157   0.210   3.957  0.1571  1.9835  1.2139
13367TIP3    H261517   3.095   0.179   3.823  2.4315 -0.1093  0.5626
13368TIP3   OH261518   3.758   3.865   0.813 -0.3014  0.2564  0.0810
13368TIP3    H161519   3.720   3.942   0.854 -0.2102 -0.1567  0.9654
13368TIP3    H261520   3.720   3.863   0.725 -0.5707  1.1077  0.1737
13369TIP3   OH261521   5.442   0.534  14.748 -1.0048 -0.7536  0.3088
13369TIP3    H161522   5.420   0.627  14.734  1.0990 -0.2096  0.2502
13369TIP3    H261523   5.403   0.513  14.833 -0.2469  0.6517  1.0438
13370TIP3   OH261524   5.122   0.158   1.828  0.4013  0.1505 -0.0755
13370TIP3    H161525   5.033   0.177   1.800  0.0224 -1.9092 -0.4254
13370TIP3    H261526   5.166   0.126   1.749  1.2107  0.3386  0.2800
13371TIP3   OH261527   2.798   1.377   2.555  0.3961  0.9475  0.4774
13371TIP3    H161528   2.793   1.453   2.497  0.1142 -0.8455 -2.0371
13371TIP3    H261529   2.891   1.368   2.574  0.6283  0.9769 -0.5889
13372TIP3   OH261530   2.432   3.816  14.583 -0.3644 -0.9213 -0.0396
13372TIP3    H161531   2.520   3.845  14.608 -0.5693 -0.4121  0.0989
13372TIP3    H261532   2.381   3.897  14.576 -0.4331 -1.0654 -1.6687
13373TIP3   OH261533   1.296   1.007   5.587  0.3359  0.2172  1.1360
13373TIP3    H161534   1.259   1.090   5.617  0.3759  0.5823  0.2108
13373TIP3    H261535   1.308   1.019   5.493  1.5411 -0.3880  1.2010
13374TIP3   OH261536   3.404   6.726   3.218  0.2728  0.3198 -0.3374
13374TIP3    H161537   3.436   6.702   3.305 -0.1846 -2.1232 -0.7478
13374TIP3    H261538   3.323   6.774   3.233 -1.1997 -2.2927  0.6367
13375TIP3   OH261539   5.383   6.404   0.003 -0.7577 -0.3348 -0.1471
13375TIP3    H161540   5.301   6.453   0.009 -1.1788 -1.0621  0.2091
13375TIP3    H261541   5.444   6.464  -0.040 -1.4345  0.2675 -0.2847
13376TIP3   OH261542   6.664   0.208  14.612 -0.5745 -0.2152  0.1487
13376TIP3    H161543   6.643   0.297  14.642  1.5671  0.6872 -0.8064
13376TIP3    H261544   6.599   0.189  14.545 -2.3346 -0.2546  1.7749
13377TIP3   OH261545   4.983   1.831  14.565 -0.5833  0.2406 -0.0476
13377TIP3    H161546   4.974   1.926  14.554  1.0874  0.5960  1.2745
13377TIP3    H261547   4.913   1.807  14.626 -0.8640  0.6503 -0.1982
13378TIP3   OH261548   2.530   2.432   3.195 -0.2142 -0.3526  0.0599
13378TIP3    H161549   2.522   2.478   3.112  1.8755 -0.0736 -0.0448
13378TIP3    H261550   2.584   2.355   3.175  1.3999  0.3848  1.3470
13379TIP3   OH261551   6.368   0.772   6.305  0.1426 -0.0665  0.5493
13379TIP3    H161552   6.438   0.825   6.343  0.9952 -0.5207 -0.3483
13379TIP3    H261553   6.360   0.697   6.363  1.2028 -0.5868  0.0425
13380TIP3   OH261554   1.258   0.806   3.479  0.0287  0.4127 -0.6219
13380TIP3    H161555   1.281   0.748   3.407 -0.8571  1.1561 -1.5248
13380TIP3    H261556   1.199   0.754   3.534  2.2588 -0.8579  0.7103
13381TIP3   OH261557   3.145   1.720   5.795 -0.0434 -0.3198  0.5142
13381TIP3    H161558   3.124   1.799   5.845 -1.1082 -0.1890 -0.1057
13381TIP3    H261559   3.197   1.750   5.721  0.2139 -0.3090  0.6982
13382TIP3   OH261560   6.137   2.595   3.496  0.7124  0.5922 -0.7031
13382TIP3    H161561   6.156   2.625   3.584 -0.0832 -0.7641 -0.0363
13382TIP3    H261562   6.156   2.670   3.440  1.5357  1.3684  0.5767
13383TIP3   OH261563   0.462   5.413   3.138 -0.4098 -0.0642 -0.2810
13383TIP3    H161564   0.426   5.389   3.224  0.2485  1.6016  0.5037
13383TIP3    H261565   0.445   5.337   3.083 -1.8874 -0.7266  1.0157
13384TIP3   OH261566   4.424   3.134  12.969 -0.1015  0.0386  0.2478
13384TIP3    H161567   4.468   3.111  13.051  0.9270 -2.4231 -0.8837
13384TIP3    H261568   4.445   3.062  12.910 -1.2097  1.4930 -2.0549
13385TIP3   OH261569   1.501   1.717   2.204 -0.1886  0.1667  0.2850
13385TIP3    H161570   1.591   1.749   2.199 -0.1330 -0.1758 -1.4563
13385TIP3    H261571   1.509   1.622   2.200 -0.6635  0.1663 -1.1523
13386TIP3   OH261572   6.134   0.939   0.401  0.5112 -0.4963 -0.2879
13386TIP3    H161573   6.172   0.953   0.314 -1.4040 -0.0618 -1.1158
13386TIP3    H261574   6.051   0.895   0.384  0.6933 -1.6111  1.4527
13387TIP3   OH261575   3.317   2.877   5.206 -1.0444  0.3570  0.0087
13387TIP3    H161576   3.299   2.970   5.221 -0.9992  0.2705  0.6396
13387TIP3    H261577   3.289   2.834   5.287 -2.0689 -0.3173 -0.6907
13388TIP3   OH261578   2.652   2.741   0.098 -0.5908  0.2966  0.0637
13388TIP3    H161579   2.573   2.731   0.151  0.8925 -1.1699  2.1674
13388TIP3    H261580   2.668   2.835   0.097 -1.6938  0.5095  0.6516
13389TIP3   OH261581   2.247   6.420   2.825 -0.3676 -0.1129 -0.1392
13389TIP3    H161582   2.248   6.510   2.857  0.5357 -0.1980  0.0974
13389TIP3    H261583   2.281   6.426   2.735  0.5444 -0.3280  0.1902
13390TIP3   OH261584   4.728   0.557  14.292  1.0871 -0.2916  0.4423
13390TIP3    H161585   4.703   0.648  14.274 -1.1030 -0.8310  0.3993
13390TIP3    H261586   4.793   0.536  14.225  1.1071  1.0238  0.0185
13391TIP3   OH261587   3.528   4.386   6.139 -0.2892  0.1307 -0.4855
13391TIP3    H161588   3.566   4.299   6.128 -1.6107 -0.3170 -1.8542
13391TIP3    H261589   3.602   4.446   6.137  0.5736 -0.9155 -0.2139
13392TIP3   OH261590   4.095   2.184  14.330  0.6596  0.1241 -0.1421
13392TIP3    H161591   4.089   2.227  14.416 -2.4922 -0.7450  0.1826
13392TIP3    H261592   4.126   2.253  14.271  2.8042  0.7705  1.6125
13393TIP3   OH261593   3.509   4.832  16.233 -0.8910 -0.3527  0.3764
13393TIP3    H161594   3.422   4.840  16.194 -0.0722  0.1426 -1.4346
13393TIP3    H261595   3.568   4.866  16.167  0.9460 -3.0302  0.5064
13394TIP3   OH261596   0.798   2.719  17.223 -0.1043 -0.4036  1.0504
13394TIP3    H161597   0.770   2.633  17.254  0.6273 -0.8877  0.4219
13394TIP3    H261598   0.893   2.711  17.212 -0.3245 -0.4472 -1.6792
13395TIP3   OH261599   0.405   0.545  17.318 -0.6692  0.0801 -0.5799
13395TIP3    H161600   0.456   0.595  17.254 -0.3666  2.0284  1.0601
13395TIP3    H261601   0.391   0.460  17.277  1.5587  0.4160 -2.2216
13396TIP3   OH261602   2.875   3.518  11.299  0.4604 -0.1828  0.3249
13396TIP3    H161603   2.892   3.611  11.314 -0.4873  0.1721 -0.6265
13396TIP3    H261604   2.956   3.484  11.262  0.1442  0.7705 -1.3142
13397TIP3   OH261605   3.580   2.628  11.585 -0.3319  0.6487 -0.4688
13397TIP3    H161606   3.528   2.707  11.598 -0.7709  0.0334  1.8153
13397TIP3    H261607   3.543   2.588  11.506 -1.0160  1.9845 -0.8562
13398TIP3   OH261608   6.274   3.579   0.362 -0.1413 -0.5480 -0.0331
13398TIP3    H161609   6.332   3.510   0.393  0.9791 -0.0317 -0.9338
13398TIP3    H261610   6.200   3.532   0.322  0.4678 -1.2299 -0.3783
13399TIP3   OH261611   3.151   6.373  16.514 -0.0247  0.7213  0.1810
13399TIP3    H161612   3.205   6.404  16.586 -0.4551 -1.3688  1.4780
13399TIP3    H261613   3.072   6.339  16.555 -0.0114 -1.1200 -1.1797
13400TIP3   OH261614   1.118   0.656   1.461  0.2768 -1.0073  0.1636
13400TIP3    H161615   1.183   0.602   1.417  0.8485  0.1131 -0.4208
13400TIP3    H261616   1.036   0.639   1.414  0.6960 -0.4987 -0.7822
13401TIP3   OH261617   4.187   4.060   0.839 -0.2441 -0.0820 -0.2067
13401TIP3    H161618   4.112   4.008   0.867 -1.6556  2.5935  1.5001
13401TIP3    H261619   4.249   4.054   0.912 -2.0503  3.3705  1.9294
13402TIP3   OH261620   5.673   2.901   4.756 -0.7820 -0.3295  0.5185
13402TIP3    H161621   5.680   2.945   4.671 -0.8058 -2.0016 -0.3860
13402TIP3    H261622   5.579   2.900   4.775 -0.6611  1.4752  1.3802
13403TIP3   OH261623   2.671   5.078  17.366 -0.0974 -0.1389 -0.1109
13403TIP3    H161624   2.680   4.983  17.377 -0.0224  0.0108  1.2029
13403TIP3    H261625   2.679   5.091  17.271 -0.6835 -1.4986 -0.3790
13404TIP3   OH261626   1.372   0.804  13.769  0.0369  0.4063 -0.2428
13404TIP3    H161627   1.388   0.714  13.741  1.7285  0.6953 -0.2775
13404TIP3    H261628   1.319   0.794  13.848  0.8763 -0.6565  0.2145
13405TIP3   OH261629   0.707   2.159   0.480  0.6467  0.2481  0.0364
13405TIP3    H161630   0.657   2.104   0.419  0.4503 -1.1402  1.3819
13405TIP3    H261631   0.771   2.204   0.425 -0.5571  0.2777 -1.4006
13406TIP3   OH261632   4.963   0.265  12.383 -0.3929 -0.8764 -0.2260
13406TIP3    H161633   4.972   0.350  12.427 -1.6226 -1.6866  1.7676
13406TIP3    H261634   4.993   0.280  12.294  1.2117  1.1710  0.5836
13407TIP3   OH261635   6.203   0.804  13.202  0.3369 -0.5164  0.6135
13407TIP3    H161636   6.170   0.760  13.124  0.9721  0.4956 -0.2564
13407TIP3    H261637   6.259   0.874  13.168  0.5978 -0.0321  1.9784
13408TIP3   OH261638   4.665   2.504  15.962 -0.6098 -0.1240  0.6062
13408TIP3    H161639   4.678   2.432  16.024 -1.4591  0.3793  1.3881
13408TIP3    H261640   4.753   2.541  15.950  0.1156 -2.1152 -0.8957
13409TIP3   OH261641   0.558   4.145  12.632 -0.1553  1.0087 -0.3397
13409TIP3    H161642   0.509   4.105  12.560  0.1456  0.6664 -0.3567
13409TIP3    H261643   0.491   4.165  12.698 -0.5220  1.9030 -0.9646
13410TIP3   OH261644   3.556   1.152  13.436  0.3710 -0.2194 -0.0880
13410TIP3    H161645   3.650   1.163  13.423  0.1179  0.6579 -1.3630
13410TIP3    H261646   3.531   1.225  13.492  0.1340  0.8208 -1.4797
13411TIP3   OH261647   1.920   1.716   1.395  0.5816 -0.4257  0.0766
13411TIP3    H161648   1.873   1.633   1.391  0.1024 -0.1611  0.1713
13411TIP3    H261649   1.946   1.724   1.487 -2.0005  0.9495  0.7869
13412TIP3   OH261650   2.800   6.325   6.357 -0.4442 -0.2488 -0.8320
13412TIP3    H161651   2.821   6.262   6.425 -0.7291  1.2212  0.7029
13412TIP3    H261652   2.713   6.299   6.326 -0.9874 -0.0491  0.4831
13413TIP3   OH261653   0.136   4.989   3.207  0.5271  0.0699 -0.2797
13413TIP3    H161654   0.064   5.011   3.265  1.0088  1.8362 -0.2938
13413TIP3    H261655   0.094   4.953   3.129 -0.4149  1.4826 -0.4694
13414TIP3   OH261656   0.444   1.216   5.270 -0.1035  0.4635 -0.4336
13414TIP3    H161657   0.538   1.235   5.271 -0.2087  0.9732  0.5657
13414TIP3    H261658   0.437   1.127   5.306  0.0506  0.0857 -1.3031
13415TIP3   OH261659   4.246   0.049   2.629  0.3077  0.3202  0.5281
13415TIP3    H161660   4.236   0.082   2.539  0.5083  0.3066  0.5025
13415TIP3    H261661   4.196   0.111   2.682 -2.1558 -1.1664  0.1020
13416TIP3   OH261662   2.966   1.088   4.224  0.2783  0.3480  0.2343
13416TIP3    H161663   2.946   1.136   4.144  2.4404  0.5167 -0.2762
13416TIP3    H261664   2.942   0.997   4.205  1.7796  0.1887 -1.0369
13417TIP3   OH261665   6.201   2.518   4.961  0.0696 -0.0330  0.0752
13417TIP3    H161666   6.212   2.557   5.048  0.8475 -0.3262  0.1088
13417TIP3    H261667   6.274   2.457   4.952 -0.2405 -0.3103 -0.6213
13418TIP3   OH261668   3.021   5.781   5.674 -0.3292  0.3684 -0.2165
13418TIP3    H161669   3.097   5.769   5.731 -1.2385  0.1651  0.9778
13418TIP3    H261670   2.953   5.815   5.731 -1.1343  0.5920 -1.2847
13419TIP3   OH261671   4.454   3.641   2.363  0.5876 -0.0178  0.1165
13419TIP3    H161672   4.533   3.603   2.402  1.2749 -0.0107 -1.1933
13419TIP3    H261673   4.392   3.569   2.360  1.6237 -0.9054 -1.6685
13420TIP3   OH261674   4.582   2.130   0.852 -0.1411 -0.7980 -0.1544
13420TIP3    H161675   4.558   2.154   0.941 -0.0511 -1.4941  0.0650
13420TIP3    H261676   4.634   2.050   0.862  1.0763 -0.1054 -0.7299
13421TIP3   OH261677   6.604   1.420   3.528  0.0020  1.0456  0.1804
13421TIP3    H161678   6.558   1.396   3.447  0.6556 -0.6581  0.2649
13421TIP3    H261679   6.563   1.365   3.595  3.2817 -2.1064 -0.0575
13422TIP3   OH261680   5.562   6.110   0.622  0.7926 -0.2372 -0.5188
13422TIP3    H161681   5.598   6.129   0.536  1.8551 -2.1894 -0.5541
13422TIP3    H261682   5.499   6.039   0.607  0.9330 -0.5467  0.2928
13423TIP3   OH261683   0.576   1.249  12.926  0.0608  0.4326  0.3292
13423TIP3    H161684   0.596   1.172  12.873 -0.0147 -0.5577  1.6818
13423TIP3    H261685   0.661   1.284  12.951  0.1343 -0.4602  1.4196
13424TIP3   OH261686   6.563   5.693   6.388 -0.1284 -0.0389  0.4738
13424TIP3    H161687   6.579   5.633   6.316 -0.4500  0.9827 -0.4872
13424TIP3    H261688   6.639   5.684   6.445  0.8861  0.2174 -0.7872
13425TIP3   OH261689   0.145   2.696  13.050  0.0188  0.5482 -0.1799
13425TIP3    H161690   0.053   2.671  13.059  0.3141 -0.3449  0.5376
13425TIP3    H261691   0.163   2.692  12.956  0.0992 -2.2684 -0.1307
13426TIP3   OH261692   6.603   2.297   3.454 -0.0445 -0.3342 -0.3297
13426TIP3    H161693   6.548   2.251   3.390  0.5593 -0.0311 -1.0848
13426TIP3    H261694   6.665   2.347   3.401  1.4552 -1.2494  0.4901
13427TIP3   OH261695   4.044   5.342  11.948 -0.0204 -0.0703  0.4592
13427TIP3    H161696   4.008   5.431  11.951  2.1127  0.9130 -0.4685
13427TIP3    H261697   3.977   5.290  11.906 -1.2607  1.1331  0.8681
13428TIP3   OH261698   5.797   1.649   2.813  0.0628  0.6339  0.1871
13428TIP3    H161699   5.748   1.616   2.737 -1.0009  1.5651  0.4400
13428TIP3    H261700   5.731   1.694   2.866  0.7948  0.0537  1.6495
13429TIP3   OH261701   1.713   2.553   1.533 -0.2442 -0.0309 -0.4000
13429TIP3    H161702   1.783   2.585   1.476  0.2670 -1.2621 -0.4831
13429TIP3    H261703   1.633   2.585   1.491  0.2497  1.3994 -0.2947
13430TIP3   OH261704   3.737   1.326   0.188  0.0270  0.2455 -0.0253
13430TIP3    H161705   3.797   1.375   0.244 -0.1018  1.1633 -0.6478
13430TIP3    H261706   3.724   1.384   0.112 -0.8540 -0.3715 -0.3594
13431TIP3   OH261707   1.372   5.472   5.826  0.1565 -0.3707  0.2443
13431TIP3    H161708   1.377   5.451   5.733  0.1527 -0.2946  0.2265
13431TIP3    H261709   1.294   5.425   5.857  0.3515 -0.6653  0.2841
13432TIP3   OH261710   2.796   2.989   0.473 -0.2612 -0.6253 -0.5945
13432TIP3    H161711   2.816   2.965   0.563  0.1745  0.1013 -0.4981
13432TIP3    H261712   2.844   2.925   0.420 -0.4925 -1.0334 -0.3171
13433TIP3   OH261713   6.348   5.022  16.953  0.3214 -0.5541  0.1640
13433TIP3    H161714   6.347   5.092  16.888 -2.0413 -0.5806  0.1086
13433TIP3    H261715   6.430   4.975  16.936  0.3844  0.2227 -1.9198
13434TIP3   OH261716   4.318   4.430  12.507 -0.2748  0.4734 -0.5462
13434TIP3    H161717   4.280   4.452  12.592  0.4148  1.1840 -0.4143
13434TIP3    H261718   4.243   4.406  12.453 -0.5355 -2.6493  0.9947
13435TIP3   OH261719   2.463   0.315   3.193 -0.2227 -0.3146 -0.5916
13435TIP3    H161720   2.491   0.227   3.172  1.3383 -0.3022  1.1617
13435TIP3    H261721   2.513   0.372   3.134  0.6143 -0.5062 -0.0871
13436TIP3   OH261722   0.517   3.465  10.593 -0.4148 -0.3908  0.2732
13436TIP3    H161723   0.468   3.475  10.512  0.5098 -0.3279 -0.2907
13436TIP3    H261724   0.476   3.527  10.654  0.9574  2.0438 -1.1244
13437TIP3   OH261725   2.006   5.956  13.485 -0.1045  0.5263 -0.1135
13437TIP3    H161726   1.965   6.020  13.543 -0.3267  0.3184 -0.0431
13437TIP3    H261727   1.978   5.871  13.519 -2.1007  0.4032 -1.8480
13438TIP3   OH261728   1.656   1.420   5.707 -0.3497  0.2154 -0.1613
13438TIP3    H161729   1.657   1.438   5.801 -0.1355  0.9627 -0.2982
13438TIP3    H261730   1.639   1.326   5.700  2.0489 -0.3342  0.6919
13439TIP3   OH261731   5.170   4.056  12.264  0.6305 -0.0784  0.3303
13439TIP3    H161732   5.163   4.032  12.171  0.5950 -2.5934  0.9195
13439TIP3    H261733   5.229   4.132  12.264  0.0318  0.4690 -1.7861
13440TIP3   OH261734   3.079   2.423   5.777  0.3784 -0.3451 -0.1217
13440TIP3    H161735   3.033   2.432   5.860  1.9031  2.2899  0.5465
13440TIP3    H261736   3.152   2.484   5.783  1.1313 -0.8057 -3.0325
13441TIP3   OH261737   2.651   3.636  14.753 -0.5667  0.1296  0.8813
13441TIP3    H161738   2.740   3.604  14.738 -0.5114  0.2899  0.8658
13441TIP3    H261739   2.651   3.724  14.715 -0.9335 -0.1397  0.2400
13442TIP3   OH261740   3.150   4.016  14.882  0.1148  0.2037 -0.0666
13442TIP3    H161741   3.113   3.980  14.801 -0.3254 -1.0353  0.6486
13442TIP3    H261742   3.099   3.973  14.951 -0.5166  2.3382  0.8564
13443TIP3   OH261743   3.281   5.024   5.768 -0.2641 -0.0943 -0.3187
13443TIP3    H161744   3.286   5.108   5.815 -0.6956  0.4354 -1.1969
13443TIP3    H261745   3.302   4.958   5.835  0.9529  0.7595  0.1851
13444TIP3   OH261746   1.139   6.050  16.899 -0.1522  0.0164  0.1501
13444TIP3    H161747   1.126   6.103  16.821  1.9194  0.9957  0.4065
13444TIP3    H261748   1.088   6.095  16.967 -0.0740  0.4883 -0.1024
13445TIP3   OH261749   2.797   0.244  14.579  0.2291 -0.4983 -0.4898
13445TIP3    H161750   2.751   0.318  14.617  1.0202 -1.5486  2.8486
13445TIP3    H261751   2.728   0.189  14.541 -0.9183 -0.3255  1.2662
13446TIP3   OH261752   5.497   6.085   5.891  0.4847 -0.4129  0.1230
13446TIP3    H161753   5.467   6.127   5.972  1.0254  0.9031 -0.3312
13446TIP3    H261754   5.575   6.037   5.917 -0.5583 -1.8329  0.8051
13447TIP3   OH261755   0.982   4.078   5.150 -0.2097 -0.3508 -0.0363
13447TIP3    H161756   0.961   4.051   5.240  0.7444 -0.9897  0.0186
13447TIP3    H261757   1.077   4.088   5.150  0.1776 -2.9557 -1.5970
13448TIP3   OH261758   6.493   2.641   5.280  0.2862  0.5068  0.2887
13448TIP3    H161759   6.557   2.574   5.256  0.8220  0.1507  2.4812
13448TIP3    H261760   6.408   2.599   5.269  0.6365 -1.0466  2.7709
13449TIP3   OH261761   5.116   3.146  13.126 -0.1075 -0.5356 -0.2732
13449TIP3    H161762   5.142   3.187  13.043  0.7950  0.4873  0.4694
13449TIP3    H261763   5.170   3.067  13.132  2.0047  0.8639  0.6141
13450TIP3   OH261764   5.003   3.521   5.511 -0.1132  0.1427 -0.5778
13450TIP3    H161765   5.027   3.561   5.595 -0.9478 -0.7947  0.1345
13450TIP3    H261766   5.059   3.443   5.506  1.8136  1.5066 -2.1510
13451TIP3   OH261767   3.070   5.776  15.103  0.0292  0.7244 -0.0327
13451TIP3    H161768   2.989   5.739  15.070 -0.0997 -0.1991  1.2605
13451TIP3    H261769   3.140   5.731  15.055 -0.1805  0.4672 -0.0906
13452TIP3   OH261770   6.309   2.850   5.590 -0.2981 -0.3705 -0.2486
13452TIP3    H161771   6.229   2.835   5.540  0.0301  0.1669 -0.9456
13452TIP3    H261772   6.364   2.904   5.533  1.5098 -2.5651 -0.7371
13453TIP3   OH261773   4.294   2.688   1.764 -0.2198  0.2650 -0.3696
13453TIP3    H161774   4.379   2.660   1.730  0.0109  0.8560 -0.2771
13453TIP3    H261775   4.281   2.776   1.729 -0.8688  0.1190 -0.5160
13454TIP3   OH261776   4.882   5.854   4.831 -0.0044 -0.0844 -0.1533
13454TIP3    H161777   4.856   5.942   4.805  2.4542  1.0784  1.0058
13454TIP3    H261778   4.914   5.863   4.920  0.1547 -2.1983  0.0545
13455TIP3   OH261779   4.240   2.843   4.040  0.2052  0.2845  0.2066
13455TIP3    H161780   4.179   2.780   4.002 -1.3609  2.2263 -0.7234
13455TIP3    H261781   4.218   2.843   4.134  0.8190 -1.1115  0.3757
13456TIP3   OH261782   5.060   6.378   1.075 -0.3629  0.2988 -0.0032
13456TIP3    H161783   5.050   6.342   0.987  1.7976  0.5965 -0.4190
13456TIP3    H261784   5.053   6.302   1.133 -0.9842 -0.0099 -0.4664
13457TIP3   OH261785   5.139   4.329   4.254  0.4365  0.4211  0.4571
13457TIP3    H161786   5.084   4.250   4.254  1.0172 -0.0192 -1.0907
13457TIP3    H261787   5.185   4.326   4.338 -2.8705  1.5620  2.5133
13458TIP3   OH261788   2.959   2.564  16.462  0.0333 -0.2116 -0.5789
13458TIP3    H161789   3.033   2.503  16.454  0.2829 -0.0114  0.1561
13458TIP3    H261790   2.912   2.555  16.379  0.9457 -0.2559 -1.1037
13459TIP3   OH261791   2.536   0.036  14.161  0.2956  0.1845  0.2478
13459TIP3    H161792   2.630   0.047  14.176  0.5085 -1.4494  0.3404
13459TIP3    H261793   2.525   0.050  14.067  0.6654  0.2158  0.2064
13460TIP3   OH261794   4.379   2.575  13.171  0.7261  0.3349  0.6006
13460TIP3    H161795   4.447   2.557  13.106  0.2911 -1.1360  0.4965
13460TIP3    H261796   4.314   2.627  13.124  2.2661  2.7851  1.0263
13461TIP3   OH261797   5.478   1.690  15.411 -0.0255 -0.4157  0.3371
13461TIP3    H161798   5.485   1.773  15.364  1.5751 -0.5310  0.3321
13461TIP3    H261799   5.427   1.711  15.489 -1.5807  0.0602 -0.7463
13462TIP3   OH261800   0.586   0.726   3.018  0.6504  0.0275 -0.8647
13462TIP3    H161801   0.677   0.751   3.003  0.7429  0.2363 -0.0091
13462TIP3    H261802   0.570   0.747   3.110  0.0900 -1.0926 -0.6889
13463TIP3   OH261803   1.921   1.188  12.613 -0.0860  0.6411  0.2896
13463TIP3    H161804   1.965   1.260  12.570  1.1791 -0.5279 -0.4621
13463TIP3    H261805   1.960   1.185  12.701  1.2245 -0.2355 -0.2907
13464TIP3   OH261806   5.027   3.155   2.261  0.0367 -0.2026 -0.9889
13464TIP3    H161807   5.061   3.186   2.177  0.3587  1.9457 -0.1489
13464TIP3    H261808   5.098   3.102   2.297  1.1947  1.4048 -0.7707
13465TIP3   OH261809   3.794   3.712  15.301 -0.5563 -0.2239 -0.3743
13465TIP3    H161810   3.713   3.669  15.275 -0.0585 -1.8440  0.5823
13465TIP3    H261811   3.776   3.748  15.387  0.1995 -2.1561  0.6587
13466TIP3   OH261812   4.698   6.087  16.658 -0.1188  0.2682  0.1749
13466TIP3    H161813   4.703   5.995  16.683 -0.2909 -0.3544 -1.9076
13466TIP3    H261814   4.655   6.130  16.732  0.5309 -1.1929  1.4477
13467TIP3   OH261815   0.087   5.895  15.021  1.0840  0.5908  0.2240
13467TIP3    H161816   0.032   5.940  15.085 -0.0589 -0.8668  0.3082
13467TIP3    H261817   0.162   5.953  15.010  0.6320  1.5518  1.8228
13468TIP3   OH261818   3.918   2.716   0.528  0.2808 -0.2510  0.4475
13468TIP3    H161819   3.863   2.667   0.588  0.4971 -0.2308  0.6636
13468TIP3    H261820   3.961   2.782   0.583 -1.6994  1.6610 -0.1786
13469TIP3   OH261821   2.750   0.086   2.357 -0.2370 -0.1132  0.5218
13469TIP3    H161822   2.782   0.165   2.315 -1.0636 -1.0625 -2.0634
13469TIP3    H261823   2.811   0.071   2.430  0.3809  2.4195  0.6008
13470TIP3   OH261824   4.838   2.489   2.299  0.8279 -0.3454 -0.3392
13470TIP3    H161825   4.830   2.414   2.358 -1.7410  0.1442  0.0189
13470TIP3    H261826   4.895   2.551   2.345 -0.3112 -0.4013  1.1841
13471TIP3   OH261827   4.049   1.813   4.134  0.0919  0.7804  0.8341
13471TIP3    H161828   4.025   1.786   4.222 -0.2675 -2.3706 -0.0974
13471TIP3    H261829   4.003   1.896   4.121 -1.7712  0.1444  2.7856
13472TIP3   OH261830   6.676   3.111  16.882 -0.2870  0.4469  0.5963
13472TIP3    H161831   6.696   3.090  16.974 -0.1764  0.4841  0.5821
13472TIP3    H261832   6.612   3.045  16.857  1.6793 -1.3127 -0.1099
13473TIP3   OH261833   1.906   6.441   1.025  0.5665  0.2629  0.8140
13473TIP3    H161834   1.825   6.448   0.975  0.6540 -0.3849  0.5660
13473TIP3    H261835   1.878   6.421   1.114  0.4595 -1.6179  0.4123
13474TIP3   OH261836   6.421   4.724  15.615  0.0948 -0.1675  0.3693
13474TIP3    H161837   6.445   4.766  15.697 -0.0495 -0.3283  0.4953
13474TIP3    H261838   6.499   4.731  15.560 -0.0706  0.6390  0.2316
13475TIP3   OH261839   5.928   5.439   3.863 -0.1115  0.0690  0.2299
13475TIP3    H161840   5.984   5.378   3.911 -0.2378 -1.1775 -1.1664
13475TIP3    H261841   5.984   5.514   3.845 -0.2826  0.9972  3.0138
13476TIP3   OH261842   5.775   4.682  16.780 -0.4663  0.3648 -0.2537
13476TIP3    H161843   5.790   4.591  16.805  1.4317  0.5857 -0.4351
13476TIP3    H261844   5.744   4.725  16.859  1.8834  0.2526  0.8096
13477TIP3   OH261845   0.273   0.882  11.625 -0.4940 -0.3996 -0.8431
13477TIP3    H161846   0.333   0.945  11.666  1.9152 -1.2586 -2.7825
13477TIP3    H261847   0.246   0.824  11.696  2.8739 -1.3566 -0.1798
13478TIP3   OH261848   5.940   4.867  14.304  0.5776 -0.3660 -0.4674
13478TIP3    H161849   5.961   4.905  14.390 -0.2770 -2.3470  0.6833
13478TIP3    H261850   5.996   4.790  14.297 -0.0622 -0.7784 -1.2318
13479TIP3   OH261851   6.131   6.659   5.832  0.2738  0.0407  0.4732
13479TIP3    H161852   6.094   6.655   5.921 -2.1298 -1.2889 -0.5148
13479TIP3    H261853   6.074   6.720   5.785  1.3245  0.4752 -0.2748
13480TIP3   OH261854   5.792   1.332  16.366  0.9002  0.1498  0.3505
13480TIP3    H161855   5.753   1.306  16.450 -2.1510  0.4135 -0.8503
13480TIP3    H261856   5.803   1.427  16.373  0.7813  0.1524  0.5112
13481TIP3   OH261857   4.719   1.701   1.575 -0.0449 -0.0749  0.3162
13481TIP3    H161858   4.702   1.742   1.491  1.5488 -0.2924 -0.1502
13481TIP3    H261859   4.720   1.607   1.556  2.0227 -0.0699  0.1831
13482TIP3   OH261860   1.910   2.882  11.750 -0.1212  0.3292 -0.3299
13482TIP3    H161861   1.831   2.872  11.697 -0.9587 -2.5571  1.2403
13482TIP3    H261862   1.884   2.939  11.822 -0.0119  1.3830 -1.1063
13483TIP3   OH261863   6.543   1.268   0.658 -0.1015 -0.5856 -0.0293
13483TIP3    H161864   6.528   1.336   0.592  1.1366  0.9387  1.1777
13483TIP3    H261865   6.473   1.205   0.643 -2.1149  1.5728 -0.4346
13484TIP3   OH261866   2.961   1.962  15.116  0.2726  0.7004 -0.0461
13484TIP3    H161867   2.953   1.871  15.089 -1.4776  1.0532 -0.8677
13484TIP3    H261868   3.031   1.997  15.061  0.9327 -0.1318  0.2545
13485TIP3   OH261869   3.558   0.897   4.369 -0.0305  0.4273 -0.3333
13485TIP3    H161870   3.490   0.830   4.371  0.8541 -0.5020 -0.4721
13485TIP3    H261871   3.522   0.969   4.421 -1.7555  0.6161 -1.7276
13486TIP3   OH261872   6.697   0.383  13.121 -0.2283 -0.2499 -0.4821
13486TIP3    H161873   6.627   0.333  13.080 -0.1775 -0.1279 -0.7188
13486TIP3    H261874   6.660   0.413  13.204 -0.7818  0.6320 -1.0408
13487TIP3   OH261875   1.334   6.536  12.803 -0.1309 -0.3683 -0.8139
13487TIP3    H161876   1.239   6.527  12.809 -0.2228  1.1523  0.6782
13487TIP3    H261877   1.348   6.606  12.739 -0.2248  1.7923  1.3809
13488TIP3   OH261878   5.840   3.040   4.909  0.1168 -0.7293  0.1786
13488TIP3    H161879   5.918   2.985   4.914  0.0961 -0.7667  0.0946
13488TIP3    H261880   5.778   2.989   4.856 -0.0207 -0.7699  0.3727
13489TIP3   OH261881   1.085   4.372  13.808  0.3718  0.3592  0.3101
13489TIP3    H161882   1.124   4.393  13.724  1.5156  2.7522  1.3491
13489TIP3    H261883   1.120   4.286  13.830  0.0482 -0.3130 -1.5979
13490TIP3   OH261884   3.431   3.769   4.972  0.2545 -0.2634 -0.4156
13490TIP3    H161885   3.489   3.840   4.945  0.9401  0.1507  1.9471
13490TIP3    H261886   3.366   3.764   4.902  1.7415  0.8661 -1.9649
13491TIP3   OH261887   1.603   5.046   4.962 -0.0914 -0.2443 -0.5278
13491TIP3    H161888   1.679   5.037   4.904  1.1734 -1.1735  1.1602
13491TIP3    H261889   1.527   5.043   4.904  1.0756 -1.6770 -2.0753
13492TIP3   OH261890   1.888   0.450   5.052  0.2002 -0.5828 -0.0355
13492TIP3    H161891   1.862   0.365   5.088  0.6807 -1.0077 -0.6686
13492TIP3    H261892   1.911   0.431   4.961 -0.0747  0.3036 -0.2965
13493TIP3   OH261893   4.143   2.910  17.150  0.4615  0.0981 -0.5771
13493TIP3    H161894   4.092   2.858  17.212 -0.1168 -0.9721 -1.8882
13493TIP3    H261895   4.212   2.851  17.120  0.6897  0.5735 -1.0101
13494TIP3   OH261896   1.609   0.195   4.054  0.0039 -0.2816 -0.0002
13494TIP3    H161897   1.552   0.269   4.074  0.5900  0.5223 -1.1856
13494TIP3    H261898   1.682   0.204   4.115  2.1362  2.5521 -2.6632
13495TIP3   OH261899   3.736   4.428  11.202 -0.7434 -0.0563  0.6765
13495TIP3    H161900   3.698   4.497  11.148 -0.7777  0.3615  1.2277
13495TIP3    H261901   3.779   4.474  11.274 -0.8152 -0.6090  1.0820
13496TIP3   OH261902   4.552   2.782  11.714  0.3921  0.2766 -0.1747
13496TIP3    H161903   4.543   2.873  11.743 -1.4661  0.7488 -1.9508
13496TIP3    H261904   4.549   2.787  11.618 -2.7571 -1.7974 -0.3497
13497TIP3   OH261905   1.762   4.140   1.125  0.2164  0.0840  0.5640
13497TIP3    H161906   1.695   4.116   1.189  1.6724 -0.5525  1.9105
13497TIP3    H261907   1.757   4.072   1.058  0.8507 -1.1462  1.7137
13498TIP3   OH261908   2.658   2.115   2.108  0.3739 -0.5391  0.1526
13498TIP3    H161909   2.603   2.067   2.046 -1.0243  1.3762 -0.1942
13498TIP3    H261910   2.690   2.048   2.168  0.3425 -2.2019 -1.5675
13499TIP3   OH261911   2.043   0.845  17.407  0.0672  0.4379 -0.2590
13499TIP3    H161912   2.106   0.774  17.405  0.6311  0.9309 -0.5355
13499TIP3    H261913   2.093   0.921  17.435 -0.6492  0.6138  0.5763
13500TIP3   OH261914   5.349   2.357   2.024 -0.4796  0.7542 -0.3269
13500TIP3    H161915   5.436   2.388   2.049 -0.3803  0.2795 -0.0518
13500TIP3    H261916   5.350   2.264   2.048 -0.5077  0.3559 -1.7683
13501TIP3   OH261917   1.793   4.509   2.748 -0.4364 -0.6109 -0.1102
13501TIP3    H161918   1.826   4.542   2.832  0.6011 -1.4956 -0.1586
13501TIP3    H261919   1.841   4.559   2.683 -1.4321  0.2649 -0.2065
13502TIP3   OH261920   6.612   3.876   1.642 -0.0438 -0.1507 -0.6087
13502TIP3    H161921   6.595   3.846   1.553 -2.5995 -1.3816  0.1837
13502TIP3    H261922   6.563   3.958   1.649  1.0834  0.5466 -0.6338
13503TIP3   OH261923   5.558   5.357   0.134  0.0833 -0.4229  0.0576
13503TIP3    H161924   5.523   5.446   0.142  1.1096 -0.1383  2.3688
13503TIP3    H261925   5.481   5.301   0.131 -0.5795  0.5150 -1.3987
13504TIP3   OH261926   3.415   3.694  14.257 -0.6128 -0.1753  0.1368
13504TIP3    H161927   3.332   3.693  14.305  0.2203 -0.4518  1.6593
13504TIP3    H261928   3.473   3.747  14.312  0.7159 -1.4419  0.0169
13505TIP3   OH261929   3.485   2.401  14.616  0.2469 -0.4344  0.0961
13505TIP3    H161930   3.472   2.379  14.523  1.6954  0.6627 -0.3937
13505TIP3    H261931   3.556   2.465  14.616 -0.3485  0.2871  1.8981
13506TIP3   OH261932   6.238   0.961   0.148 -0.6371  0.2393  0.3772
13506TIP3    H161933   6.243   0.919   0.063 -1.6465  0.7253  0.0649
13506TIP3    H261934   6.329   0.974   0.174 -0.3232 -0.2241 -0.4622
13507TIP3   OH261935   0.689   0.328   3.000  0.4397  0.4421  0.5654
13507TIP3    H161936   0.738   0.385   3.060  1.2992  1.7333 -1.2532
13507TIP3    H261937   0.598   0.352   3.015  0.6066  0.5461  1.5257
13508TIP3   OH261938   1.739   2.157   2.690 -0.1183 -0.0495  0.1172
13508TIP3    H161939   1.690   2.207   2.624 -1.2498  1.1361  1.7877
13508TIP3    H261940   1.792   2.223   2.736  0.5709 -0.8414  0.4846
13509TIP3   OH261941   5.665   3.450   4.674 -0.2423  0.3905  0.0692
13509TIP3    H161942   5.576   3.457   4.639  0.1637 -0.8141 -1.3207
13509TIP3    H261943   5.713   3.521   4.632  0.1407 -0.7975 -1.5912
13510TIP3   OH261944   0.452   3.686   4.965 -0.0433 -0.1188 -0.1234
13510TIP3    H161945   0.462   3.611   5.023  0.8317 -0.2449 -0.4113
13510TIP3    H261946   0.533   3.687   4.913 -0.6659  0.1699 -1.1242
13511TIP3   OH261947   1.037   0.296   3.305 -0.6363  0.7881 -0.3342
13511TIP3    H161948   1.068   0.205   3.313 -0.6248  0.9577  1.9917
13511TIP3    H261949   1.117   0.348   3.304 -0.6749  0.8465 -0.8161
13512TIP3   OH261950   3.654   2.142   4.398  0.4322  0.0822 -0.4171
13512TIP3    H161951   3.648   2.215   4.460  0.9103 -0.0404 -0.2164
13512TIP3    H261952   3.730   2.092   4.429  0.2448 -0.3683 -0.6922
13513TIP3   OH261953   5.687   4.268  16.446 -0.3729 -0.3809  0.4727
13513TIP3    H161954   5.609   4.296  16.399  0.0484 -1.1095 -0.7096
13513TIP3    H261955   5.654   4.225  16.525 -1.2271 -1.6681 -0.5524
13514TIP3   OH261956   3.576   1.884   3.330  0.1684  0.4809 -0.4717
13514TIP3    H161957   3.551   1.976   3.333  2.6587  1.2648 -1.2625
13514TIP3    H261958   3.606   1.864   3.418  2.4159  1.3576 -0.9795
13515TIP3   OH261959   2.314   5.489   1.257 -0.0247 -0.7566  0.2300
13515TIP3    H161960   2.221   5.467   1.246 -0.8515  2.6211 -0.6436
13515TIP3    H261961   2.341   5.520   1.171  1.7469 -0.9584  0.6866
13516TIP3   OH261962   1.692   5.692   0.033 -0.5106  0.0852  0.0807
13516TIP3    H161963   1.760   5.642   0.077 -0.2650  0.6200  0.3151
13516TIP3    H261964   1.612   5.641   0.046 -0.1843 -0.4643 -0.0614
13517TIP3   OH261965   1.765   6.046  12.225 -0.2244  0.4576  0.3303
13517TIP3    H161966   1.701   6.118  12.230  0.8145  1.4452 -0.1949
13517TIP3    H261967   1.792   6.045  12.133  1.8788  1.2957  0.8950
13518TIP3   OH261968   5.308   4.887   0.243  0.2064 -0.4455 -0.2411
13518TIP3    H161969   5.348   4.914   0.160  0.3323 -2.3293 -0.8457
13518TIP3    H261970   5.257   4.963   0.271  0.9338  0.5669 -1.5529
13519TIP3   OH261971   0.090   5.270  13.252  0.5437  0.2170 -0.5813
13519TIP3    H161972   0.007   5.223  13.258  0.4455  0.5261  1.2504
13519TIP3    H261973   0.148   5.210  13.205 -0.3807 -0.5131 -0.8268
13520TIP3   OH261974   2.700   3.802  13.268 -1.1150  0.3940  0.0967
13520TIP3    H161975   2.714   3.711  13.243 -0.9744  0.1328  1.0798
13520TIP3    H261976   2.757   3.853  13.211 -1.4769 -0.0991 -0.7126
13521TIP3   OH261977   2.179   5.348   0.872  0.1239  0.1297 -0.2928
13521TIP3    H161978   2.110   5.298   0.829 -0.1781 -0.9680  1.3737
13521TIP3    H261979   2.228   5.283   0.922 -0.4000  1.4698  2.1295
13522TIP3   OH261980   1.320   3.058  10.946 -0.1014  0.2720  0.0588
13522TIP3    H161981   1.415   3.042  10.948  0.0942  1.2966  2.3767
13522TIP3    H261982   1.299   3.064  10.853  1.9162 -0.9606 -0.5525
13523TIP3   OH261983   4.649   2.248   0.089 -0.5828  0.2390 -0.3408
13523TIP3    H161984   4.579   2.205   0.137 -0.0366  1.7822  2.0453
13523TIP3    H261985   4.605   2.292   0.016 -1.7599 -0.5348 -0.1237
13524TIP3   OH261986   4.805   2.474   5.801  0.2369 -0.2717  0.0517
13524TIP3    H161987   4.875   2.477   5.735  0.9082 -0.8492  0.7215
13524TIP3    H261988   4.808   2.385   5.835 -1.6030 -0.6784 -0.7048
13525TIP3   OH261989   2.945   1.066   2.696 -0.0677  0.8630  0.7315
13525TIP3    H161990   2.933   1.094   2.605 -0.6264  0.6773  0.7422
13525TIP3    H261991   2.856   1.048   2.727  0.0805  1.3470  1.4566
13526TIP3   OH261992   2.365   3.234   4.776 -0.0263 -0.0273 -0.6755
13526TIP3    H161993   2.365   3.198   4.687  1.2328  0.3246 -0.8339
13526TIP3    H261994   2.385   3.159   4.832  1.2808  0.1477 -0.8890
13527TIP3   OH261995   4.828   2.213  15.993  0.0354  0.6063 -0.1202
13527TIP3    H161996   4.777   2.148  16.042  0.6476  0.5105  0.3950
13527TIP3    H261997   4.888   2.161  15.940  1.2322  0.7441  1.0504
13528TIP3   OH261998   6.640   1.110  13.740 -0.5839 -0.2952  0.0875
13528TIP3    H161999   6.720   1.129  13.692 -1.1005 -1.1114 -1.1533
13528TIP3    H262000   6.670   1.080  13.826  0.4165 -0.1779 -0.2071
13529TIP3   OH262001   6.241   2.948   1.595  0.2590 -0.2670  0.3728
13529TIP3    H162002   6.190   2.938   1.676  0.1427  0.0482  0.3412
13529TIP3    H262003   6.202   2.886   1.534  1.1883 -1.4852  0.9546
13530TIP3   OH262004   3.776   0.842   3.083  0.5093  0.2953 -0.1878
13530TIP3    H162005   3.822   0.838   3.000 -0.0440 -0.8682 -0.4705
13530TIP3    H262006   3.724   0.761   3.085 -0.1115  0.6998  0.9183
13531TIP3   OH262007   4.491   3.616   2.803  0.0836 -0.3177 -0.5289
13531TIP3    H162008   4.527   3.701   2.827  0.2507  0.2058 -2.4331
13531TIP3    H262009   4.565   3.569   2.764 -0.4888 -0.5229 -1.3959
13532TIP3   OH262010   6.667   4.308  15.337  0.2743  0.4134  0.0900
13532TIP3    H162011   6.739   4.254  15.304 -0.3577 -0.2736 -0.1920
13532TIP3    H262012   6.710   4.378  15.386  1.0985 -0.5430  0.7533
13533TIP3   OH262013   4.415   6.669  12.549 -0.0780 -0.4972  0.0049
13533TIP3    H162014   4.509   6.685  12.539 -0.2755  0.2816 -0.7638
13533TIP3    H262015   4.388   6.729  12.618 -0.2732  0.4197 -0.8360
13534TIP3   OH262016   4.032   5.541   1.450  0.0141  0.0985  0.0501
13534TIP3    H162017   4.079   5.603   1.506  1.7376  0.3814 -1.5786
13534TIP3    H262018   3.953   5.587   1.423 -0.0133  0.5794  0.9295
13535TIP3   OH262019   6.684   1.406  17.284  0.2270  0.3562  0.1650
13535TIP3    H162020   6.776   1.382  17.269  0.0112 -0.2956 -0.1779
13535TIP3    H262021   6.659   1.456  17.207  0.4645  1.0587  0.5371
13536TIP3   OH262022   2.655   4.575  16.925 -0.4488  0.1125  0.0991
13536TIP3    H162023   2.734   4.600  16.972  0.2795 -0.0830 -0.9774
13536TIP3    H262024   2.629   4.654  16.878 -1.4569  0.4520  1.1786
13537TIP3   OH262025   0.957   6.245   0.732  0.2463  0.1270  1.1470
13537TIP3    H162026   0.955   6.158   0.694  1.0005  0.1522  1.0287
13537TIP3    H262027   0.869   6.258   0.768 -0.0016 -0.5029  0.7801
13538TIP3   OH262028   1.424   0.052   5.165 -0.0288  0.1213  0.5150
13538TIP3    H162029   1.331   0.071   5.160  0.1320  0.7987  0.0087
13538TIP3    H262030   1.450   0.081   5.252 -0.5952 -1.5353  1.2847
13539TIP3   OH262031   2.772   0.334  17.192 -0.1940  0.3383 -0.3009
13539TIP3    H162032   2.784   0.362  17.102  0.9519 -2.0681 -0.9643
13539TIP3    H262033   2.687   0.289  17.192 -1.7598  3.0564  0.6342
13540TIP3   OH262034   6.604   4.952   5.346  0.3900  0.0213 -0.2078
13540TIP3    H162035   6.661   4.962   5.270  0.7291  1.8784  0.2298
13540TIP3    H262036   6.572   5.041   5.364 -0.8750 -0.6156  0.9149
13541TIP3   OH262037   3.082   6.297   5.428 -0.1050  0.2337  0.3103
13541TIP3    H162038   3.154   6.314   5.367  0.1182 -0.5480  0.3456
13541TIP3    H262039   3.042   6.216   5.397 -1.6735  1.2185 -0.3519
13542TIP3   OH262040   0.981   4.629  13.921  0.4808  0.0436  0.3563
13542TIP3    H162041   0.986   4.549  13.869 -1.4508  0.7859 -1.0903
13542TIP3    H262042   0.904   4.618  13.976 -0.6635  1.4166 -0.8785
13543TIP3   OH262043   5.424   0.708  14.994 -0.3633 -0.3304  0.4016
13543TIP3    H162044   5.330   0.718  14.979 -0.1279 -1.0058 -2.0342
13543TIP3    H262045   5.433   0.701  15.089 -2.6637  0.6051  0.7452
13544TIP3   OH262046   5.245   2.947   5.604 -0.0923 -0.4401 -0.3298
13544TIP3    H162047   5.227   3.016   5.667 -1.7941 -2.3190  1.3827
13544TIP3    H262048   5.302   2.886   5.650  0.1107 -0.9694 -1.2513
13545TIP3   OH262049   5.852   1.260   4.756 -0.0799 -0.2042 -0.0641
13545TIP3    H162050   5.878   1.208   4.832  1.5425  1.4236  0.5771
13545TIP3    H262051   5.922   1.244   4.692 -1.8955 -2.2944 -1.6620
13546TIP3   OH262052   1.825   4.380  16.412 -0.3786 -0.0873 -0.7511
13546TIP3    H162053   1.855   4.339  16.331  0.0374 -0.5113 -0.3814
13546TIP3    H262054   1.733   4.402  16.394 -0.3218 -0.2773 -1.2974
13547TIP3   OH262055   0.606   3.241   0.745  0.0902  0.0070 -0.0448
13547TIP3    H162056   0.685   3.189   0.731  1.0132  1.1711  0.6303
13547TIP3    H262057   0.567   3.204   0.825  0.4959  0.0631  0.1815
13548TIP3   OH262058   5.511   1.488   1.279  0.2705  0.6570 -0.2966
13548TIP3    H162059   5.461   1.407   1.291 -2.0139  1.6272 -2.3161
13548TIP3    H262060   5.596   1.458   1.247 -0.5708 -0.9868 -1.1851
13549TIP3   OH262061   2.721   3.702   0.863  0.2846  0.2390 -0.3096
13549TIP3    H162062   2.728   3.622   0.916  0.3970  0.3027 -0.2259
13549TIP3    H262063   2.804   3.705   0.815  0.7571  0.8790  0.5083
13550TIP3   OH262064   4.279   0.043  12.330  0.5501  0.4593  0.2541
13550TIP3    H162065   4.191   0.025  12.365  0.4050 -0.4491 -0.5235
13550TIP3    H262066   4.337  -0.008  12.387  0.3909 -0.3696 -0.3037
13551TIP3   OH262067   4.408   4.140   2.577 -0.1669 -0.0718 -0.5013
13551TIP3    H162068   4.317   4.111   2.574 -0.0598 -0.3547 -2.5975
13551TIP3    H262069   4.433   4.149   2.485  1.2693  2.0758  0.0266
13552TIP3   OH262070   1.372   5.994   4.498  0.6490  0.3581  0.3729
13552TIP3    H162071   1.330   5.915   4.531  0.6776  1.3126  2.9362
13552TIP3    H262072   1.461   5.966   4.475  0.6362 -0.3920  1.1768
13553TIP3   OH262073   3.663   4.056   3.672 -0.2880 -0.2655 -0.0938
13553TIP3    H162074   3.754   4.049   3.643 -0.7179 -1.0198 -1.3388
13553TIP3    H262075   3.630   3.967   3.669 -1.8102  0.2827 -2.2767
13554TIP3   OH262076   1.059   0.280  15.632 -0.2468  0.4183  0.4743
13554TIP3    H162077   1.063   0.360  15.579  0.6275  0.1380  0.1008
13554TIP3    H262078   1.074   0.209  15.569  1.3224  0.1167  1.1636
13555TIP3   OH262079   5.842   2.694  14.082  0.0799 -0.5878 -0.6342
13555TIP3    H162080   5.931   2.727  14.074 -0.2674  0.0511 -2.2703
13555TIP3    H262081   5.787   2.767  14.052 -0.9773 -1.1137 -0.0377
13556TIP3   OH262082   4.020   4.761  11.540 -0.2361 -0.3893  0.0592
13556TIP3    H162083   3.963   4.794  11.610 -1.8209 -0.7302 -1.0214
13556TIP3    H262084   4.008   4.823  11.468  1.5425  0.0781  0.1170
13557TIP3   OH262085   5.140   6.605  11.371 -0.0012 -0.5804 -0.8823
13557TIP3    H162086   5.223   6.651  11.358  0.5548 -1.5568 -0.8207
13557TIP3    H262087   5.155   6.518  11.336 -1.5851 -0.2258 -2.5474
13558TIP3   OH262088   5.298   0.937   1.192 -0.3552  0.5098  0.1069
13558TIP3    H162089   5.241   0.996   1.144  0.0296  0.3383 -0.5792
13558TIP3    H262090   5.294   0.854   1.143 -0.6094  0.0748  0.8501
13559TIP3   OH262091   3.046   5.667  13.047 -0.6100  0.1334  0.7152
13559TIP3    H162092   3.013   5.748  13.085  0.2923  0.1617  1.4701
13559TIP3    H262093   3.050   5.684  12.953  3.7530  2.6381  1.0956
13560TIP3   OH262094   6.544   5.666   5.033  0.8350 -0.6422 -0.0685
13560TIP3    H162095   6.466   5.616   5.058  0.7880 -1.2251 -1.3030
13560TIP3    H262096   6.600   5.662   5.111 -0.1241 -0.6839  0.6410
13561TIP3   OH262097   2.916   4.296   0.067  0.2619 -0.3950  0.4511
13561TIP3    H162098   2.849   4.279   0.133  0.5335 -0.0944  0.8041
13561TIP3    H262099   2.984   4.231   0.085  1.2896  0.9794  1.7846
13562TIP3   OH262100   6.051   5.639  15.185  0.0147  0.0451  0.1848
13562TIP3    H162101   5.980   5.649  15.248 -0.9110  0.1708 -0.8639
13562TIP3    H262102   6.068   5.545  15.182 -0.4875 -0.0394  0.0167
13563TIP3   OH262103   4.291   4.998   1.458 -0.3132  0.2149 -0.1484
13563TIP3    H162104   4.275   5.066   1.525 -0.6882  1.8308 -1.8004
13563TIP3    H262105   4.220   4.936   1.470  0.6301 -0.5439  2.1106
13564TIP3   OH262106   1.434   6.519  16.897  0.1186 -0.6976  0.5556
13564TIP3    H162107   1.441   6.444  16.838  0.1442  0.1830 -0.5831
13564TIP3    H262108   1.525   6.546  16.913  0.0758  0.8481 -1.3860
13565TIP3   OH262109   1.833   3.589  16.413 -0.1292  0.0982 -0.2961
13565TIP3    H162110   1.806   3.515  16.467  0.1995 -0.2805 -0.6452
13565TIP3    H262111   1.867   3.653  16.476 -1.2343  0.3214  0.0855
13566TIP3   OH262112   4.188   1.130   5.281  0.3178  0.5982  0.1456
13566TIP3    H162113   4.141   1.141   5.199 -1.2675  1.3768  1.1171
13566TIP3    H262114   4.131   1.076   5.335 -0.4496  3.0836  2.0169
13567TIP3   OH262115   1.276   6.171   3.482  0.9484  0.2327 -0.0856
13567TIP3    H162116   1.258   6.080   3.502  0.3105  0.0807 -1.2784
13567TIP3    H262117   1.190   6.212   3.475  1.2129  0.7868 -0.1801
13568TIP3   OH262118   1.528   6.169  16.393  0.1449  0.0723  0.4112
13568TIP3    H162119   1.463   6.236  16.414 -1.8504 -2.0416  1.4055
13568TIP3    H262120   1.519   6.104  16.463  2.0594 -1.2205 -0.4464
13569TIP3   OH262121   4.125   4.385   5.798  0.1630  0.0730 -0.0170
13569TIP3    H162122   4.102   4.426   5.715 -0.2837 -0.1783 -0.0196
13569TIP3    H262123   4.196   4.439   5.832  2.0771 -1.2530 -1.7097
13570TIP3   OH262124   0.409   3.525   0.869  0.4319  0.8109  0.0777
13570TIP3    H162125   0.372   3.549   0.955  0.5051  0.8618  0.0950
13570TIP3    H262126   0.456   3.603   0.841  0.2392  0.8639 -0.1019
13571TIP3   OH262127   3.442   0.762  14.319  0.3709  0.1199 -0.2070
13571TIP3    H162128   3.509   0.694  14.331  0.3346  0.1402  0.1137
13571TIP3    H262129   3.461   0.826  14.388 -1.8616 -1.3613  1.9639
13572TIP3   OH262130   3.550   5.886   6.565 -0.2037  0.2096  0.1816
13572TIP3    H162131   3.612   5.944   6.521 -0.5346 -0.3384 -1.0281
13572TIP3    H262132   3.464   5.915   6.534 -0.4677  0.0066  0.7045
13573TIP3   OH262133   2.716   0.547  10.640 -0.4552  0.0115  0.4125
13573TIP3    H162134   2.637   0.498  10.617  0.2594 -0.2074 -1.8138
13573TIP3    H262135   2.786   0.502  10.594  0.9780  0.3319  2.1826
13574TIP3   OH262136   0.080   5.294  12.565  0.4249 -0.7665 -0.1963
13574TIP3    H162137  -0.006   5.269  12.532  0.3267 -1.1610  0.3492
13574TIP3    H262138   0.062   5.367  12.624  0.2485 -1.9538  1.2645
13575TIP3   OH262139   6.513   1.882   2.706 -0.2849  0.2051  0.2037
13575TIP3    H162140   6.539   1.835   2.628 -1.6777 -1.0161  0.4217
13575TIP3    H262141   6.594   1.894   2.756  0.7433  1.6113 -1.6812
13576TIP3   OH262142   4.506   4.632  12.503  0.1413 -0.1525 -0.3517
13576TIP3    H162143   4.457   4.550  12.516 -0.1820  0.0502 -0.2708
13576TIP3    H262144   4.438   4.697  12.483  0.0121  0.8110  2.6950
13577TIP3   OH262145   4.548   2.333   1.594  0.2834  0.0718 -0.2094
13577TIP3    H162146   4.482   2.335   1.663  1.8561  1.2543  1.3846
13577TIP3    H262147   4.566   2.426   1.576 -0.8246 -0.1681 -3.0519
13578TIP3   OH262148   3.415   3.223  15.967  0.9371 -0.0590 -0.3821
13578TIP3    H162149   3.482   3.168  15.927  0.8166  0.7080 -1.6780
13578TIP3    H262150   3.349   3.162  15.999  1.9457 -0.7884  0.3900
13579TIP3   OH262151   3.389   3.669   5.399  0.7916  0.3603 -0.1691
13579TIP3    H162152   3.381   3.577   5.373  1.3148  0.7456 -1.8192
13579TIP3    H262153   3.301   3.693   5.427  0.7257 -0.7225  0.6484
13580TIP3   OH262154   1.471   1.556  12.061 -0.4087  0.4845  0.4860
13580TIP3    H162155   1.449   1.502  12.138 -1.5230  0.7790  0.3913
13580TIP3    H262156   1.387   1.576  12.021  0.2101 -0.5533 -1.4521
13581TIP3   OH262157   5.559   1.115   1.919  0.2789 -0.2001  0.1222
13581TIP3    H162158   5.630   1.062   1.953 -0.1135 -1.5881 -1.1206
13581TIP3    H262159   5.579   1.127   1.826  0.4817  2.0908  0.3900
13582TIP3   OH262160   5.847   0.748   2.994  0.0147 -0.0207 -0.1546
13582TIP3    H162161   5.810   0.725   3.080  0.3402 -0.5141 -0.1441
13582TIP3    H262162   5.904   0.822   3.011  0.4261 -0.3974  0.1391
13583TIP3   OH262163   3.144   3.868  16.384 -0.3075 -0.2562  0.2798
13583TIP3    H162164   3.146   3.772  16.384  0.4322 -0.2582 -0.4757
13583TIP3    H262165   3.052   3.890  16.400 -0.1095 -1.0289  2.8351
13584TIP3   OH262166   1.927   3.776  16.634 -0.1635  0.1159 -0.4155
13584TIP3    H162167   2.011   3.760  16.677 -0.4476 -1.2495 -0.3253
13584TIP3    H262168   1.887   3.846  16.685 -0.6059 -1.6259  1.7472
13585TIP3   OH262169   4.911   6.537  13.924 -0.3780  0.1069 -0.3682
13585TIP3    H162170   4.896   6.472  13.992 -0.2917 -1.6562 -1.9471
13585TIP3    H262171   4.849   6.608  13.943 -0.7212 -0.5904  1.2047
13586TIP3   OH262172   5.937   3.880   3.236 -0.1155 -0.5541 -0.1156
13586TIP3    H162173   5.929   3.834   3.152  0.2406 -0.5946 -0.1302
13586TIP3    H262174   6.015   3.842   3.276 -1.5624 -2.1824  1.2774
13587TIP3   OH262175   2.056   5.191  14.699  0.0104  0.0047 -0.2317
13587TIP3    H162176   1.968   5.224  14.713  0.7625  1.6905  0.7944
13587TIP3    H262177   2.049   5.097  14.714 -1.0352  0.4933  3.0028
13588TIP3   OH262178   4.925   0.771  11.677 -0.6768  0.0909 -0.0208
13588TIP3    H162179   4.906   0.845  11.735 -3.2924  0.4880 -1.2285
13588TIP3    H262180   4.857   0.707  11.696 -0.1395 -0.7954 -0.9723
13589TIP3   OH262181   5.430   1.972  12.053  0.3206 -1.0493 -0.4029
13589TIP3    H162182   5.469   1.887  12.071 -0.0940 -1.0636  0.4444
13589TIP3    H262183   5.505   2.031  12.043  0.5867 -1.3046  0.0584
13590TIP3   OH262184   1.292   3.806  15.353  0.0731  0.3243 -0.3989
13590TIP3    H162185   1.203   3.831  15.377  0.3506 -0.2373  1.4522
13590TIP3    H262186   1.305   3.841  15.265 -2.8535 -1.7447 -1.8266
13591TIP3   OH262187   2.216   3.798  15.417 -0.4288 -0.2324 -0.0164
13591TIP3    H162188   2.289   3.857  15.433 -0.1778 -0.1041 -1.5216
13591TIP3    H262189   2.153   3.851  15.368 -1.4331 -0.4164  1.0298
13592TIP3   OH262190   2.840   4.496   5.940  0.8007  0.2898 -0.5425
13592TIP3    H162191   2.883   4.420   5.979  0.4551  0.7641  0.8336
13592TIP3    H262192   2.764   4.460   5.895  0.1384 -0.1299  0.8493
13593TIP3   OH262193   0.661   3.553   2.091  0.2203 -0.0369 -0.1058
13593TIP3    H162194   0.625   3.612   2.025 -1.6614 -1.0785 -0.0777
13593TIP3    H262195   0.729   3.505   2.046  0.5352  0.8829 -0.6296
13594TIP3   OH262196   1.807   3.045   2.314  0.0431 -0.9172  0.2214
13594TIP3    H162197   1.884   3.042   2.371  0.3083  1.4499  0.0850
13594TIP3    H262198   1.841   3.071   2.229 -0.8843  0.1296  0.1495
13595TIP3   OH262199   3.766   4.384   1.535 -0.1579 -0.0765  0.3107
13595TIP3    H162200   3.777   4.476   1.558  0.1634 -0.5300  2.1085
13595TIP3    H262201   3.856   4.350   1.526 -0.2735 -0.1829 -0.5686
13596TIP3   OH262202   5.707   1.453  11.465  0.7255  0.3732  0.2112
13596TIP3    H162203   5.767   1.387  11.500 -1.8926 -2.2217  0.1617
13596TIP3    H262204   5.700   1.432  11.372 -0.3241  0.5711  0.2374
13597TIP3   OH262205   4.760   3.163   1.289 -0.1771 -0.3317  0.8221
13597TIP3    H162206   4.838   3.119   1.324  1.0590 -1.0602 -2.4587
13597TIP3    H262207   4.695   3.155   1.359  2.3052 -0.6825  3.2805
13598TIP3   OH262208   0.662   1.320  15.429  0.1487  0.0691 -0.4109
13598TIP3    H162209   0.675   1.244  15.486  0.0584 -0.0220 -0.5116
13598TIP3    H262210   0.593   1.371  15.471 -0.6292 -0.5094 -0.9555
13599TIP3   OH262211   2.661   1.346   0.563  0.0864  0.1347  0.7844
13599TIP3    H162212   2.731   1.403   0.531  0.3965  0.9410  2.7586
13599TIP3    H262213   2.685   1.259   0.530  0.9439  0.7151 -0.2079
13600TIP3   OH262214   1.399   6.145   2.728  0.3028  0.3058 -0.3323
13600TIP3    H162215   1.443   6.227   2.751  0.2249  0.7342 -1.6354
13600TIP3    H262216   1.345   6.167   2.652  0.5972 -1.0412 -0.9630
13601TIP3   OH262217   0.163   1.979   0.912 -0.0054 -0.4470 -0.3511
13601TIP3    H162218   0.249   2.021   0.915 -0.3474  0.3810 -1.4981
13601TIP3    H262219   0.183   1.886   0.896  0.6886 -0.4087  0.2222
13602TIP3   OH262220   4.382   0.326  17.290  0.3289 -0.4889  0.5694
13602TIP3    H162221   4.457   0.385  17.298  0.0999 -0.2001  0.6039
13602TIP3    H262222   4.371   0.315  17.196 -1.0230  1.3377  0.4668
13603TIP3   OH262223   1.678   3.148   2.054 -0.0780 -0.4190 -0.6319
13603TIP3    H162224   1.697   3.058   2.027  1.1031 -0.4290  0.1538
13603TIP3    H262225   1.667   3.196   1.971 -2.1420 -1.5344 -1.0635
13604TIP3   OH262226   4.468   0.375   3.489  0.1008  0.4912 -0.4612
13604TIP3    H162227   4.404   0.398   3.556  0.4168  0.6896 -0.2176
13604TIP3    H262228   4.422   0.317   3.429 -0.9672  2.3713 -1.5348
13605TIP3   OH262229   4.770   1.786   5.031  0.1869 -0.3286 -0.0744
13605TIP3    H162230   4.768   1.701   5.074  0.3541 -1.0227 -1.3957
13605TIP3    H262231   4.777   1.849   5.103  3.5864 -1.5645  0.8887
13606TIP3   OH262232   6.645   5.738   0.977 -0.2057 -0.2317  0.0783
13606TIP3    H162233   6.655   5.830   0.950  1.4767  0.5610  3.0152
13606TIP3    H262234   6.583   5.742   1.050 -0.2054 -1.4822  0.1557
13607TIP3   OH262235   5.007   3.605  17.125 -0.1609  0.2853 -0.8613
13607TIP3    H162236   4.937   3.650  17.078  1.0495  2.2233 -0.8960
13607TIP3    H262237   5.035   3.535  17.066 -1.2707  0.2356 -1.3443
13608TIP3   OH262238   2.345   6.300  15.730  0.2819  0.1984 -0.0898
13608TIP3    H162239   2.377   6.210  15.730 -2.0069 -0.7058  0.8824
13608TIP3    H262240   2.419   6.353  15.701  2.5884 -1.6807  2.0085
13609TIP3   OH262241   1.536   1.147  11.196  0.0568 -0.1017  0.4489
13609TIP3    H162242   1.498   1.168  11.110 -0.3407 -0.4656  0.5324
13609TIP3    H262243   1.483   1.197  11.258  2.0069  2.3180  0.3081
13610TIP3   OH262244   3.864   6.353  16.276  0.0656  0.1134  0.2423
13610TIP3    H162245   3.907   6.431  16.313 -0.0687  1.1461 -1.6787
13610TIP3    H262246   3.771   6.367  16.294 -0.1530  1.2901 -1.5599
13611TIP3   OH262247   5.624   4.837  16.963 -0.0066 -0.3804 -0.1346
13611TIP3    H162248   5.581   4.825  17.047  2.2583 -0.1842  1.1152
13611TIP3    H262249   5.615   4.930  16.944  0.9729 -0.0789  0.7870
13612TIP3   OH262250   6.508   0.052   3.153  0.0546  0.3248  0.9165
13612TIP3    H162251   6.588   0.078   3.108  0.5936 -0.8221  1.1948
13612TIP3    H262252   6.438   0.075   3.092  0.6285  0.8132  0.4329
13613TIP3   OH262253   2.362   4.112   3.679  0.2190  0.3591  0.1342
13613TIP3    H162254   2.409   4.190   3.651 -0.9683  0.7651 -0.8275
13613TIP3    H262255   2.269   4.135   3.670 -0.1587 -0.8597  0.6785
13614TIP3   OH262256   4.744   5.735   5.156 -0.0804  0.6243 -1.1695
13614TIP3    H162257   4.820   5.773   5.111  1.1176  1.4629  1.3511
13614TIP3    H262258   4.748   5.642   5.137  1.5105  0.6870 -1.2461
13615TIP3   OH262259   3.699   4.759  11.541 -0.1251  0.6555  0.1357
13615TIP3    H162260   3.705   4.666  11.564 -0.0525  0.1320 -1.8367
13615TIP3    H262261   3.611   4.785  11.566  0.0876  0.2671  1.3559
13616TIP3   OH262262   6.128   0.552  14.900 -0.3335 -0.1326 -0.1073
13616TIP3    H162263   6.162   0.639  14.923 -0.7886 -0.0350  0.1960
13616TIP3    H262264   6.184   0.524  14.828  0.5325 -0.0585  0.5106
13617TIP3   OH262265   0.133   6.677   5.377 -0.0668 -0.0313  0.4530
13617TIP3    H162266   0.132   6.599   5.321  1.0737 -0.4916  1.0432
13617TIP3    H262267   0.125   6.642   5.466  0.5449  0.5036  0.7273
13618TIP3   OH262268   2.028   2.072  11.796 -0.0386 -0.0027  0.2388
13618TIP3    H162269   2.104   2.126  11.822  1.1472 -1.7369  0.5666
13618TIP3    H262270   2.065   2.005  11.739 -0.9375 -2.0860  1.9456
13619TIP3   OH262271   2.581   0.993   5.199 -0.4725 -0.4220  0.3690
13619TIP3    H162272   2.632   0.912   5.195  0.0162 -0.1309  0.5781
13619TIP3    H262273   2.494   0.968   5.168 -0.4508 -1.1218  0.8416
13620TIP3   OH262274   0.563   2.346  15.756  0.1328 -0.4323 -0.0639
13620TIP3    H162275   0.586   2.363  15.848 -2.0251 -0.7176  0.5882
13620TIP3    H262276   0.614   2.409  15.706 -0.2652  1.2195  1.5076
13621TIP3   OH262277   6.686   4.858  12.371  0.3913 -0.0374  0.2366
13621TIP3    H162278   6.723   4.857  12.459 -0.6530  1.3362  0.7313
13621TIP3    H262279   6.732   4.789  12.325  0.4028 -1.3367  2.0823
13622TIP3   OH262280   4.253   5.282  17.254  0.2118 -0.3253 -0.3603
13622TIP3    H162281   4.223   5.223  17.323  1.4292  0.1272  0.5728
13622TIP3    H262282   4.173   5.325  17.223 -0.1029  1.3448  2.4939
13623TIP3   OH262283   5.874   1.105   0.526  0.6981  0.1107 -0.1404
13623TIP3    H162284   5.861   1.072   0.615  0.4865  0.9650  0.1578
13623TIP3    H262285   5.849   1.033   0.469  1.0784 -0.5353  0.4949
13624TIP3   OH262286   0.562   5.773   6.904  0.0973  0.1641 -0.3623
13624TIP3    H162287   0.593   5.693   6.861 -0.6262 -0.1700 -0.2658
13624TIP3    H262288   0.520   5.823   6.834  0.5367  0.4623 -0.4197
13625TIP3   OH262289   0.323   2.176  15.738  0.1359  0.1192 -0.1698
13625TIP3    H162290   0.247   2.232  15.747  0.0419  0.9866 -4.3523
13625TIP3    H262291   0.397   2.236  15.728  0.8039 -0.6222  0.1478
13626TIP3   OH262292   1.752   5.135  13.700  0.7306 -0.0553 -0.2846
13626TIP3    H162293   1.658   5.130  13.716  0.6638  1.7450  0.1340
13626TIP3    H262294   1.761   5.123  13.605  0.3095 -2.1801 -0.1092
13627TIP3   OH262295   5.999   4.595  15.634 -0.2436 -0.2722 -0.5615
13627TIP3    H162296   6.072   4.556  15.587 -1.2847 -1.1610 -1.5003
13627TIP3    H262297   5.998   4.687  15.606 -1.0387 -0.8486 -2.5943
13628TIP3   OH262298   3.559   0.369  14.136  0.2365  0.0334  0.0179
13628TIP3    H162299   3.524   0.422  14.064  1.7274  1.4002  0.2216
13628TIP3    H262300   3.484   0.353  14.193 -0.3959  1.4637 -0.3547
13629TIP3   OH262301   2.465   0.848  12.962  0.1683  0.1128  0.0900
13629TIP3    H162302   2.470   0.867  12.868  0.2358 -1.1839 -0.1931
13629TIP3    H262303   2.534   0.902  13.001 -1.1777  2.2047 -0.3097
13630TIP3   OH262304   4.778   1.112   3.889 -0.6312 -0.0734 -0.2889
13630TIP3    H162305   4.690   1.084   3.866 -1.1155 -1.1927  2.5619
13630TIP3    H262306   4.773   1.207   3.896 -1.4236 -0.0728 -0.7781
13631TIP3   OH262307   3.881   4.877   3.449  0.1757  0.1831  0.7833
13631TIP3    H162308   3.889   4.861   3.543  2.0493  0.9875  0.8064
13631TIP3    H262309   3.807   4.937   3.441 -0.5808 -0.6064  1.6431
13632TIP3   OH262310   5.845   3.272  13.445  0.6059  0.4682 -0.2523
13632TIP3    H162311   5.927   3.241  13.407  0.4409 -0.0414 -0.1993
13632TIP3    H262312   5.872   3.317  13.525  0.7355 -1.1027  0.6367
13633TIP3   OH262313   0.543   6.006   6.119  0.2748  0.1529 -0.6530
13633TIP3    H162314   0.598   6.061   6.176  0.4842  0.7683 -1.4319
13633TIP3    H262315   0.486   5.959   6.180  0.2836  1.0301  0.0594
13634TIP3   OH262316   4.784   1.285  14.324  0.0837  0.4520 -0.2613
13634TIP3    H162317   4.723   1.236  14.378  1.0682 -0.3476  0.1595
13634TIP3    H262318   4.748   1.374  14.321 -0.7094  0.1701  0.5635
13635TIP3   OH262319   5.563   1.742  15.107 -0.1510  0.0610 -0.6127
13635TIP3    H162320   5.518   1.807  15.161  0.5246  0.2702 -0.2855
13635TIP3    H262321   5.511   1.663  15.115 -1.3868  0.7436 -1.5735
13636TIP3   OH262322   5.608   2.508   0.164  0.3546 -0.4905 -0.0469
13636TIP3    H162323   5.608   2.437   0.228  0.2306 -0.8593 -0.4498
13636TIP3    H262324   5.524   2.501   0.119  0.6696 -0.5926 -0.6370
13637TIP3   OH262325   0.514   5.755   3.813  0.1604  0.1145 -0.1777
13637TIP3    H162326   0.579   5.822   3.796  0.4827 -0.4043 -1.0556
13637TIP3    H262327   0.430   5.796   3.792  0.1943  0.7332  0.8105
13638TIP3   OH262328   6.630   4.073  15.162  0.5466  0.4311 -0.0059
13638TIP3    H162329   6.560   4.011  15.141  0.1972  1.0716 -0.7921
13638TIP3    H262330   6.588   4.138  15.218  0.8782  0.0524  0.6998
13639TIP3   OH262331   2.297   2.926   2.290  0.4901 -0.1415  0.4755
13639TIP3    H162332   2.347   2.982   2.349  0.9541  0.8733 -0.8527
13639TIP3    H262333   2.218   2.977   2.269  0.9268  0.0474 -0.7633
13640TIP3   OH262334   3.584   2.438  13.960  0.1959  0.0529  0.5755
13640TIP3    H162335   3.518   2.381  14.001  0.8044 -0.5937  0.6762
13640TIP3    H262336   3.541   2.471  13.881 -0.4759  0.1561  0.9742
13641TIP3   OH262337   5.718   5.039  14.470  0.2765 -0.1836  0.3555
13641TIP3    H162338   5.747   4.983  14.542  0.0829  1.1877  1.5557
13641TIP3    H262339   5.669   4.981  14.412 -2.5976 -0.7540  3.1144
13642TIP3   OH262340   5.749   4.666   1.129  0.2682 -0.1807  0.1864
13642TIP3    H162341   5.769   4.717   1.207  0.5914  0.6906 -0.4458
13642TIP3    H262342   5.729   4.731   1.062  1.9340 -0.7994 -0.9940
13643TIP3   OH262343   0.740   1.021  11.866 -0.0520 -0.1829  0.0964
13643TIP3    H162344   0.790   0.947  11.902  1.6375 -0.3229 -2.2891
13643TIP3    H262345   0.661   1.025  11.920 -0.5282 -4.1303 -0.0296
13644TIP3   OH262346   5.056   3.699  14.595 -0.6523 -0.1073  0.0410
13644TIP3    H162347   4.995   3.664  14.660  0.6050 -0.9152  0.8460
13644TIP3    H262348   5.128   3.734  14.647 -0.9891  2.0053 -0.8424
13645TIP3   OH262349   1.940   3.400  12.041  0.1257  0.2237 -0.7750
13645TIP3    H162350   2.021   3.449  12.028  0.4413 -0.2992 -0.8071
13645TIP3    H262351   1.886   3.422  11.966 -0.1732  1.3666 -0.2496
13646TIP3   OH262352   0.007   1.955   1.752  0.3461 -0.0126  0.4582
13646TIP3    H162353  -0.069   1.897   1.745 -1.0661  1.8895 -1.1169
13646TIP3    H262354   0.079   1.897   1.779 -1.2836 -2.1818  0.4370
13647TIP3   OH262355   2.261   3.949  17.031 -0.1151 -0.7175 -0.1783
13647TIP3    H162356   2.293   3.859  17.038 -2.2363 -1.4802  0.4148
13647TIP3    H262357   2.174   3.940  16.992  0.0564  1.1899 -1.1184
13648TIP3   OH262358   6.477   1.770  11.950 -0.0343  0.2618 -0.2484
13648TIP3    H162359   6.431   1.851  11.927 -1.1534 -0.5106 -0.8553
13648TIP3    H262360   6.560   1.799  11.986 -1.1684  1.7515  1.3383
13649TIP3   OH262361   5.311   0.227   5.435 -0.5165 -0.1212 -0.2615
13649TIP3    H162362   5.337   0.256   5.523  0.6843  0.6742 -0.8464
13649TIP3    H262363   5.385   0.174   5.405 -1.3907 -1.3034 -0.3918
13650TIP3   OH262364   5.747   0.614   6.072 -0.0817 -0.1972  0.0000
13650TIP3    H162365   5.775   0.658   5.992 -1.4257  2.9878  1.1156
13650TIP3    H262366   5.655   0.594   6.058  0.0245 -0.9178  0.2716
13651TIP3   OH262367   0.303   2.400   2.268  0.5904  0.3545 -0.3598
13651TIP3    H162368   0.390   2.411   2.306  0.3960  0.7150 -0.0138
13651TIP3    H262369   0.262   2.334   2.323  0.6496  0.1751 -0.5310
13652TIP3   OH262370   4.078   4.276   3.210 -0.4742  0.4562 -0.2579
13652TIP3    H162371   3.998   4.253   3.164 -0.0860 -2.2807  0.2821
13652TIP3    H262372   4.049   4.302   3.298 -0.9638  2.7252 -1.0326
13653TIP3   OH262373   6.346   4.066  11.941 -0.5061 -0.6828  0.1417
13653TIP3    H162374   6.279   4.008  11.904 -3.6815  1.4714  1.9489
13653TIP3    H262375   6.391   4.013  12.006 -2.2066 -1.6113  0.6229
13654TIP3   OH262376   6.109   4.774   5.872  0.5031  0.3173  0.1699
13654TIP3    H162377   6.131   4.696   5.820  3.0914 -0.5919  2.3807
13654TIP3    H262378   6.113   4.846   5.810  0.6263 -1.0112 -1.4399
13655TIP3   OH262379   1.341   3.325   1.006  0.1839  0.3345  0.0005
13655TIP3    H162380   1.322   3.232   0.992 -0.4674  0.4536  0.0315
13655TIP3    H262381   1.430   3.327   1.039  1.2561 -0.0937 -2.6230
13656TIP3   OH262382   3.090   3.186   3.937  0.3620 -0.2657  0.5034
13656TIP3    H162383   3.022   3.128   3.971  1.2119 -1.9074 -0.4625
13656TIP3    H262384   3.097   3.162   3.844 -0.8630  3.0223 -0.5818
13657TIP3   OH262385   3.850   0.948   4.039 -0.6333  0.0543 -0.9821
13657TIP3    H162386   3.780   1.011   4.060 -1.0310 -0.4149 -0.8921
13657TIP3    H262387   3.806   0.863   4.037  0.2933 -0.5682  1.2891
13658TIP3   OH262388   1.767   1.814   1.990 -0.9258 -0.7721 -0.3604
13658TIP3    H162389   1.852   1.858   1.980 -2.0377  1.6549  0.1057
13658TIP3    H262390   1.773   1.770   2.075  0.3865 -1.9630 -1.0337
13659TIP3   OH262391   3.081   6.543  12.309  0.2212 -0.3181 -0.3182
13659TIP3    H162392   3.106   6.635  12.296 -0.0341 -0.3926 -1.3642
13659TIP3    H262393   3.097   6.502  12.225 -1.6035 -0.7954 -0.4583
13660TIP3   OH262394   3.553   0.558  16.732 -0.2350  0.1572  0.3673
13660TIP3    H162395   3.623   0.500  16.763 -1.1468 -0.4115  1.4053
13660TIP3    H262396   3.502   0.504  16.672 -0.1974  0.3536  0.1600
13661TIP3   OH262397   0.272   3.568   3.967  0.3689 -0.4028  0.4889
13661TIP3    H162398   0.352   3.556   4.018  0.2497  0.2452  0.8476
13661TIP3    H262399   0.208   3.600   4.031 -0.1888 -0.9589  0.2136
13662TIP3   OH262400   4.337   5.057  15.559 -0.2967 -0.5143  0.4233
13662TIP3    H162401   4.357   5.034  15.468  0.5561 -0.6572  0.6405
13662TIP3    H262402   4.310   5.149  15.555 -0.4607 -0.5786  0.0047
13663TIP3   OH262403   4.885   3.875   5.649 -0.4288 -0.7247 -0.0145
13663TIP3    H162404   4.825   3.800   5.648 -0.5246 -0.6691  0.7660
13663TIP3    H262405   4.840   3.942   5.700 -0.1193 -0.3225 -0.2612
13664TIP3   OH262406   0.572   6.072   4.548 -0.2846  0.0760 -0.5852
13664TIP3    H162407   0.559   5.986   4.508 -0.8568 -0.5816  0.9310
13664TIP3    H262408   0.494   6.085   4.603  0.5618  0.8239  0.4816
13665TIP3   OH262409   0.146   6.296   1.823  0.3496 -0.4972 -0.1077
13665TIP3    H162410   0.187   6.331   1.744  0.8458  0.8620  0.7242
13665TIP3    H262411   0.056   6.278   1.796  0.3985  0.3214 -0.8805
13666TIP3   OH262412   6.381   0.651  11.183 -0.1029  0.5830  0.2138
13666TIP3    H162413   6.296   0.681  11.152  0.3410  0.4638 -1.1879
13666TIP3    H262414   6.410   0.589  11.116 -0.1213 -1.5200  2.0434
13667TIP3   OH262415   1.375   2.270  17.275  0.3529 -0.0136  0.0196
13667TIP3    H162416   1.344   2.205  17.338 -0.0843  0.3988  0.2365
13667TIP3    H262417   1.337   2.243  17.192  3.1926 -2.2046 -0.7184
13668TIP3   OH262418   0.544   2.200   4.992  0.1150 -0.4273 -0.7596
13668TIP3    H162419   0.627   2.202   4.945 -0.1209  1.0763 -1.1828
13668TIP3    H262420   0.509   2.112   4.977  0.2338 -0.1371 -3.0797
13669TIP3   OH262421   6.240   0.096  17.012  0.0177 -0.3665 -0.1234
13669TIP3    H162422   6.247   0.092  17.107  0.6323  0.2483 -0.1429
13669TIP3    H262423   6.182   0.022  16.990  0.1529 -0.7277  0.6870
13670TIP3   OH262424   2.113   5.266   2.642  0.1226  0.4068 -0.1979
13670TIP3    H162425   2.060   5.331   2.688 -1.5212 -2.0880  1.6401
13670TIP3    H262426   2.165   5.318   2.580  1.1054  3.8176  3.0978
13671TIP3   OH262427   6.336   5.673  17.134  0.3188  0.0027 -0.4495
13671TIP3    H162428   6.249   5.700  17.102 -0.0313 -2.6144 -2.0166
13671TIP3    H262429   6.319   5.641  17.223 -0.5660 -1.4528 -1.1128
13672TIP3   OH262430   6.681   4.484  13.038  0.3925  0.0067  0.2929
13672TIP3    H162431   6.748   4.552  13.043  0.4825 -0.0223 -0.4994
13672TIP3    H262432   6.672   4.465  12.945 -0.9976  0.2779  0.3602
13673TIP3   OH262433   6.305   4.896  10.591 -0.2949 -0.2620  0.3651
13673TIP3    H162434   6.213   4.868  10.598 -0.2503 -0.5037  0.0208
13673TIP3    H262435   6.350   4.850  10.661 -0.3653 -0.4543  0.2850
13674TIP3   OH262436   4.122   0.457   4.316 -0.1490  0.7753  0.0175
13674TIP3    H162437   4.065   0.481   4.389 -0.1571  0.8411 -0.0103
13674TIP3    H262438   4.083   0.377   4.281  0.5346  0.0619  0.8392
13675TIP3   OH262439   5.396   1.572   6.066  0.6695  0.2813 -0.2278
13675TIP3    H162440   5.364   1.598   6.152 -0.8555  2.3157 -1.3254
13675TIP3    H262441   5.435   1.486   6.080 -1.7351 -0.5738  2.0262
13676TIP3   OH262442   5.273   4.460   3.585 -0.4462 -0.0698  0.3938
13676TIP3    H162443   5.231   4.389   3.537 -2.7795  1.8529 -0.6131
13676TIP3    H262444   5.218   4.473   3.661 -0.0583  0.6719  0.5528
13677TIP3   OH262445   4.839   5.146   3.643 -0.3003 -0.0905 -0.1169
13677TIP3    H162446   4.782   5.214   3.608 -0.5861 -0.3561 -0.1650
13677TIP3    H262447   4.909   5.195   3.688 -1.5214  0.2460  1.5095
13678TIP3   OH262448   1.102   0.957   4.399 -0.2737 -0.0335 -0.7351
13678TIP3    H162449   1.163   0.982   4.329 -0.4638 -0.9423 -1.2327
13678TIP3    H262450   1.159   0.939   4.474  0.1250 -1.1924 -1.2880
13679TIP3   OH262451   1.220   1.281   2.116 -0.6573 -0.0751  0.1030
13679TIP3    H162452   1.290   1.310   2.174 -2.2713 -0.2082  2.2411
13679TIP3    H262453   1.175   1.362   2.091  0.4556  0.0589 -1.6426
13680TIP3   OH262454   0.846   0.965   5.370 -0.4765 -0.0236  0.0020
13680TIP3    H162455   0.773   0.991   5.425 -0.7526 -2.6147  1.0023
13680TIP3    H262456   0.922   0.967   5.428 -0.1829  0.2379 -0.3804
13681TIP3   OH262457   2.082   3.678   5.966 -0.1518 -0.4110 -0.1592
13681TIP3    H162458   2.017   3.673   5.896  0.1401  0.5383 -0.5070
13681TIP3    H262459   2.031   3.677   6.046 -0.8579  2.9836 -0.4272
13682TIP3   OH262460   1.065   6.634   4.475  0.1447 -0.1046  0.2641
13682TIP3    H162461   1.105   6.696   4.414 -0.3129 -0.1811 -0.1237
13682TIP3    H262462   0.971   6.647   4.464  0.0483 -0.6644  0.3896
13683TIP3   OH262463   6.673   5.049   2.107  0.1321  1.4017  0.0695
13683TIP3    H162464   6.638   5.079   2.023  1.4583  0.4829 -0.8506
13683TIP3    H262465   6.754   5.099   2.118  0.5177  0.7485  0.2641
13684TIP3   OH262466   4.722   1.995  15.221  0.0603  0.4992  0.0846
13684TIP3    H162467   4.800   1.956  15.182 -0.4426 -2.1443  1.5037
13684TIP3    H262468   4.648   1.954  15.175 -0.4982 -1.2178  2.3122
13685TIP3   OH262469   1.144   0.903   4.011  0.0675  0.1179 -0.0097
13685TIP3    H162470   1.048   0.900   4.008  0.0589 -1.8878  0.5981
13685TIP3    H262471   1.170   0.923   3.921 -0.9299 -0.6151 -0.4866
13686TIP3   OH262472   4.124   6.098   2.378 -0.3178  0.4848  0.1475
13686TIP3    H162473   4.053   6.034   2.384  0.4716 -0.2842  1.7659
13686TIP3    H262474   4.084   6.180   2.409 -0.6838  0.2223  0.3812
13687TIP3   OH262475   4.139   4.899   4.703 -0.2705  0.5618 -0.4010
13687TIP3    H162476   4.082   4.825   4.725 -1.6329  1.9415  0.9537
13687TIP3    H262477   4.181   4.923   4.786 -0.5646  1.8481 -0.5926
13688TIP3   OH262478   4.566   2.769  13.757  0.1041 -0.7048  0.6055
13688TIP3    H162479   4.659   2.769  13.733  0.4345  0.4020  1.7404
13688TIP3    H262480   4.521   2.790  13.675  1.0927  1.6362  0.5731
13689TIP3   OH262481   5.629   4.415  14.610 -0.1569 -0.2914  0.2678
13689TIP3    H162482   5.626   4.383  14.520  0.6109 -0.0583  0.1556
13689TIP3    H262483   5.664   4.341  14.660 -3.7127 -1.7340  1.0017
13690TIP3   OH262484   6.439   2.410  15.131  0.4584  0.0032  0.0659
13690TIP3    H162485   6.402   2.407  15.220  1.9080 -0.8430  0.6728
13690TIP3    H262486   6.364   2.395  15.074 -0.9674  2.9665  0.9667
13691TIP3   OH262487   2.364   4.458   1.579  0.4612  0.5331  0.5861
13691TIP3    H162488   2.458   4.441   1.566  0.4076 -0.1121  0.9882
13691TIP3    H262489   2.326   4.447   1.492  0.4940 -1.0915  0.7390
13692TIP3   OH262490   3.480   0.937  17.395 -0.1883 -0.0453  0.3847
13692TIP3    H162491   3.495   0.926  17.489 -1.5491 -1.3860  0.4921
13692TIP3    H262492   3.553   0.890  17.354 -1.2683 -2.2491  0.8380
13693TIP3   OH262493   4.954   4.088  14.537 -0.3761 -0.3776 -0.0497
13693TIP3    H162494   4.942   4.173  14.494  0.5822 -0.8224 -1.2510
13693TIP3    H262495   4.995   4.109  14.620  2.9553  0.2061 -1.6695
13694TIP3   OH262496   2.610   5.558   0.875 -0.1553 -0.6610 -0.0956
13694TIP3    H162497   2.607   5.473   0.831  0.2320 -0.6114 -0.2215
13694TIP3    H262498   2.522   5.569   0.912 -0.2611 -1.0345 -0.2305
13695TIP3   OH262499   4.776   5.545  14.296 -0.3855  0.2108  0.2228
13695TIP3    H162500   4.792   5.450  14.302 -1.4926 -0.1492 -1.5802
13695TIP3    H262501   4.859   5.581  14.265 -0.5417 -0.4728 -1.0635
13696TIP3   OH262502   5.807   1.880  14.180  0.0838 -0.6998 -0.3214
13696TIP3    H162503   5.902   1.867  14.182  0.1865  0.0721 -0.0468
13696TIP3    H262504   5.773   1.810  14.237  0.6923  0.5927  1.7625
13697TIP3   OH262505   0.032   3.895  12.111 -0.7030  0.5665  0.0618
13697TIP3    H162506   0.078   3.971  12.077 -1.0095  1.0665  0.7456
13697TIP3    H262507   0.099   3.847  12.160 -0.1661 -0.3517 -1.4918
13698TIP3   OH262508   5.489   3.085  17.079  0.7961  0.0839  0.3890
13698TIP3    H162509   5.542   3.164  17.087  0.5898  0.2817 -0.1713
13698TIP3    H262510   5.445   3.093  16.994  2.2350 -1.5156 -0.5718
13699TIP3   OH262511   2.959   5.155   4.387  0.8671 -0.0398 -0.0112
13699TIP3    H162512   2.895   5.144   4.317  0.9497 -0.1961 -0.0618
13699TIP3    H262513   2.920   5.112   4.463  1.8761 -2.1241 -0.6127
13700TIP3   OH262514   2.711   2.732  11.668  0.6324 -0.1321 -0.0119
13700TIP3    H162515   2.675   2.644  11.669  1.2450 -0.4126 -0.9145
13700TIP3    H262516   2.751   2.740  11.581  3.2193 -0.0650  1.1094
13701TIP3   OH262517   1.015   5.635  13.567 -0.2523  0.2695  0.0334
13701TIP3    H162518   1.095   5.583  13.569 -0.7144 -0.5014  2.4398
13701TIP3    H262519   1.001   5.660  13.658 -2.1149  1.3974 -0.5090
13702TIP3   OH262520   5.401   6.066   4.000 -0.4362  0.1156  0.1489
13702TIP3    H162521   5.460   6.038   4.070  0.1323  0.6044 -0.1257
13702TIP3    H262522   5.432   6.020   3.922  0.4156  1.3514 -0.2730
13703TIP3   OH262523   4.208   4.740   4.273 -0.3652 -0.0749  0.1155
13703TIP3    H162524   4.278   4.748   4.209  1.8753 -0.8484  2.3055
13703TIP3    H262525   4.189   4.830   4.300  1.8636  0.0364  1.5152
13704TIP3   OH262526   1.341   0.611   2.064 -0.3530 -0.0186 -0.0065
13704TIP3    H162527   1.385   0.631   2.147  0.4742  0.0459 -0.4422
13704TIP3    H262528   1.396   0.653   1.998 -0.6579 -0.6011 -0.6384
13705TIP3   OH262529   2.457   6.557   3.195  0.7204  0.0301  0.2574
13705TIP3    H162530   2.364   6.551   3.172  0.6049  0.9103  0.4632
13705TIP3    H262531   2.490   6.468   3.183 -0.1463 -0.2937  0.1779
13706TIP3   OH262532   2.901   2.004  11.897 -0.4781 -0.2331  0.3917
13706TIP3    H162533   2.911   2.086  11.848 -2.1971  0.5957  1.3046
13706TIP3    H262534   2.892   1.937  11.830 -1.7842  0.7312 -0.4552
13707TIP3   OH262535   4.577   4.858  16.873  0.0887 -0.1729  0.5971
13707TIP3    H162536   4.606   4.846  16.963  1.0900 -1.0531  0.1767
13707TIP3    H262537   4.600   4.948  16.852  1.4973 -0.5013  0.6554
13708TIP3   OH262538   3.479   3.651  14.674  0.3607  0.1866 -0.0888
13708TIP3    H162539   3.473   3.578  14.736 -2.6560 -0.3302 -0.8157
13708TIP3    H262540   3.442   3.726  14.721  1.6076  0.7691 -0.0115
13709TIP3   OH262541   3.840   5.975  16.193  0.3914 -0.0461 -0.1070
13709TIP3    H162542   3.800   5.947  16.111  0.8237 -2.3872  0.4114
13709TIP3    H262543   3.927   6.005  16.168 -0.5988  2.4334 -0.8715
13710TIP3   OH262544   0.473   4.437   6.439  0.3563  0.0733  0.2746
13710TIP3    H162545   0.454   4.506   6.376 -3.1755  1.7561  2.8654
13710TIP3    H262546   0.467   4.356   6.389 -1.8594  1.3307 -1.6640
13711TIP3   OH262547   1.970   0.577  14.913  0.1429  0.5569 -0.2486
13711TIP3    H162548   1.911   0.516  14.957 -0.5456  0.4316 -1.3255
13711TIP3    H262549   2.010   0.526  14.843  1.3683  0.7097  0.3084
13712TIP3   OH262550   0.213   4.176   5.644 -0.2138 -0.4021 -0.2477
13712TIP3    H162551   0.195   4.270   5.645 -2.7928 -0.8160  0.7442
13712TIP3    H262552   0.301   4.169   5.609 -0.3293  2.3202 -1.3362
13713TIP3   OH262553   5.631   3.533  14.037 -0.1872 -0.2816  0.6495
13713TIP3    H162554   5.595   3.606  13.986 -0.8738 -1.2267 -0.2583
13713TIP3    H262555   5.617   3.456  13.982 -1.2479 -1.4100  2.3873
13714TIP3   OH262556   0.617   2.173  16.466  0.1437  0.7176 -0.7597
13714TIP3    H162557   0.688   2.229  16.438 -1.0552  1.4717 -2.4669
13714TIP3    H262558   0.643   2.085  16.437  0.2354  1.0439 -1.7189
13715TIP3   OH262559   1.288   5.889   3.514  0.4341  0.0326  0.1582
13715TIP3    H162560   1.350   5.844   3.456 -0.1820  0.5085 -0.9091
13715TIP3    H262561   1.319   5.870   3.602  3.2435  1.8170 -0.3154
13716TIP3   OH262562   1.905   3.208  13.644  0.0042 -0.2377 -0.0279
13716TIP3    H162563   1.952   3.127  13.625  0.0617 -0.0436 -0.7471
13716TIP3    H262564   1.954   3.275  13.596  0.2350  0.2985  0.9420
13717TIP3   OH262565   4.566   0.885   0.004 -0.2294 -0.1074 -0.5087
13717TIP3    H162566   4.604   0.819   0.062  0.2054  1.5377  1.1884
13717TIP3    H262567   4.641   0.930  -0.034 -0.4717  1.0540  0.3432
13718TIP3   OH262568   4.989   2.322   2.723 -0.3204  0.1318 -0.1461
13718TIP3    H162569   4.997   2.416   2.713  1.7287  0.4007  2.6488
13718TIP3    H262570   4.980   2.309   2.818 -1.5009 -2.4452 -0.5284
13719TIP3   OH262571   6.402   4.644  17.423  0.0731  0.6515  0.5143
13719TIP3    H162572   6.340   4.680  17.487 -0.6590 -0.3108  0.3637
13719TIP3    H262573   6.440   4.568  17.466 -0.9838 -0.4551 -0.4491
13720TIP3   OH262574   5.675   3.177   5.083 -0.3130 -0.0660  0.0299
13720TIP3    H162575   5.702   3.268   5.067  1.2667 -0.1383  1.8826
13720TIP3    H262576   5.743   3.124   5.040 -0.3202 -0.3544  0.3737
13721TIP3   OH262577   1.783   0.141   5.513 -0.0850  0.0041  0.1286
13721TIP3    H162578   1.701   0.151   5.560  0.0624  2.5311 -0.0099
13721TIP3    H262579   1.842   0.099   5.575 -1.7807 -3.1041 -0.2216
13722TIP3   OH262580   4.086   5.630  12.035 -0.4340 -0.0948 -0.2167
13722TIP3    H162581   4.168   5.602  11.996 -1.1865 -0.2481 -1.7505
13722TIP3    H262582   4.105   5.637  12.129  1.4616  0.4156 -0.5955
13723TIP3   OH262583   4.275   5.645   3.984 -0.5626 -0.4129 -0.1172
13723TIP3    H162584   4.255   5.560   3.943  0.5292 -0.8412  0.2049
13723TIP3    H262585   4.287   5.704   3.910 -0.4077 -0.7528 -0.3700
13724TIP3   OH262586   5.167   0.230  11.381  0.1132  0.8443  0.2884
13724TIP3    H162587   5.174   0.304  11.320 -0.2724  0.3535 -0.3639
13724TIP3    H262588   5.244   0.177  11.363 -1.0267 -0.3752 -1.2534
13725TIP3   OH262589   1.111   1.479   2.407 -0.0271 -0.3569 -0.0647
13725TIP3    H162590   1.085   1.455   2.318 -0.9948 -0.0491  0.1231
13725TIP3    H262591   1.032   1.515   2.446  0.4095 -0.4175  0.9010
13726TIP3   OH262592   4.308   6.066  12.575  0.1023 -0.0667  0.8000
13726TIP3    H162593   4.280   6.152  12.608 -0.3227  0.6011 -1.1708
13726TIP3    H262594   4.307   6.010  12.652  0.3896  1.6851  2.1624
13727TIP3   OH262595   0.415   1.114   1.319 -0.2350  0.7095  0.1670
13727TIP3    H162596   0.328   1.153   1.325  0.2156  1.8807 -0.6947
13727TIP3    H262597   0.427   1.095   1.226 -0.2719 -1.1562  0.4967
13728TIP3   OH262598   3.059   6.456  13.252 -0.3366  0.5532  0.0497
13728TIP3    H162599   3.080   6.374  13.295 -0.1352  1.0179  0.8533
13728TIP3    H262600   3.127   6.466  13.185 -0.7498 -0.2504 -0.5077
13729TIP3   OH262601   0.799   0.532  11.595 -0.5722  0.0006 -0.2472
13729TIP3    H162602   0.767   0.614  11.633 -1.0762 -0.3603  0.1088
13729TIP3    H262603   0.893   0.532  11.616 -0.9121 -0.3763  1.3631
13730TIP3   OH262604   3.535   1.147   0.196  0.3499  0.3142 -0.0754
13730TIP3    H162605   3.587   1.067   0.198  0.2195  0.2466  0.9374
13730TIP3    H262606   3.600   1.217   0.208  0.2735  0.2565  0.7192
13731TIP3   OH262607   0.602   0.033   2.670  0.1895 -0.2446  0.1184
13731TIP3    H162608   0.651   0.116   2.664  0.4250 -0.4477 -0.9298
13731TIP3    H262609   0.514   0.054   2.639  0.2405 -0.3784 -0.1185
13732TIP3   OH262610   4.114   3.282   2.140 -0.4439  0.3245  0.0965
13732TIP3    H162611   4.073   3.195   2.140 -1.2192  0.6249  2.5143
13732TIP3    H262612   4.208   3.264   2.139 -0.5891 -0.4751 -1.2984
13733TIP3   OH262613   5.475   5.575  13.749  0.2039 -0.0271  0.1641
13733TIP3    H162614   5.414   5.507  13.777 -0.4328  0.3148 -0.3420
13733TIP3    H262615   5.561   5.534  13.749 -0.2663 -1.0730 -0.9009
13734TIP3   OH262616   0.874   3.841   5.055 -0.1694  0.3107 -0.6028
13734TIP3    H162617   0.948   3.901   5.072 -0.5907  0.8789 -0.7523
13734TIP3    H262618   0.913   3.754   5.061  0.2181  0.5441  0.8597
13735TIP3   OH262619   0.774   2.648   4.138 -0.5249 -0.1644  0.0332
13735TIP3    H162620   0.819   2.575   4.095  0.4340 -0.1269  0.9590
13735TIP3    H262621   0.746   2.613   4.222 -1.4305  0.0940 -0.1460
13736TIP3   OH262622   1.627   0.612   4.542 -0.2829  0.6244 -0.4541
13736TIP3    H162623   1.690   0.540   4.541 -0.0220  0.7973  1.0978
13736TIP3    H262624   1.666   0.677   4.599 -1.9102  0.6775  0.6695
13737TIP3   OH262625   2.600   2.210   4.393  0.1478 -0.5811  0.5379
13737TIP3    H162626   2.507   2.195   4.411  0.4016 -0.2378  2.3075
13737TIP3    H262627   2.640   2.124   4.402  0.0750 -0.6425  0.2759
13738TIP3   OH262628   1.165   3.028   1.406 -0.1939 -0.7036 -0.1376
13738TIP3    H162629   1.125   2.960   1.351  0.4634 -1.1462 -0.0772
13738TIP3    H262630   1.127   3.014   1.493 -1.0926 -0.1211 -0.4179
13739TIP3   OH262631   2.397   2.929   5.830 -0.5361 -0.1312  0.6984
13739TIP3    H162632   2.489   2.950   5.813 -0.6846  0.1030  0.1769
13739TIP3    H262633   2.351   2.952   5.749 -1.0962  0.0066  1.0504
13740TIP3   OH262634   3.901   5.723  16.913  0.2663  0.0094  0.1405
13740TIP3    H162635   3.811   5.741  16.942 -0.7245  0.0389 -2.6615
13740TIP3    H262636   3.918   5.789  16.846  4.0800  2.7779  3.4197
13741TIP3   OH262637   1.249   4.531   2.820 -0.0571  0.1831 -0.2976
13741TIP3    H162638   1.308   4.457   2.834 -0.0396  0.1578 -0.5108
13741TIP3    H262639   1.171   4.509   2.871 -0.5213 -0.5360 -1.2888
13742TIP3   OH262640   0.154   1.893  16.687  0.1064  0.5843 -0.2084
13742TIP3    H162641   0.163   1.988  16.694  2.8156  0.3476  1.1599
13742TIP3    H262642   0.233   1.865  16.640  0.5434 -1.1010  1.3797
13743TIP3   OH262643   2.730   6.601   2.928 -0.0239 -0.0888 -0.5909
13743TIP3    H162644   2.736   6.628   3.019  2.4653 -0.8712 -0.4445
13743TIP3    H262645   2.652   6.646   2.894 -0.9845  0.2424  1.8708
13744TIP3   OH262646   0.129   5.937   3.427 -0.0445  0.7649  0.0340
13744TIP3    H162647   0.075   5.972   3.357  2.4448 -0.3521 -2.6769
13744TIP3    H262648   0.198   6.002   3.439  0.2389  0.3816  0.5489
13745TIP3   OH262649   1.949   3.665  13.858  0.4704 -0.0447  0.3845
13745TIP3    H162650   2.003   3.675  13.937 -0.5652  1.4436  0.9521
13745TIP3    H262651   2.009   3.631  13.792  1.6432 -0.2152  1.4867
13746TIP3   OH262652   0.126   5.433   6.207 -0.2457 -0.8527 -0.3527
13746TIP3    H162653   0.179   5.389   6.141  0.0451 -1.1711  0.0818
13746TIP3    H262654   0.053   5.471   6.159  1.0992  0.8175 -1.1853
13747TIP3   OH262655   1.429   4.440   0.557 -0.2040 -0.0252 -0.3409
13747TIP3    H162656   1.336   4.427   0.574 -0.1859 -0.6782 -0.6827
13747TIP3    H262657   1.473   4.387   0.623 -0.0187  1.7495  1.0252
13748TIP3   OH262658   2.720   4.029  12.086  0.3783 -0.1886  0.2405
13748TIP3    H162659   2.639   4.004  12.130  0.1138  0.7561  0.3019
13748TIP3    H262660   2.700   4.111  12.042  1.1163 -0.2844 -0.2944
13749TIP3   OH262661   0.149   1.611  11.354  0.0054 -0.1164 -0.1883
13749TIP3    H162662   0.117   1.526  11.383  0.2350  0.0159  0.4796
13749TIP3    H262663   0.071   1.660  11.327 -0.3388  0.0853  1.0940
13750TIP3   OH262664   2.192   5.492   4.864  0.0885  0.4983  0.2600
13750TIP3    H162665   2.140   5.414   4.883 -0.3175  0.1769 -1.8473
13750TIP3    H262666   2.281   5.459   4.851 -0.3756  0.0119 -2.3426
13751TIP3   OH262667   3.639   0.527  11.894  0.0404  0.0659  0.0540
13751TIP3    H162668   3.576   0.465  11.857 -0.9413  1.5121 -0.8356
13751TIP3    H262669   3.601   0.613  11.875  1.8393  0.9709  0.3310
13752TIP3   OH262670   6.042   1.476   3.290  0.0830 -0.1430  0.2836
13752TIP3    H162671   6.095   1.414   3.339  0.7468 -0.9072 -1.3444
13752TIP3    H262672   6.079   1.476   3.202 -0.0671  2.3820  0.1452
13753TIP3   OH262673   2.960   5.868  11.239 -0.6593 -0.6569 -0.4322
13753TIP3    H162674   2.874   5.910  11.244 -0.3467 -0.1493  1.8531
13753TIP3    H262675   2.941   5.774  11.241 -1.1637 -0.5670 -0.6796
13754TIP3   OH262676   6.034   2.186  17.410  0.0740  0.4082 -0.1455
13754TIP3    H162677   6.059   2.095  17.425  0.7744 -0.0564 -3.3301
13754TIP3    H262678   6.106   2.222  17.358 -0.1093  2.8767  1.1724
13755TIP3   OH262679   0.468   1.795   5.046  0.1330  0.6277 -0.0660
13755TIP3    H162680   0.515   1.847   5.111  0.1648  1.3172 -0.6384
13755TIP3    H262681   0.532   1.776   4.978  0.3219 -0.7873  0.4708
13756TIP3   OH262682   3.748   2.522   4.380  0.4288  0.2104 -0.3991
13756TIP3    H162683   3.791   2.547   4.462  0.4897  0.3291 -0.4669
13756TIP3    H262684   3.715   2.605   4.344  0.7218  0.2051 -0.6770
13757TIP3   OH262685   3.135   5.141   2.702 -0.4561  0.5704  0.0555
13757TIP3    H162686   3.060   5.185   2.741 -0.5828 -0.6719  1.3032
13757TIP3    H262687   3.189   5.211   2.666 -1.3324  1.6110  0.7227
13758TIP3   OH262688   1.703   6.533   1.210  0.3993 -0.4371 -0.0689
13758TIP3    H162689   1.670   6.445   1.191 -0.1207  0.2668 -2.8158
13758TIP3    H262690   1.635   6.572   1.265 -0.0640 -1.2774 -0.0257
13759TIP3   OH262691   1.257   6.574   4.045 -0.0864  0.5822 -0.2578
13759TIP3    H162692   1.309   6.504   4.086 -1.3560 -0.3963 -0.2369
13759TIP3    H262693   1.171   6.567   4.087 -1.0004  0.4988 -2.0399
13760TIP3   OH262694   1.655   1.722   1.092  0.1613 -0.2414 -0.1143
13760TIP3    H162695   1.664   1.794   1.155  1.8532  0.1740 -0.7842
13760TIP3    H262696   1.727   1.735   1.030 -0.9512 -1.1242 -1.6552
13761TIP3   OH262697   3.122   5.193  11.126  0.5329 -0.0573 -0.2330
13761TIP3    H162698   3.162   5.151  11.202  0.0822  0.2746  0.1946
13761TIP3    H262699   3.196   5.220  11.072  0.8284 -1.8033 -0.7622
13762TIP3   OH262700   0.580   6.389  14.737  0.0921  0.8166 -0.9905
13762TIP3    H162701   0.490   6.410  14.758  0.0090 -0.9596  0.7195
13762TIP3    H262702   0.607   6.456  14.674 -2.3009  1.5424 -1.3233
13763TIP3   OH262703   3.096   4.253   3.708  0.2373  0.1371 -0.3639
13763TIP3    H162704   3.117   4.264   3.801  1.4863  0.9605 -0.7196
13763TIP3    H262705   3.178   4.226   3.668  0.4459  2.4290 -1.6439
13764TIP3   OH262706   2.881   5.684  14.914 -0.0287  0.1284  0.6377
13764TIP3    H162707   2.893   5.651  14.825 -0.3818 -0.3303  0.7601
13764TIP3    H262708   2.816   5.754  14.904 -0.2606 -0.0977  0.5787
13765TIP3   OH262709   0.548   3.446   6.441  0.2221  0.2077 -0.3221
13765TIP3    H162710   0.542   3.473   6.532  1.9580  2.8188 -0.8610
13765TIP3    H262711   0.626   3.390   6.438 -1.2026 -1.9080  0.1329
13766TIP3   OH262712   3.078   1.465   3.364 -0.1603  0.1878  0.1210
13766TIP3    H162713   3.005   1.518   3.397 -0.0546  1.7698 -1.9431
13766TIP3    H262714   3.138   1.529   3.325  1.1136 -1.2845 -0.4489
13767TIP3   OH262715   6.710   2.844   3.851  0.5499 -0.0157  0.4663
13767TIP3    H162716   6.687   2.841   3.944  0.5359 -0.7153  0.4492
13767TIP3    H262717   6.736   2.934   3.835 -1.3791  0.6189  0.6777
13768TIP3   OH262718   3.939   3.484   5.396  0.0586  0.6977 -0.0576
13768TIP3    H162719   3.949   3.554   5.461  2.5448  1.5347 -1.2102
13768TIP3    H262720   3.993   3.412   5.431 -0.1561  0.4364 -0.2673
13769TIP3   OH262721   0.229   2.423  17.364  0.3864 -0.2531  0.2207
13769TIP3    H162722   0.173   2.453  17.292  0.5322 -1.7885 -0.5602
13769TIP3    H262723   0.289   2.496  17.379  0.3902  0.0709 -1.2503
13770TIP3   OH262724   5.292   3.478  16.555  0.3236  0.1238  0.1768
13770TIP3    H162725   5.304   3.555  16.609 -2.3511 -0.9548  2.5748
13770TIP3    H262726   5.258   3.511  16.472  0.1081  1.5650  0.8260
13771TIP3   OH262727   4.764   2.837   4.307 -0.4947 -0.0899 -0.0357
13771TIP3    H162728   4.739   2.837   4.399 -1.4901  0.3015 -0.2944
13771TIP3    H262729   4.682   2.854   4.260  0.2718  1.3089 -0.9216
13772TIP3   OH262730   3.670   6.308  14.921 -0.1773  0.1048  0.1121
13772TIP3    H162731   3.734   6.271  14.860  0.7045  0.7973  0.5950
13772TIP3    H262732   3.619   6.232  14.951  1.2909 -0.6769  0.7274
13773TIP3   OH262733   0.231   2.733  17.148  0.0976 -0.0309 -0.3134
13773TIP3    H162734   0.164   2.801  17.149  0.5181  0.3804  0.6198
13773TIP3    H262735   0.225   2.694  17.061  0.2852  1.6244 -1.0876
13774TIP3   OH262736   0.536   3.463  15.997 -0.4512 -0.1514 -0.6881
13774TIP3    H162737   0.496   3.456  16.084  1.2676  1.6988  0.3549
13774TIP3    H262738   0.630   3.468  16.015 -0.0567  0.3770 -2.6720
13775TIP3   OH262739   2.490   1.214  13.984  0.1495 -0.6377 -0.6566
13775TIP3    H162740   2.396   1.214  13.965  0.0870 -0.4667 -0.3352
13775TIP3    H262741   2.530   1.246  13.903 -0.3019  3.0775  0.4182
13776TIP3   OH262742   6.614   1.952  11.498 -0.3777  0.1160  0.2416
13776TIP3    H162743   6.535   2.002  11.519  0.1667  1.4578 -0.7208
13776TIP3    H262744   6.686   2.014  11.510  0.4463 -0.7972  0.1819
13777TIP3   OH262745   0.609   6.171  11.778  0.1062 -0.2177  0.0320
13777TIP3    H162746   0.693   6.126  11.767  0.0024  0.0619 -2.1689
13777TIP3    H262747   0.629   6.244  11.836  0.8399 -1.5027  1.5068
13778TIP3   OH262748   2.250   1.815  10.986 -0.2784  0.4351  0.4752
13778TIP3    H162749   2.294   1.819  11.071  0.7338 -1.3326  0.0739
13778TIP3    H262750   2.268   1.727  10.953 -3.2217 -0.0066 -0.2345
13779TIP3   OH262751   0.317   5.238  14.363  0.0379  0.2431  0.4237
13779TIP3    H162752   0.277   5.157  14.395  1.0049 -0.1897  0.5877
13779TIP3    H262753   0.400   5.244  14.411  0.6204  0.6011 -0.5929
13780TIP3   OH262754   2.902   3.225  13.595  0.3423 -0.2815  0.3856
13780TIP3    H162755   2.819   3.223  13.547 -0.0395 -1.9857  1.0367
13780TIP3    H262756   2.898   3.305  13.647 -0.0259  0.6598 -1.0278
13781TIP3   OH262757   5.977   4.102   5.561 -1.0559  0.8387 -0.2280
13781TIP3    H162758   5.962   4.119   5.468 -0.9780  0.0933 -0.3813
13781TIP3    H262759   6.048   4.161   5.585 -0.2284  0.1682 -0.9520
13782TIP3   OH262760   5.550   0.104   5.366  0.2713 -0.5364 -0.2085
13782TIP3    H162761   5.560   0.018   5.324  4.0355 -0.6910  0.5909
13782TIP3    H262762   5.576   0.166   5.298  0.6838 -0.3234  0.1381
13783TIP3   OH262763   6.417   1.093   1.419  0.0062  0.1374  0.2873
13783TIP3    H162764   6.331   1.134   1.412  0.3169  0.6696 -0.5634
13783TIP3    H262765   6.403   1.003   1.390 -0.4185 -0.0059  0.9179
13784TIP3   OH262766   4.908   3.730   1.483 -0.1274 -0.3570 -0.4582
13784TIP3    H162767   4.975   3.763   1.423  0.3469 -0.1066  0.1874
13784TIP3    H262768   4.840   3.797   1.483 -0.0444 -0.2729 -0.5800
13785TIP3   OH262769   3.844   2.922  12.123 -0.1888 -0.4019  0.1126
13785TIP3    H162770   3.761   2.891  12.159  0.4902  1.4488  3.7257
13785TIP3    H262771   3.823   3.007  12.084 -0.1161 -0.2183  0.4693
13786TIP3   OH262772   3.656   4.090   5.038  0.1238  0.1025 -0.1322
13786TIP3    H162773   3.589   4.086   5.106  1.9297  1.7022  1.9003
13786TIP3    H262774   3.678   4.183   5.032 -0.2230  0.0985 -3.2769
13787TIP3   OH262775   4.416   5.826   0.486 -0.1070  0.2291 -0.4285
13787TIP3    H162776   4.470   5.803   0.410  1.8525 -1.1917  1.2836
13787TIP3    H262777   4.475   5.874   0.544 -1.2031  0.2010  0.7504
13788TIP3   OH262778   5.834   6.419  16.672  0.1065 -0.0453 -0.4830
13788TIP3    H162779   5.911   6.377  16.711 -0.2565 -1.2331 -1.0057
13788TIP3    H262780   5.787   6.348  16.629 -0.1782  1.0263 -2.0021
13789TIP3   OH262781   2.448   6.439  12.897  0.3366 -0.8444 -0.1887
13789TIP3    H162782   2.364   6.404  12.928  1.1860 -3.0557 -0.2431
13789TIP3    H262783   2.495   6.460  12.978  0.8724 -2.4923 -0.0434
13790TIP3   OH262784   2.908   1.714  14.976 -0.0386  0.3115 -0.0274
13790TIP3    H162785   2.931   1.628  14.941  0.4882 -0.7754  2.7608
13790TIP3    H262786   2.813   1.720  14.967  0.0698  0.1149 -1.5733
13791TIP3   OH262787   5.528   0.585   4.246  0.2182  0.1356 -0.0536
13791TIP3    H162788   5.517   0.663   4.301  0.3023  1.2389 -1.5447
13791TIP3    H262789   5.460   0.525   4.276 -0.8705  1.4007  0.1068
13792TIP3   OH262790   3.988   1.136   3.066  0.2851  0.4479  0.4062
13792TIP3    H162791   3.960   1.191   2.993 -1.6137 -0.4309  0.4154
13792TIP3    H262792   3.968   1.187   3.144  0.6791  0.6636  0.3707
13793TIP3   OH262793   0.029   0.729  17.179  0.8711 -0.4337  0.3562
13793TIP3    H162794   0.104   0.732  17.120  2.0674  1.9812  1.8696
13793TIP3    H262795  -0.044   0.761  17.126  0.7386 -3.0095 -1.1942
13794TIP3   OH262796   6.474   4.154   1.572 -0.1966 -0.2130 -0.0247
13794TIP3    H162797   6.390   4.126   1.535  0.0390 -0.5427 -0.3059
13794TIP3    H262798   6.524   4.185   1.496 -0.2183  0.3787  0.1971
13795TIP3   OH262799   0.991   5.986  12.526  0.5063  0.1970  0.2582
13795TIP3    H162800   0.936   5.992  12.604  1.2659 -0.5993  0.8735
13795TIP3    H262801   1.020   6.075  12.509  0.8523  0.2857  1.2744
13796TIP3   OH262802   5.275   5.554   3.212 -0.5642  0.1402  0.1202
13796TIP3    H162803   5.258   5.565   3.119  2.7950 -2.5370 -1.0340
13796TIP3    H262804   5.358   5.600   3.226 -1.2650  0.9267  1.9692
13797TIP3   OH262805   1.393   1.211   3.445 -0.1835  0.1088 -0.3559
13797TIP3    H162806   1.335   1.212   3.369  1.9736 -0.2275 -2.0934
13797TIP3    H262807   1.441   1.293   3.440  0.1728 -0.0313  0.5085
13798TIP3   OH262808   3.272   5.266   1.949  0.5455  0.3127 -0.1688
13798TIP3    H162809   3.218   5.313   1.886  0.5080 -0.1823 -0.5127
13798TIP3    H262810   3.215   5.254   2.025  0.1892 -0.1347 -0.4977
13799TIP3   OH262811   4.590   6.412   2.986  0.4109  0.1173 -0.5596
13799TIP3    H162812   4.577   6.354   2.911  0.8675 -0.9474  0.1563
13799TIP3    H262813   4.555   6.364   3.060 -0.8693  1.5347 -0.1930
13800TIP3   OH262814   2.426   1.950  13.368 -0.5828 -0.2902 -0.1644
13800TIP3    H162815   2.335   1.936  13.392 -0.1692  0.2429  1.8558
13800TIP3    H262816   2.462   1.862  13.357 -1.9231 -0.5817 -3.7774
13801TIP3   OH262817   2.324   0.108  17.238 -0.1529  0.6178 -0.3602
13801TIP3    H162818   2.385   0.065  17.178 -0.4882 -3.4487  1.8048
13801TIP3    H262819   2.255   0.143  17.181  2.1262  1.8502 -2.5741
13802TIP3   OH262820   0.278   4.191  12.486  0.3179  0.2557  0.1528
13802TIP3    H162821   0.326   4.184  12.403 -2.2751  0.9281 -1.5081
13802TIP3    H262822   0.303   4.276  12.521  1.7309 -0.1985  0.3261
13803TIP3   OH262823   6.638   2.808  13.208 -0.2070  0.4725  0.2665
13803TIP3    H162824   6.673   2.743  13.270 -0.1549 -0.2770 -0.5327
13803TIP3    H262825   6.681   2.890  13.232  0.3933  0.0279  0.7233
13804TIP3   OH262826   4.302   1.111  13.456 -0.2410 -0.5123 -0.6745
13804TIP3    H162827   4.308   1.093  13.362 -0.3204 -2.4617 -0.3469
13804TIP3    H262828   4.311   1.025  13.497  1.6108  0.4788  1.2019
13805TIP3   OH262829   2.185   4.268  15.932  0.1096 -0.5348 -0.0338
13805TIP3    H162830   2.175   4.173  15.938 -0.1442 -0.4601  0.8070
13805TIP3    H262831   2.177   4.300  16.022  1.4048  0.1778 -0.1505
13806TIP3   OH262832   0.378   0.321   6.215  0.1639 -0.0037 -0.0810
13806TIP3    H162833   0.309   0.261   6.242 -0.4154  0.8991  0.5230
13806TIP3    H262834   0.449   0.306   6.277 -0.6901  1.1948  1.2492
13807TIP3   OH262835   4.094   0.845  11.229 -0.1165 -0.1887  0.2641
13807TIP3    H162836   4.169   0.847  11.169 -0.7029 -0.2984 -0.4928
13807TIP3    H262837   4.024   0.806  11.177  0.0735 -2.9040  1.8896
13808TIP3   OH262838   0.568   4.918  12.553 -0.3283  0.7185  0.3263
13808TIP3    H162839   0.620   4.851  12.599 -0.1893  0.9276  0.4741
13808TIP3    H262840   0.490   4.871  12.524 -0.0821  0.4119  0.1482
13809TIP3   OH262841   4.749   0.826   2.964  0.3062 -0.7022  0.2546
13809TIP3    H162842   4.809   0.846   3.035  2.0667  1.2417 -1.6621
13809TIP3    H262843   4.789   0.752   2.918  1.3521  0.5823 -1.0117
13810TIP3   OH262844   4.343   2.415  10.982 -0.6769  0.1823  0.1909
13810TIP3    H162845   4.436   2.403  11.002 -0.2663  0.2246 -1.5597
13810TIP3    H262846   4.313   2.328  10.957 -0.4828  0.5960 -1.5943
13811TIP3   OH262847   3.554   4.574  13.601 -0.4568 -0.2192 -0.1541
13811TIP3    H162848   3.618   4.643  13.619 -1.1318  0.2433  0.4740
13811TIP3    H262849   3.485   4.587  13.665 -1.0111 -0.9489 -0.5885
13812TIP3   OH262850   0.168   2.418  12.935 -0.0176  0.1698 -0.8765
13812TIP3    H162851   0.260   2.444  12.934 -0.1693  1.1105  1.5640
13812TIP3    H262852   0.121   2.493  12.897  0.0524  0.9586  0.5005
13813TIP3   OH262853   3.499   6.228  15.738 -0.0809  0.1418  0.1448
13813TIP3    H162854   3.509   6.218  15.833  0.0122  0.7747  0.2058
13813TIP3    H262855   3.477   6.321  15.726  0.8151  0.2798 -0.5213
13814TIP3   OH262856   2.868   0.394   3.898 -0.5381  0.3491 -0.3200
13814TIP3    H162857   2.939   0.335   3.921 -0.3905  0.9575  0.9127
13814TIP3    H262858   2.795   0.366   3.953 -0.7565  0.7266 -0.4135
13815TIP3   OH262859   0.317   4.204  11.640  0.1152  0.1279 -0.4606
13815TIP3    H162860   0.289   4.130  11.693  0.3524  0.6916  0.4887
13815TIP3    H262861   0.311   4.279  11.699 -0.1428  0.8721 -1.4001
13816TIP3   OH262862   3.546   2.654  14.139 -0.3265  0.3656  0.6204
13816TIP3    H162863   3.557   2.596  14.064  0.2467  2.7348 -1.2515
13816TIP3    H262864   3.608   2.621  14.204 -0.8706 -1.7836  0.1210
13817TIP3   OH262865   0.706   2.745  12.987 -0.0466  0.2755 -0.0935
13817TIP3    H162866   0.645   2.700  13.046 -0.2677  1.1889  0.4054
13817TIP3    H262867   0.650   2.789  12.923  0.2028 -0.8979 -1.1468
13818TIP3   OH262868   1.486   2.758   1.494 -0.1869  0.0450  0.7938
13818TIP3    H162869   1.468   2.846   1.526 -0.6797 -0.7589  2.8765
13818TIP3    H262870   1.412   2.705   1.524 -0.4749 -0.8996 -1.3739
13819TIP3   OH262871   5.165   4.561   3.282  0.3619 -0.2044 -0.1854
13819TIP3    H162872   5.141   4.651   3.263  3.1909  0.2763 -1.9899
13819TIP3    H262873   5.114   4.509   3.220 -0.9725  0.1370  0.5858
13820TIP3   OH262874   5.296   1.217   2.968 -0.0971 -0.5124 -0.3012
13820TIP3    H162875   5.247   1.254   2.894  0.1083 -0.1933 -0.2799
13820TIP3    H262876   5.333   1.135   2.934  0.0255 -0.3495 -0.5642
13821TIP3   OH262877   1.661   5.067   4.127 -0.6950  0.3273  0.1401
13821TIP3    H162878   1.660   4.975   4.099 -4.0673 -0.4460  2.2497
13821TIP3    H262879   1.602   5.111   4.066 -0.2107  0.8154  0.0181
13822TIP3   OH262880   5.890   4.735  12.879  0.0375 -0.7048  0.5033
13822TIP3    H162881   5.876   4.640  12.884 -0.0681 -0.7845 -0.7535
13822TIP3    H262882   5.841   4.762  12.801 -0.7609  0.5574  1.4239
13823TIP3   OH262883   4.705   2.450  14.855 -0.2619  0.1178 -0.2833
13823TIP3    H162884   4.757   2.427  14.932  0.4921 -1.2391 -1.1581
13823TIP3    H262885   4.615   2.430  14.880 -0.3110  1.7290  0.9645
13824TIP3   OH262886   0.580   5.412  16.477 -0.3684 -0.1453  0.6571
13824TIP3    H162887   0.535   5.367  16.548  0.2070 -0.5370  0.7803
13824TIP3    H262888   0.663   5.366  16.468 -0.6657 -0.4577 -0.6568
13825TIP3   OH262889   3.782   0.033  15.478  0.1778  0.0776  0.2120
13825TIP3    H162890   3.715   0.030  15.409  2.1193  1.7504 -1.9006
13825TIP3    H262891   3.807  -0.059  15.490 -1.4655 -0.4269  0.0065
13826TIP3   OH262892   2.974   1.492  12.739 -0.1856 -0.0963 -0.1790
13826TIP3    H162893   2.989   1.524  12.828  1.2394 -0.7769 -0.1449
13826TIP3    H262894   2.879   1.496  12.727 -0.2381  2.1888  0.5221
13827TIP3   OH262895   4.459   5.193  12.323  0.4135 -0.2483 -0.1149
13827TIP3    H162896   4.434   5.101  12.336  0.4395 -0.6128 -2.2352
13827TIP3    H262897   4.378   5.242  12.335  0.5098 -0.4247  1.6226
13828TIP3   OH262898   0.369   4.710   2.576  0.2751 -0.2251 -0.1098
13828TIP3    H162899   0.356   4.729   2.483  1.8842 -0.8440 -0.5023
13828TIP3    H262900   0.366   4.796   2.618 -0.3976  0.0693 -0.7409
13829TIP3   OH262901   4.175   2.823  14.851  0.3267 -0.5859  0.1685
13829TIP3    H162902   4.261   2.829  14.891 -0.6857 -0.3594  2.4788
13829TIP3    H262903   4.128   2.760  14.905 -1.7326  1.1356  0.5096
13830TIP3   OH262904   2.115   3.652   1.231  0.2916 -0.0844 -0.2756
13830TIP3    H162905   2.135   3.584   1.294  1.3835 -1.3889 -1.9393
13830TIP3    H262906   2.181   3.642   1.162 -2.0736 -0.1853 -2.7271
13831TIP3   OH262907   4.621   0.980  11.906  0.7115  0.3738  0.6222
13831TIP3    H162908   4.587   1.036  11.837  0.8181  1.4218  1.3992
13831TIP3    H262909   4.567   0.901  11.901  0.4255  0.6217 -0.3598
13832TIP3   OH262910   6.208   3.680  16.897  0.2252 -0.1713 -0.3425
13832TIP3    H162911   6.153   3.725  16.834 -1.2732  0.5909  1.4304
13832TIP3    H262912   6.204   3.588  16.870  1.2191  0.3303 -2.4491
13833TIP3   OH262913   3.344   1.916  14.164 -0.5522 -0.4584 -0.1346
13833TIP3    H162914   3.421   1.950  14.210 -0.3943  0.6259 -1.1386
13833TIP3    H262915   3.318   1.987  14.105  0.0055 -2.1975 -2.6352
13834TIP3   OH262916   1.135   6.706  13.965  0.1931 -0.1492 -0.0437
13834TIP3    H162917   1.185   6.784  13.944  0.8374 -0.1187  1.4520
13834TIP3    H262918   1.045   6.737  13.974 -0.1925 -0.2315 -2.9056
13835TIP3   OH262919   4.615   1.569   2.523  0.2280  0.3557  0.1606
13835TIP3    H162920   4.661   1.487   2.540  1.5263  1.1520  0.6590
13835TIP3    H262921   4.572   1.555   2.439 -0.1351 -1.0527  0.5462
13836TIP3   OH262922   2.047   5.547   4.409 -0.4812 -0.3047 -0.1014
13836TIP3    H162923   2.036   5.636   4.373 -2.4366 -0.6904 -0.6180
13836TIP3    H262924   2.067   5.561   4.501 -0.4789  0.6805 -0.2343
13837TIP3   OH262925   4.480   6.594   0.888  0.2218 -0.6157 -0.3903
13837TIP3    H162926   4.470   6.667   0.827  0.9524 -0.5472 -0.4270
13837TIP3    H262927   4.428   6.523   0.848 -1.6390  0.2666  0.3365
13838TIP3   OH262928   4.788   6.537  16.829  0.2748 -0.0457 -0.1940
13838TIP3    H162929   4.873   6.529  16.786  0.9901  0.4437  1.0761
13838TIP3    H262930   4.724   6.536  16.758  1.4615  1.5401 -1.3272
13839TIP3   OH262931   2.460   1.714  13.058 -0.1197 -0.0166  0.2247
13839TIP3    H162932   2.473   1.696  13.151  0.5407 -0.5250  0.0382
13839TIP3    H262933   2.504   1.798  13.043  0.9842 -0.6043  0.0868
13840TIP3   OH262934   6.701   1.622   4.271  0.6005 -0.4499 -0.0283
13840TIP3    H162935   6.721   1.648   4.181 -0.6878 -0.0924 -0.2383
13840TIP3    H262936   6.743   1.689   4.325 -2.2369  1.9846 -0.5470
13841TIP3   OH262937   5.505   4.991   5.440  0.0379  0.4676  0.3073
13841TIP3    H162938   5.489   4.938   5.519  0.2317  1.4623  1.0294
13841TIP3    H262939   5.519   4.926   5.371 -1.0807 -0.4259  0.8798
13842TIP3   OH262940   0.296   0.956   3.237 -0.1013  0.3639 -0.2159
13842TIP3    H162941   0.378   1.005   3.247  0.9846 -0.9392 -2.1179
13842TIP3    H262942   0.229   1.014   3.272  1.4749  2.0316  0.1803
13843TIP3   OH262943   1.932   0.911   4.635 -0.2424 -0.2166 -0.1451
13843TIP3    H162944   1.931   0.980   4.701 -1.2695  0.0432 -0.4112
13843TIP3    H262945   1.858   0.855   4.658 -1.6872  0.8035 -1.9868
13844TIP3   OH262946   4.603   0.519  11.861 -0.4265  0.1685 -0.0934
13844TIP3    H162947   4.561   0.448  11.813 -1.0900  0.2551  0.3473
13844TIP3    H262948   4.645   0.572  11.793  1.3533 -1.4293 -0.3223
13845TIP3   OH262949   2.306   4.955  11.737 -0.1601 -0.2968  0.2716
13845TIP3    H162950   2.220   4.967  11.778 -0.6837  1.9902 -1.3733
13845TIP3    H262951   2.294   4.880  11.678 -1.9747  1.7547 -2.1535
13846TIP3   OH262952   1.659   0.393  11.839  0.2135  0.4792 -0.4128
13846TIP3    H162953   1.677   0.481  11.872 -1.4360  0.2141  1.3750
13846TIP3    H262954   1.586   0.405  11.778  0.9265  0.5149 -1.2700
13847TIP3   OH262955   5.871   1.360  14.352  0.1815  0.3679 -0.4127
13847TIP3    H162956   5.862   1.378  14.446 -0.6216 -1.5093 -0.0809
13847TIP3    H262957   5.939   1.293  14.347 -1.4638 -1.3405 -0.8948
13848TIP3   OH262958   3.671   2.425   2.013  0.3283  0.3151 -0.0557
13848TIP3    H162959   3.709   2.512   2.007  0.0219  0.5115  0.6660
13848TIP3    H262960   3.739   2.366   1.981  1.5789  0.5850  1.9311
13849TIP3   OH262961   1.180   1.025  12.987 -0.3097 -0.4390  0.0146
13849TIP3    H162962   1.085   1.012  12.981 -0.5778  1.4315 -0.2590
13849TIP3    H262963   1.191   1.094  13.052  0.6235  1.5661 -2.1490
13850TIP3   OH262964   1.349   0.201  14.950  0.4550  0.3060 -0.0414
13850TIP3    H162965   1.429   0.165  14.987 -0.2584 -0.2947  0.9648
13850TIP3    H262966   1.310   0.252  15.021 -0.6959 -0.4620 -0.0871
13851TIP3   OH262967   5.244   2.198   4.845 -0.6294 -0.0968  0.0941
13851TIP3    H162968   5.274   2.288   4.861 -1.2806  0.2030 -0.3738
13851TIP3    H262969   5.306   2.164   4.780 -0.5631  0.1095  0.0472
13852TIP3   OH262970   0.968   2.581  14.063  0.0674  0.3532 -0.0880
13852TIP3    H162971   0.947   2.617  14.149 -0.2527  0.2291 -0.1149
13852TIP3    H262972   0.980   2.487  14.079  2.7111  0.6835  0.3357
13853TIP3   OH262973   1.250   4.147  13.030 -0.2354 -0.8033  0.0922
13853TIP3    H162974   1.182   4.083  13.006  0.9255 -1.6864 -0.9868
13853TIP3    H262975   1.320   4.094  13.067  0.3785 -0.0482  0.0327
13854TIP3   OH262976   1.796   5.046  13.051  0.0197 -0.0922  0.1785
13854TIP3    H162977   1.720   4.999  13.085  1.3361 -0.6909  2.4937
13854TIP3    H262978   1.781   5.050  12.956 -2.0440 -1.6996  0.3659
13855TIP3   OH262979   4.033   3.503  16.243 -0.4462 -0.1805  0.0169
13855TIP3    H162980   4.001   3.420  16.209 -0.6580  0.2883 -0.9934
13855TIP3    H262981   3.967   3.530  16.307 -1.0926 -0.1374 -0.6557
13856TIP3   OH262982   4.525   0.839   5.532 -0.1958 -0.3209  0.4691
13856TIP3    H162983   4.537   0.808   5.622 -0.6334 -1.1820  0.2405
13856TIP3    H262984   4.452   0.788   5.499  1.0730 -1.2781 -0.9601
13857TIP3   OH262985   6.135   0.688  16.657 -0.3096 -0.1076  0.1840
13857TIP3    H162986   6.110   0.767  16.705 -0.0077 -0.1759  0.4595
13857TIP3    H262987   6.231   0.687  16.662 -0.2502  0.0813 -0.7424
13858TIP3   OH262988   4.792   4.088  13.862  0.6662  0.2003  0.2048
13858TIP3    H162989   4.738   4.149  13.912  0.9129  1.5554 -1.0991
13858TIP3    H262990   4.880   4.126  13.867  0.6849  0.4100 -1.2640
13859TIP3   OH262991   4.299   4.125   2.287  0.1462 -0.6383  0.0978
13859TIP3    H162992   4.315   4.046   2.340 -0.5358 -0.8978 -0.0771
13859TIP3    H262993   4.348   4.109   2.206  2.8556  0.6094  1.3468
13860TIP3   OH262994   1.866   3.004  11.984 -0.1841 -0.0218  0.3340
13860TIP3    H162995   1.951   2.985  12.025  0.7678  0.1578 -1.4573
13860TIP3    H262996   1.831   3.077  12.035  1.5058  0.9854  0.1321
13861TIP3   OH262997   4.439   5.299  14.651  0.5875 -0.2506 -0.0256
13861TIP3    H162998   4.414   5.381  14.693 -0.3390  0.6235 -2.1569
13861TIP3    H262999   4.358   5.265  14.613  1.2759 -1.2160 -0.7002
13862TIP3   OH263000   4.337   0.194  13.616 -0.2975 -0.2250 -0.5207
13862TIP3    H163001   4.421   0.149  13.632 -1.0341 -1.1523  0.9436
13862TIP3    H263002   4.361   0.286  13.607  1.1886 -0.7771 -3.0347
13863TIP3   OH263003   6.211   3.458  10.630 -0.2765  0.3719 -0.5567
13863TIP3    H163004   6.116   3.451  10.637 -0.1629  0.3950  1.4070
13863TIP3    H263005   6.240   3.490  10.715  1.6053 -0.7739 -0.7037
13864TIP3   OH263006   6.308   4.330  16.529  0.4692  0.0435  0.0512
13864TIP3    H163007   6.346   4.396  16.588  0.0455 -1.7293  2.4689
13864TIP3    H263008   6.376   4.313  16.464  1.4228  1.2638  0.6883
13865TIP3   OH263009   4.316   3.181   3.216  0.5312  0.0803  1.1813
13865TIP3    H163010   4.377   3.204   3.146  0.7355  0.3835  1.4548
13865TIP3    H263011   4.339   3.092   3.241  0.9399  0.2379  1.3639
13866TIP3   OH263012   2.358   1.336   0.828 -0.1977 -0.5882 -0.1972
13866TIP3    H163013   2.444   1.357   0.864 -0.1731  0.2847 -0.7358
13866TIP3    H263014   2.297   1.354   0.899  0.0577 -1.2745  0.2095
13867TIP3   OH263015   3.154   6.202   1.019  0.7805  0.1652 -0.4600
13867TIP3    H163016   3.194   6.220   0.933  0.5037  0.8168 -0.4545
13867TIP3    H263017   3.206   6.129   1.054  2.8376  1.8027  0.1127
13868TIP3   OH263018   1.947   4.271   4.397 -0.2794  0.2739 -0.9169
13868TIP3    H163019   1.958   4.299   4.488 -0.4157  0.1164 -0.8514
13868TIP3    H263020   2.026   4.221   4.377 -0.7414 -0.6257 -0.5349
13869TIP3   OH263021   1.092   1.241   4.394  0.6696 -0.4861  0.2933
13869TIP3    H163022   1.187   1.238   4.383  0.4899 -2.5356 -1.2249
13869TIP3    H263023   1.063   1.151   4.380 -1.5745  0.2341 -0.0754
13870TIP3   OH263024   2.820   2.967   5.427 -0.0178 -0.5789  0.2389
13870TIP3    H163025   2.800   3.037   5.489 -1.1388  0.1646 -0.9082
13870TIP3    H263026   2.857   3.012   5.351 -0.9163 -1.1876 -0.5859
13871TIP3   OH263027   6.274   3.921  10.517 -0.2579 -0.0367 -0.0068
13871TIP3    H163028   6.250   3.943  10.427  1.2838  2.3810  0.0803
13871TIP3    H263029   6.221   3.980  10.570  0.0927 -0.2603  0.5951
13872TIP3   OH263030   2.771   5.300  16.260  0.0247 -0.6378  0.4989
13872TIP3    H163031   2.835   5.237  16.227  1.2871  0.4633  0.7810
13872TIP3    H263032   2.780   5.297  16.355 -0.2567 -0.3838  0.5379
13873TIP3   OH263033   5.741   0.702  16.141 -0.2927 -0.0947  0.6235
13873TIP3    H163034   5.648   0.710  16.158 -0.6659 -0.2004 -1.1404
13873TIP3    H263035   5.750   0.619  16.094  0.1773  1.3417 -2.0372
13874TIP3   OH263036   3.866   1.397   4.941 -0.2611 -0.1427  0.2638
13874TIP3    H163037   3.849   1.474   4.886 -0.7800  0.5954  1.4163
13874TIP3    H263038   3.844   1.426   5.030  0.2724 -1.3961  0.8246
13875TIP3   OH263039   2.065   3.347  15.235  0.1802  0.4741  0.1156
13875TIP3    H163040   2.149   3.314  15.203  0.2749  0.5186  0.3176
13875TIP3    H263041   2.011   3.268  15.244  0.3114  0.4054  0.3146
13876TIP3   OH263042   0.675   1.337  11.231  0.2367  0.0902  0.2029
13876TIP3    H163043   0.698   1.288  11.153  0.9485  0.3826  0.2216
13876TIP3    H263044   0.752   1.332  11.287 -0.0335  0.4141  0.6160
13877TIP3   OH263045   4.591   4.848   5.804  0.6340  0.4280 -0.6968
13877TIP3    H163046   4.553   4.921   5.854 -0.3793  1.8273 -3.2885
13877TIP3    H263047   4.528   4.777   5.813  0.5171  0.6180  0.0593
13878TIP3   OH263048   2.551   1.152   6.721 -0.3337  0.1952  0.9785
13878TIP3    H163049   2.463   1.187   6.730 -0.6479 -0.3918  0.3107
13878TIP3    H263050   2.587   1.196   6.644  0.3329  1.1691  1.8250
13879TIP3   OH263051   2.484   4.695   3.388 -0.4485  0.0374  0.8188
13879TIP3    H163052   2.491   4.624   3.324 -0.8051 -0.2312  1.0685
13879TIP3    H263053   2.431   4.658   3.458 -1.2276  0.7786  0.6396
13880TIP3   OH263054   0.381   4.614  16.109 -0.1173  0.6014  0.1377
13880TIP3    H163055   0.343   4.528  16.123  1.0861  0.2398  1.3858
13880TIP3    H263056   0.439   4.604  16.034  0.6939  0.0738  0.8174
13881TIP3   OH263057   4.452   6.153   0.881 -0.4834  0.4005  0.5280
13881TIP3    H163058   4.474   6.154   0.788  0.4653 -0.3894  0.7339
13881TIP3    H263059   4.357   6.143   0.883 -0.5080  0.3836 -0.3562
13882TIP3   OH263060   4.644   2.646  11.031 -0.3526  0.2975  0.1961
13882TIP3    H163061   4.620   2.582  11.097  1.6785  2.0233  2.7850
13882TIP3    H263062   4.725   2.612  10.993  0.1191  0.7417  0.7814
13883TIP3   OH263063   0.261   0.412   5.916 -0.0093  0.0991 -0.1184
13883TIP3    H163064   0.188   0.368   5.959  0.6454 -2.4022 -1.3811
13883TIP3    H263065   0.328   0.421   5.984 -0.2151 -0.7413  0.2018
13884TIP3   OH263066   3.202   4.069  14.516 -0.4043  0.8814 -0.2805
13884TIP3    H163067   3.276   4.127  14.532  0.0894  0.0966  0.3917
13884TIP3    H263068   3.209   4.044  14.424  0.9346 -0.1914  0.0787
13885TIP3   OH263069   2.917   0.814   4.211  0.9131 -0.1545 -0.6709
13885TIP3    H163070   2.935   0.756   4.138  0.8618 -1.7498  0.5218
13885TIP3    H263071   2.934   0.760   4.289  1.6647  1.6840  0.4974
13886TIP3   OH263072   0.856   2.017   1.400  0.4087 -0.0542  0.1359
13886TIP3    H163073   0.838   1.943   1.342 -1.3814  1.7522 -1.7967
13886TIP3    H263074   0.874   2.090   1.341 -0.0608  1.5462  1.8757
13887TIP3   OH263075   6.487   3.033  14.536  0.2930 -0.3658 -0.3039
13887TIP3    H163076   6.536   3.045  14.617  0.1447 -0.8893 -0.1321
13887TIP3    H263077   6.488   2.938  14.521  0.4105 -0.2630 -0.9718
13888TIP3   OH263078   3.401   3.451  14.854 -0.0944 -0.1232 -0.1027
13888TIP3    H163079   3.314   3.452  14.814 -0.0826 -1.6939 -0.2341
13888TIP3    H263080   3.404   3.369  14.903  0.5781  0.8753  1.6147
13889TIP3   OH263081   4.233   6.044   1.545 -0.1635  0.4743  0.3616
13889TIP3    H163082   4.289   5.969   1.528 -1.8273 -0.1441 -3.1617
13889TIP3    H263083   4.292   6.119   1.542  1.2562 -0.4529  2.3575
13890TIP3   OH263084   0.466   4.160   2.331 -0.6941  0.3617  0.1992
13890TIP3    H163085   0.543   4.107   2.314 -1.8699 -0.8519 -1.7033
13890TIP3    H263086   0.425   4.120   2.407  0.1602  0.6007  0.7992
13891TIP3   OH263087   4.059   4.280   2.293  0.1049  0.4663  0.4247
13891TIP3    H163088   4.130   4.223   2.263 -1.1183 -0.9697  0.1643
13891TIP3    H263089   4.040   4.248   2.382 -0.8576  0.1853  0.1237
13892TIP3   OH263090   1.193   3.991   3.500  0.1161  0.1271  0.2214
13892TIP3    H163091   1.193   3.940   3.580  0.9759 -0.3327 -0.0659
13892TIP3    H263092   1.268   4.050   3.508 -1.4186  2.1180  0.9994
13893TIP3   OH263093   1.749   0.793  13.801  0.0611 -0.6684 -0.6111
13893TIP3    H163094   1.687   0.861  13.827  1.0039  0.2059 -0.5729
13893TIP3    H263095   1.767   0.744  13.882  1.2538  0.6182 -0.0567
13894TIP3   OH263096   6.004   4.458  14.453  0.9456 -0.0461 -0.1459
13894TIP3    H163097   5.936   4.484  14.390  0.9035 -0.0189 -0.0894
13894TIP3    H263098   5.988   4.366  14.470 -0.8473  0.5813  2.0387
13895TIP3   OH263099   4.547   0.749  17.013 -0.3435  0.0641 -0.3180
13895TIP3    H163100   4.519   0.705  17.093 -2.8269  1.5637 -0.2497
13895TIP3    H263101   4.472   0.803  16.988  0.8225  0.6171 -2.9748
13896TIP3   OH263102   2.400   1.830  16.260  0.1060 -0.4019  0.8729
13896TIP3    H163103   2.432   1.875  16.181 -2.4068 -1.1999 -0.7348
13896TIP3    H263104   2.462   1.759  16.274 -0.0241 -0.9719 -1.1479
13897TIP3   OH263105   3.525   1.672   1.208 -0.5311  0.3506  0.0601
13897TIP3    H163106   3.491   1.755   1.174  0.4212  0.1244 -1.5550
13897TIP3    H263107   3.447   1.618   1.221 -1.1999  1.5762  1.4971
13898TIP3   OH263108   6.437   1.682   4.026 -0.2679 -0.1958 -0.3967
13898TIP3    H163109   6.508   1.652   3.969 -1.3998 -1.2600 -1.3045
13898TIP3    H263110   6.361   1.689   3.969 -1.2118 -0.3232  0.7912
13899TIP3   OH263111   2.509   0.619   1.363 -0.2150 -0.1050 -0.4160
13899TIP3    H163112   2.583   0.585   1.312 -1.3855 -0.6421 -1.8190
13899TIP3    H263113   2.458   0.541   1.385 -0.3144  0.2503  0.6527
13900TIP3   OH263114   6.105   4.480  14.100 -0.6598 -0.5433 -0.1343
13900TIP3    H163115   6.024   4.528  14.084 -0.1524  0.4002  0.0633
13900TIP3    H263116   6.093   4.397  14.054 -1.6044 -0.2824 -0.3782
13901TIP3   OH263117   1.131   5.250   5.557  0.7204 -0.3140 -0.1537
13901TIP3    H163118   1.126   5.191   5.483  0.2438  0.8110 -1.0543
13901TIP3    H263119   1.044   5.248   5.596  0.1934  0.9932 -1.1825
13902TIP3   OH263120   2.108   1.057  14.720 -1.3540  0.3647  0.3955
13902TIP3    H163121   2.110   0.974  14.768  1.2295 -0.2650 -0.6605
13902TIP3    H263122   2.148   1.120  14.779  0.5465 -0.1125 -0.3096
13903TIP3   OH263123   5.543   1.031   1.357 -0.3152  0.7430 -0.2540
13903TIP3    H163124   5.457   1.022   1.314 -0.4774  0.3315  0.1441
13903TIP3    H263125   5.603   1.051   1.286 -0.8064  1.4186 -0.4873
13904TIP3   OH263126   5.711   6.502  16.939  0.2077 -0.5071 -0.5789
13904TIP3    H163127   5.772   6.466  17.003 -0.9805 -1.5335  0.0205
13904TIP3    H263128   5.742   6.467  16.855  1.5025  0.4816 -0.5465
13905TIP3   OH263129   4.287   0.871  13.603  0.0596  0.0460 -0.3778
13905TIP3    H163130   4.365   0.853  13.656 -0.1776 -2.0490 -0.6627
13905TIP3    H263131   4.214   0.839  13.656 -0.6127  1.6552 -0.2709
13906TIP3   OH263132   3.427   5.938   4.597  0.2138 -0.8383 -0.3102
13906TIP3    H163133   3.504   5.923   4.652 -1.3075 -1.1730  1.8391
13906TIP3    H263134   3.362   5.876   4.629 -2.0067  1.5318  0.1360
13907TIP3   OH263135   5.269   0.645  12.406 -0.7633  1.0119 -0.1539
13907TIP3    H163136   5.266   0.596  12.488  1.1440  1.6433  0.3296
13907TIP3    H263137   5.319   0.590  12.346 -1.5227  0.8834 -0.6875
13908TIP3   OH263138   3.168   5.445  11.781 -0.5973  0.3060  0.2338
13908TIP3    H163139   3.153   5.509  11.851  0.9605  0.4776  0.4317
13908TIP3    H263140   3.257   5.462  11.750 -0.4437 -1.2253 -0.2788
13909TIP3   OH263141   0.066   6.504  15.184  0.7521  0.2942  1.1614
13909TIP3    H163142   0.075   6.575  15.121  3.0722 -2.3128 -1.7696
13909TIP3    H263143   0.150   6.501  15.230  0.0692  0.4400  2.4685
13910TIP3   OH263144   3.306   5.911   4.297  0.4413  1.1713 -0.0285
13910TIP3    H163145   3.319   5.998   4.258 -0.9369  0.6787 -1.7156
13910TIP3    H263146   3.222   5.917   4.342 -1.0514  0.0242 -2.4685
13911TIP3   OH263147   1.713   1.646   6.586 -0.0220  0.4058  0.5818
13911TIP3    H163148   1.753   1.707   6.648  0.7759  0.5303 -0.0437
13911TIP3    H263149   1.676   1.701   6.517  0.7509  0.2035 -0.0150
13912TIP3   OH263150   1.879   4.730  11.900 -0.4823  0.1232  0.5918
13912TIP3    H163151   1.919   4.772  11.977  1.2902 -0.8373  0.2708
13912TIP3    H263152   1.805   4.681  11.936  0.3511 -0.3567  1.7434
13913TIP3   OH263153   4.054   3.235   6.047  0.1215 -0.1897 -0.4962
13913TIP3    H163154   4.025   3.241   6.139  2.1088  1.9145  0.0798
13913TIP3    H263155   4.095   3.148   6.041  3.5507  1.0261  1.8902
13914TIP3   OH263156   0.601   4.292  17.430 -0.3038 -1.0219 -0.3260
13914TIP3    H163157   0.672   4.282  17.366 -3.0358 -0.9805 -3.6491
13914TIP3    H263158   0.580   4.202  17.456  0.4048 -1.0956  0.0007
13915TIP3   OH263159   1.266   5.320   4.843 -0.4646  0.1302  0.2433
13915TIP3    H163160   1.198   5.321   4.775 -1.1115  0.4993  0.8851
13915TIP3    H263161   1.245   5.395   4.898  0.6880  0.4694  0.2381
13916TIP3   OH263162   4.034   2.789   5.542  0.0496 -0.1162 -0.0218
13916TIP3    H163163   4.120   2.753   5.524 -0.2438 -0.1414 -1.4571
13916TIP3    H263164   3.983   2.715   5.575  0.1338 -0.4760 -0.6827
13917TIP3   OH263165   3.610   3.222   6.094  0.0722  0.3716 -0.1112
13917TIP3    H163166   3.517   3.205   6.079 -0.2688  2.6092 -0.8992
13917TIP3    H263167   3.655   3.179   6.020 -0.6382  1.8413 -1.4482
13918TIP3   OH263168   1.281   5.434  13.634 -0.3652 -0.0985  0.0635
13918TIP3    H163169   1.287   5.491  13.710 -1.5523 -0.9925  0.8731
13918TIP3    H263170   1.271   5.346  13.671 -2.3701 -0.4031 -1.0953
13919TIP3   OH263171   4.403   5.246  16.683 -0.3414  0.0407 -0.1085
13919TIP3    H163172   4.388   5.199  16.765 -1.3807 -0.6548 -0.6789
13919TIP3    H263173   4.338   5.317  16.684  0.4674  0.7965  0.2222
13920TIP3   OH263174   2.840   3.700  16.984 -0.0757 -0.8915 -0.6011
13920TIP3    H163175   2.791   3.755  17.045  1.5325 -2.6674  2.5711
13920TIP3    H263176   2.896   3.762  16.936  3.1137  0.4509  4.1582
13921TIP3   OH263177   2.121   2.244  16.804  0.1523 -0.1892  0.0133
13921TIP3    H163178   2.215   2.225  16.808  0.1383 -0.7699 -1.7470
13921TIP3    H263179   2.092   2.207  16.721 -1.9373 -1.2195  1.1084
13922TIP3   OH263180   0.909   3.785   3.593 -0.3288 -0.3588  0.2488
13922TIP3    H163181   0.956   3.840   3.531  0.4911 -1.8917 -0.5663
13922TIP3    H263182   0.879   3.710   3.540  1.1954 -2.1839  1.8420
13923TIP3   OH263183   2.406   5.245  12.172 -0.0537 -0.9553  0.5060
13923TIP3    H163184   2.315   5.225  12.151  0.1236  1.0911 -3.1590
13923TIP3    H263185   2.453   5.233  12.089  2.6005  0.1594  1.7167
13924TIP3   OH263186   0.627   4.775   6.390  0.2954 -0.0985  0.4802
13924TIP3    H163187   0.689   4.823   6.336  0.3194  0.7470  1.2254
13924TIP3    H263188   0.677   4.752   6.469 -0.0249 -0.3743  0.6077
13925TIP3   OH263189   4.086   5.010  13.150 -0.3186  0.2671 -0.4573
13925TIP3    H163190   4.162   5.064  13.172  0.1299 -0.8545  0.9249
13925TIP3    H263191   4.116   4.956  13.077 -0.4853  1.2606 -1.2746
13926TIP3   OH263192   6.100   6.214   5.778  0.1925 -0.2918  0.2282
13926TIP3    H163193   6.183   6.261   5.771 -0.1413  0.1608 -1.1749
13926TIP3    H263194   6.120   6.137   5.831  0.4204  2.1101  4.0476
13927TIP3   OH263195   6.678   2.862  15.992  0.0460 -0.1887  0.1404
13927TIP3    H163196   6.671   2.769  16.010  4.6417 -0.3432  2.6446
13927TIP3    H263197   6.707   2.867  15.902 -0.9191 -1.0596 -0.2428
13928TIP3   OH263198   5.797   1.173   2.194 -0.2191 -0.2773 -0.3389
13928TIP3    H163199   5.715   1.125   2.206 -0.0473 -0.4450  0.2125
13928TIP3    H263200   5.858   1.130   2.254 -0.0884  0.7024  0.2395
13929TIP3   OH263201   5.624   3.591  15.294  0.1290  0.4075  0.5998
13929TIP3    H163202   5.704   3.644  15.292  0.0770  0.4788  0.3745
13929TIP3    H263203   5.638   3.530  15.366  0.2089  0.6944  0.8306
13930TIP3   OH263204   4.403   2.100   1.710 -0.3682  0.5115  0.3194
13930TIP3    H163205   4.325   2.104   1.654  0.3690  2.0502 -0.6739
13930TIP3    H263206   4.471   2.064   1.654 -0.3192 -0.7346  1.1568
13931TIP3   OH263207   4.046   2.655  12.927 -0.2594 -0.2447 -0.2229
13931TIP3    H163208   3.953   2.670  12.944 -0.3793  0.0511 -1.1079
13931TIP3    H263209   4.048   2.609  12.844  0.4268  0.4953 -0.6316
13932TIP3   OH263210   3.302   4.206  11.214 -0.5367  0.0874 -0.1059
13932TIP3    H163211   3.208   4.212  11.198 -0.5300  1.4798  0.2789
13932TIP3    H263212   3.309   4.160  11.298 -0.8120 -1.0962 -0.7125
13933TIP3   OH263213   1.888   6.316   3.062 -0.5932 -0.1460 -0.3538
13933TIP3    H163214   1.812   6.370   3.038  2.0089  3.3353 -1.6260
13933TIP3    H263215   1.885   6.311   3.157 -1.3669  1.6623 -0.2489
13934TIP3   OH263216   5.246   2.580   3.317 -0.0967 -0.4273  0.4092
13934TIP3    H163217   5.275   2.536   3.398  1.4454  1.2951  0.8708
13934TIP3    H263218   5.238   2.672   3.342  0.9208  0.2339 -1.5041
13935TIP3   OH263219   3.933   4.492  12.663 -0.5381 -0.6022  0.2291
13935TIP3    H163220   3.866   4.426  12.652 -0.0313 -1.0364 -0.3287
13935TIP3    H263221   3.920   4.553  12.590 -2.6758  1.4580  2.1598
13936TIP3   OH263222   0.050   3.090  12.117  0.4139  0.2202  0.2576
13936TIP3    H163223   0.131   3.117  12.072  0.4657 -0.5219 -0.1062
13936TIP3    H263224   0.006   3.172  12.138  0.4964  0.6005 -0.9568
13937TIP3   OH263225   2.349   3.797   6.721  0.2589 -0.3575 -0.5096
13937TIP3    H163226   2.436   3.808   6.758  0.4961  1.4187 -1.4773
13937TIP3    H263227   2.290   3.837   6.784 -0.0080 -2.3040  0.5535
13938TIP3   OH263228   6.098   3.102  15.433 -0.1879  0.4904  0.0125
13938TIP3    H163229   6.126   3.193  15.437 -0.7907  0.7215 -0.8303
13938TIP3    H263230   6.042   3.090  15.510 -0.1918  0.8562  0.0663
13939TIP3   OH263231   5.220   3.313  17.022  0.3129 -0.8579  0.0455
13939TIP3    H163232   5.251   3.256  16.951  1.1563 -0.9780  0.5023
13939TIP3    H263233   5.156   3.259  17.069 -1.8714 -0.0751 -1.8301
13940TIP3   OH263234   3.148   0.859   0.065  0.1127 -0.0744 -0.3905
13940TIP3    H163235   3.073   0.828   0.116  0.6833 -1.0346 -0.1041
13940TIP3    H263236   3.204   0.782   0.055  0.5836  0.3857 -1.4710
13941TIP3   OH263237   3.926   1.251   3.582  0.1977 -0.1137 -0.8295
13941TIP3    H163238   3.967   1.254   3.495  0.9553  0.7928 -0.4574
13941TIP3    H263239   3.915   1.158   3.600  1.3474 -0.3555 -1.2960
13942TIP3   OH263240   5.667   6.274   4.492 -0.3689 -0.2027  0.1508
13942TIP3    H163241   5.611   6.352   4.491 -1.2787 -0.8219 -1.1721
13942TIP3    H263242   5.721   6.283   4.414  0.5490 -0.2080  0.7759
13943TIP3   OH263243   5.239   4.685   0.773 -0.4936  0.0696  0.1389
13943TIP3    H163244   5.256   4.676   0.679  0.0703  2.6100 -0.0955
13943TIP3    H263245   5.145   4.697   0.780 -0.5653 -0.3704 -0.0729
13944TIP3   OH263246   3.742   6.737   3.907  0.1630 -0.5273  0.3148
13944TIP3    H163247   3.828   6.778   3.902 -0.2545  0.8255  2.6775
13944TIP3    H263248   3.688   6.785   3.844  0.9861 -1.0672 -0.8269
13945TIP3   OH263249   3.322   4.252   2.487 -0.2074 -0.2415  0.0448
13945TIP3    H163250   3.324   4.346   2.468 -0.3273 -0.1601  0.4370
13945TIP3    H263251   3.397   4.216   2.439  0.6047  0.2453  0.9292
13946TIP3   OH263252   3.612   6.468  14.129 -0.3308 -0.3824  0.0794
13946TIP3    H163253   3.553   6.447  14.057  0.7685  0.7627 -1.2234
13946TIP3    H263254   3.628   6.385  14.173 -2.3251 -0.8319  0.0450
13947TIP3   OH263255   2.656   6.541   5.934  0.0948 -0.1138  0.0928
13947TIP3    H163256   2.579   6.565   5.986 -1.8694 -1.6426 -1.9434
13947TIP3    H263257   2.676   6.451   5.961  1.0413  0.1703  0.3923
13948TIP3   OH263258   3.689   3.913  13.812 -0.1734 -0.6978 -0.8197
13948TIP3    H163259   3.668   3.880  13.900  3.1594 -1.1521 -0.0725
13948TIP3    H263260   3.723   3.837  13.766  0.2016  0.0271 -1.7551
13949TIP3   OH263261   4.439   0.824  15.590  0.8249  0.2164  0.4218
13949TIP3    H163262   4.354   0.851  15.556  0.9028 -0.4810 -0.3399
13949TIP3    H263263   4.485   0.906  15.608 -0.4105  0.6162  1.9109
13950TIP3   OH263264   6.121   0.194   3.555 -0.6264 -0.1463  0.3712
13950TIP3    H163265   6.062   0.269   3.555  0.0954  0.4434 -0.7169
13950TIP3    H263266   6.195   0.221   3.610 -0.4116 -0.0905  0.0585
13951TIP3   OH263267   1.853   3.442   3.634  0.0565 -0.2432 -0.0902
13951TIP3    H163268   1.820   3.454   3.722 -0.3785 -1.4350 -0.0817
13951TIP3    H263269   1.778   3.414   3.583  0.7848 -1.8756 -0.3148
13952TIP3   OH263270   3.981   6.455  15.043  0.4446 -0.1114 -0.0474
13952TIP3    H163271   3.990   6.547  15.019  1.7174  0.1802  1.3762
13952TIP3    H263272   3.903   6.453  15.099  1.5216  0.5186  1.5596
13953TIP3   OH263273   4.119   2.130   0.973 -0.4186 -0.4094  0.1177
13953TIP3    H163274   4.184   2.076   0.928 -0.2797 -0.7782  0.7620
13953TIP3    H263275   4.143   2.220   0.949  0.0377 -0.5686 -0.0336
13954TIP3   OH263276   2.856   5.354  15.289  1.1626  0.4707  0.0454
13954TIP3    H163277   2.863   5.436  15.338 -3.2905  1.1111  0.0368
13954TIP3    H263278   2.873   5.379  15.198 -0.2820  1.4896  0.0232
13955TIP3   OH263279   5.276   0.542  14.442 -0.2124  0.6011 -0.1684
13955TIP3    H163280   5.205   0.531  14.378 -0.7024  0.4445  0.3943
13955TIP3    H263281   5.356   0.541  14.389 -0.4341 -1.7932 -0.5840
13956TIP3   OH263282   2.100   2.890  12.159  0.1768 -0.1016  0.1793
13956TIP3    H163283   2.108   2.797  12.138  1.6308  0.1849 -0.7068
13956TIP3    H263284   2.079   2.892  12.252  0.6074 -1.3092  0.3174
13957TIP3   OH263285   3.003   1.711  12.949  0.3241 -0.4598  0.2707
13957TIP3    H163286   2.958   1.727  13.032 -2.2460  0.2676 -1.1531
13957TIP3    H263287   3.089   1.751  12.961 -0.7873  1.6838  1.8302
13958TIP3   OH263288   0.161   1.441   0.693 -0.0509 -0.2016  0.1372
13958TIP3    H163289   0.140   1.533   0.678  1.1848 -0.0373 -0.7153
13958TIP3    H263290   0.087   1.408   0.745 -0.7438  1.1382  0.0529
13959TIP3   OH263291   5.859   5.012   0.779  0.7578 -0.3611  0.3040
13959TIP3    H163292   5.820   4.952   0.715 -0.5446  0.5066  0.2472
13959TIP3    H263293   5.809   5.093   0.769 -0.5677 -0.6484  3.4840
13960TIP3   OH263294   1.628   6.269   1.145  0.0404  0.5010  0.1100
13960TIP3    H163295   1.538   6.245   1.169 -0.5561  1.6421 -0.8511
13960TIP3    H263296   1.619   6.314   1.061  1.6981 -0.6693 -0.7488
13961TIP3   OH263297   4.537   5.345   1.486 -0.5981 -0.2135  0.1602
13961TIP3    H163298   4.450   5.377   1.511 -1.1403 -1.3697 -0.1665
13961TIP3    H263299   4.587   5.345   1.568 -1.1869 -0.3844  0.5257
13962TIP3   OH263300   0.081   3.237   4.686  0.0085 -0.7260 -0.5975
13962TIP3    H163301   0.173   3.228   4.710 -0.1036 -2.0807 -0.6497
13962TIP3    H263302   0.034   3.233   4.769 -0.0589 -0.8273 -0.6406
13963TIP3   OH263303   0.481   5.213   2.947 -0.1019  0.2615  0.2499
13963TIP3    H163304   0.537   5.209   2.869 -0.4931  0.4982 -0.0475
13963TIP3    H263305   0.516   5.145   3.004  1.2675  1.2033  0.6014
13964TIP3   OH263306   5.901   3.459  11.758  0.1395  0.3203 -0.0384
13964TIP3    H163307   5.994   3.461  11.782 -0.1682 -0.1288  1.3263
13964TIP3    H263308   5.894   3.515  11.681  1.4538  0.8140  0.1806
13965TIP3   OH263309   6.152   2.448   4.405  0.2673 -0.1368 -0.3394
13965TIP3    H163310   6.170   2.427   4.314  1.8728 -0.4663  0.0256
13965TIP3    H263311   6.232   2.423   4.452  0.3813  2.1372  0.8201
13966TIP3   OH263312   2.255   0.128   2.119  0.0830  0.1386 -0.2483
13966TIP3    H163313   2.322   0.183   2.160  0.1626 -1.1911  1.5573
13966TIP3    H263314   2.271   0.136   2.025  0.1162  3.1102 -0.0975
13967TIP3   OH263315   2.777   1.750  13.892 -0.3276  0.2866  0.4203
13967TIP3    H163316   2.766   1.680  13.827  0.4990 -0.2227  0.8040
13967TIP3    H263317   2.870   1.746  13.915 -0.4364  1.0111  1.0212
13968TIP3   OH263318   6.656   0.517  13.558 -0.5735  0.4014  0.0954
13968TIP3    H163319   6.613   0.472  13.630 -0.4275 -1.4983 -0.9304
13968TIP3    H263320   6.643   0.459  13.482  2.3038  0.5300 -0.6181
13969TIP3   OH263321   5.888   6.224  16.340  0.2561  0.0609 -0.6093
13969TIP3    H163322   5.821   6.156  16.335 -0.5855  0.8281 -0.1418
13969TIP3    H263323   5.841   6.305  16.321  1.4080  0.4363 -1.9644
13970TIP3   OH263324   3.055   2.823   2.817  0.4411  0.2821 -0.3051
13970TIP3    H163325   3.023   2.867   2.738  0.0299 -0.2426 -0.4344
13970TIP3    H263326   3.141   2.788   2.792  0.3791  0.2493 -0.4706
13971TIP3   OH263327   6.037   2.455   1.603 -0.3668 -0.5650 -0.5735
13971TIP3    H163328   6.122   2.449   1.647  0.0464 -2.4715 -1.5404
13971TIP3    H263329   6.044   2.534   1.549  0.4145 -0.1706  0.0843
13972TIP3   OH263330   3.236   0.166   1.421 -0.2597 -0.5200  0.6183
13972TIP3    H163331   3.169   0.234   1.419 -0.1856 -0.4377  0.8355
13972TIP3    H263332   3.187   0.083   1.420 -0.3696 -0.4594  0.9355
13973TIP3   OH263333   4.658   0.662  11.628  0.3437 -0.0901  0.3570
13973TIP3    H163334   4.607   0.737  11.597  0.1046 -0.1564  0.5882
13973TIP3    H263335   4.626   0.588  11.576 -0.0676 -0.2041  0.7682
13974TIP3   OH263336   5.409   1.339  12.772 -0.1395  0.2331  0.1297
13974TIP3    H163337   5.372   1.406  12.715  1.0336 -0.1646 -1.1634
13974TIP3    H263338   5.480   1.301  12.720 -1.2798 -2.5874  0.4750
13975TIP3   OH263339   6.558   1.322   0.208  0.3014 -0.1533  0.9183
13975TIP3    H163340   6.552   1.334   0.113  0.9800 -3.6449  0.2858
13975TIP3    H263341   6.566   1.410   0.243 -1.2186  1.3512 -2.1401
13976TIP3   OH263342   6.020   3.402  13.613 -0.0834 -0.3781 -0.2244
13976TIP3    H163343   6.054   3.492  13.617 -0.7002 -0.1743  0.7497
13976TIP3    H263344   6.013   3.376  13.705 -2.4506 -0.4443 -0.3812
13977TIP3   OH263345   4.175   5.085   5.693 -0.2916 -0.0371 -0.2579
13977TIP3    H163346   4.224   5.165   5.714  0.1928 -0.6010  0.8535
13977TIP3    H263347   4.203   5.063   5.604 -2.5470  2.5408 -1.7682
13978TIP3   OH263348   2.477   5.644   4.388  0.8018  0.1667 -0.3141
13978TIP3    H163349   2.523   5.680   4.312  0.3905 -0.5095 -0.8878
13978TIP3    H263350   2.430   5.568   4.355 -0.3408  0.5431  0.3581
13979TIP3   OH263351   0.023   3.545  14.539  0.6175  0.1758 -0.5689
13979TIP3    H163352  -0.006   3.614  14.479  1.4767 -0.0514 -1.2717
13979TIP3    H263353   0.118   3.540  14.526  0.9369  0.5489  1.2892
13980TIP3   OH263354   3.756   4.461  12.874 -0.2989 -0.1239  0.2881
13980TIP3    H163355   3.696   4.535  12.867  0.6584  0.5955 -0.6478
13980TIP3    H263356   3.834   4.489  12.826  0.2118 -1.6161  0.2088
13981TIP3   OH263357   4.983   6.197   5.154  0.4803 -0.6163 -0.0392
13981TIP3    H163358   4.904   6.150   5.180 -0.9725  1.1666 -0.9529
13981TIP3    H263359   5.011   6.242   5.234 -0.0894 -0.3957  0.0467
13982TIP3   OH263360   5.775   0.527   2.440  0.6014  0.3704  0.3174
13982TIP3    H163361   5.828   0.517   2.519 -0.3635 -2.5441  0.7402
13982TIP3    H263362   5.687   0.544   2.473  0.4541  0.5786 -0.1824
13983TIP3   OH263363   3.991   3.812  16.168 -0.1900  0.7338  0.1744
13983TIP3    H163364   3.906   3.856  16.165 -0.5984  0.1989  2.4282
13983TIP3    H263365   3.970   3.719  16.163  0.0779  0.5142  2.4010
13984TIP3   OH263366   4.212   1.962  16.186 -0.2374 -0.1513 -0.0762
13984TIP3    H163367   4.166   1.921  16.259  0.7483 -0.2850  0.4835
13984TIP3    H263368   4.289   2.002  16.226  0.5522 -0.6123 -1.1028
13985TIP3   OH263369   5.180   3.314   5.492  0.0764  0.1265  0.2807
13985TIP3    H163370   5.268   3.291   5.523 -0.2525  1.1465  2.0940
13985TIP3    H263371   5.161   3.248   5.425  1.5996 -1.0600  0.9426
13986TIP3   OH263372   5.284   0.103  13.317  0.2307  0.1486 -0.4181
13986TIP3    H163373   5.228   0.171  13.280 -1.1244 -0.5648  0.2304
13986TIP3    H263374   5.337   0.072  13.244 -1.2100 -0.0908 -1.3956
13987TIP3   OH263375   0.721   1.068  15.299 -0.0823 -0.3606  0.1001
13987TIP3    H163376   0.645   1.017  15.328  0.2918  0.1941  2.2224
13987TIP3    H263377   0.683   1.148  15.262 -0.5677  0.1369  1.5993
13988TIP3   OH263378   3.913   6.237   2.750  0.5044  0.1611  0.3142
13988TIP3    H163379   3.881   6.163   2.801 -1.4065 -1.0042 -2.3631
13988TIP3    H263380   3.852   6.308   2.769  0.8821  0.3041  1.0114
13989TIP3   OH263381   6.252   6.164  16.463 -0.1471  0.4898 -0.3720
13989TIP3    H163382   6.287   6.142  16.377  2.2197 -0.1744  0.6703
13989TIP3    H263383   6.249   6.260  16.463  2.2785  0.6316 -0.3859
13990TIP3   OH263384   0.532   4.218  17.031 -0.1718  0.2729 -0.0022
13990TIP3    H163385   0.511   4.283  17.097  2.5441  0.6767  0.5916
13990TIP3    H263386   0.458   4.157  17.033 -1.2389  1.5213  1.7429
13991TIP3   OH263387   5.525   5.083   6.353  0.0313 -0.1058  0.3225
13991TIP3    H163388   5.587   5.155   6.371  0.6531 -0.2898 -0.9466
13991TIP3    H263389   5.453   5.125   6.306 -0.5903  0.0275  1.3856
13992TIP3   OH263390   5.698   4.948   2.411 -0.1258 -0.2207 -0.0989
13992TIP3    H163391   5.782   4.910   2.437 -0.5089 -2.3282 -1.6941
13992TIP3    H263392   5.633   4.883   2.439 -1.1617  0.9429  0.2686
13993TIP3   OH263393   6.076   5.958   6.141 -0.1558 -0.1172  0.0012
13993TIP3    H163394   6.042   6.005   6.217 -0.7662  1.0496 -0.9506
13993TIP3    H263395   6.169   5.980   6.139 -0.2756  0.3997  0.0340
13994TIP3   OH263396   3.417   1.877  15.039 -0.5154 -0.5073  0.4974
13994TIP3    H163397   3.425   1.919  15.124  0.3727  0.0922  0.1304
13994TIP3    H263398   3.325   1.855  15.031 -0.8133  0.4862  1.1133
13995TIP3   OH263399   4.628   2.547   5.526 -0.5210  0.0936 -0.2618
13995TIP3    H163400   4.603   2.609   5.595  1.6611 -0.5077  1.1511
13995TIP3    H263401   4.679   2.599   5.464 -0.1442  0.0641  0.0244
13996TIP3   OH263402   4.459   3.116  14.566  0.8977 -0.0872 -0.0742
13996TIP3    H163403   4.525   3.130  14.634  0.2866 -1.5048  0.8486
13996TIP3    H263404   4.418   3.202  14.556  1.4539  0.3080  0.8644
13997TIP3   OH263405   4.594   2.721   3.235  0.0700 -0.3632  0.1052
13997TIP3    H163406   4.648   2.697   3.311  0.9336 -1.2067 -0.7437
13997TIP3    H263407   4.658   2.734   3.164 -0.6261  1.5147 -0.2244
13998TIP3   OH263408   1.649   4.783  15.599  0.1801  0.0306 -0.1454
13998TIP3    H163409   1.674   4.704  15.647  0.4378 -0.6077 -1.2761
13998TIP3    H263410   1.702   4.779  15.519 -0.8114  0.6345 -0.8455
13999TIP3   OH263411   4.089   5.021  15.806  0.0242 -0.4095  0.3117
13999TIP3    H163412   4.005   5.065  15.820  0.3211 -0.4359  2.5376
13999TIP3    H263413   4.155   5.090  15.819  0.4298 -1.0818  2.1293
14000TIP3   OH263414   2.989   6.562  11.782  0.5465  0.1483 -0.2010
14000TIP3    H163415   3.003   6.539  11.690 -1.4082 -0.0222 -0.5034
14000TIP3    H263416   2.894   6.565  11.791  0.7110  0.3905  1.7756
14001TIP3   OH263417   0.813   0.324  13.364 -0.2640  0.3377 -0.0301
14001TIP3    H163418   0.865   0.402  13.380 -1.7577  1.4234 -0.2514
14001TIP3    H263419   0.783   0.297  13.451 -1.7749  1.5015 -0.1559
14002TIP3   OH263420   3.814   0.397   0.529  0.4079  0.2635  0.1282
14002TIP3    H163421   3.814   0.459   0.602 -0.4797  1.0518 -0.5149
14002TIP3    H263422   3.864   0.441   0.461 -0.5279  0.4375 -0.4579
14003TIP3   OH263423   0.845   6.524   0.662 -0.0991  0.0393  0.2701
14003TIP3    H163424   0.901   6.598   0.638 -0.6187  0.1074 -0.8051
14003TIP3    H263425   0.884   6.489   0.742  1.0871  0.5005 -0.0780
14004TIP3   OH263426   5.685   4.562   2.416 -0.0210 -0.2270 -0.7508
14004TIP3    H163427   5.762   4.620   2.417 -0.6837  0.8902  3.3400
14004TIP3    H263428   5.610   4.622   2.418 -0.7952 -1.1952  0.8630
14005TIP3   OH263429   4.888   0.680  10.772  0.0954  0.2711  0.2366
14005TIP3    H163430   4.925   0.669  10.685 -0.4237 -0.6480  0.1141
14005TIP3    H263431   4.960   0.715  10.825  0.3128  1.1959 -0.6312
14006TIP3   OH263432   4.303   2.686   0.500  0.2620  0.1614  0.6192
14006TIP3    H163433   4.240   2.647   0.439  0.2332 -0.7961  1.2396
14006TIP3    H263434   4.274   2.777   0.509  0.5249  0.4570 -1.1224
14007TIP3   OH263435   4.165   3.379   2.878  0.0050 -0.1863 -0.4870
14007TIP3    H163436   4.232   3.420   2.823  0.2930 -0.0231 -0.0168
14007TIP3    H263437   4.088   3.374   2.821 -0.3273  1.8355 -0.2825
14008TIP3   OH263438   2.185   0.116   1.372 -0.1298  0.1057  0.6693
14008TIP3    H163439   2.147   0.029   1.380  1.8308 -0.8008  0.6755
14008TIP3    H263440   2.265   0.103   1.321 -0.7938  2.2335 -1.0953
14009TIP3   OH263441   0.091   1.303  12.861 -0.0089  0.0894  0.5348
14009TIP3    H163442   0.094   1.299  12.765 -0.5697 -1.9455  0.5432
14009TIP3    H263443   0.019   1.362  12.880 -0.2593  0.0815 -0.3210
14010TIP3   OH263444   6.350   4.149   0.158  0.4720 -0.0770  0.4965
14010TIP3    H163445   6.415   4.082   0.176 -1.0125 -0.9618  2.9976
14010TIP3    H263446   6.338   4.195   0.241 -1.0785  0.9775 -0.2497
14011TIP3   OH263447   4.003   3.523  15.236  0.5134 -0.3888  0.1725
14011TIP3    H163448   3.946   3.599  15.248  0.4735 -0.5264  0.8448
14011TIP3    H263449   4.092   3.557  15.245  0.5460 -0.2178 -0.6512
14012TIP3   OH263450   5.639   6.537   1.112 -0.4545  0.1504  0.0825
14012TIP3    H163451   5.636   6.451   1.153  2.9192 -0.6785 -1.1231
14012TIP3    H263452   5.720   6.576   1.144 -0.4459  1.6747 -1.6608
14013TIP3   OH263453   4.928   4.256  13.386 -0.0198  0.2889 -0.1770
14013TIP3    H163454   4.886   4.202  13.318 -0.3510 -1.0084  1.0023
14013TIP3    H263455   4.878   4.338  13.385 -2.0032 -0.8392  0.4992
14014TIP3   OH263456   3.106   6.170   0.328 -0.1875 -0.7284  0.1037
14014TIP3    H163457   3.175   6.236   0.332 -0.4364 -0.4817  0.3672
14014TIP3    H263458   3.151   6.087   0.345 -0.0411 -0.5102  0.8039
14015TIP3   OH263459   2.267   5.172  17.209  0.3893  0.1902  0.2683
14015TIP3    H163460   2.234   5.087  17.179  3.0548 -0.3767 -1.4836
14015TIP3    H263461   2.223   5.236  17.154  0.8098 -0.3834 -0.7777
14016TIP3   OH263462   2.513   4.945   1.875  0.0602 -0.2676  0.7442
14016TIP3    H163463   2.425   4.980   1.865  0.3564  0.1601 -0.5911
14016TIP3    H263464   2.535   4.961   1.967 -0.5075  1.4000  0.6188
14017TIP3   OH263465   1.224   0.579   4.423  0.0697 -0.2803  0.6468
14017TIP3    H163466   1.292   0.527   4.467  1.0086  1.1883  1.0144
14017TIP3    H263467   1.152   0.582   4.486  0.4337 -0.2468  1.0704
14018TIP3   OH263468   1.442   2.951  17.166  0.0982 -0.0477  0.1590
14018TIP3    H163469   1.466   2.867  17.127  2.0673 -0.3207  1.7614
14018TIP3    H263470   1.508   3.012  17.132  0.1359  0.3108  0.8648
14019TIP3   OH263471   2.395   3.835  12.034 -0.3815 -0.1910  0.0903
14019TIP3    H163472   2.409   3.827  11.940 -1.5176 -1.8853  0.0110
14019TIP3    H263473   2.352   3.753  12.059 -1.8483  0.9910  1.7399
14020TIP3   OH263474   0.780   4.295   2.514  0.3441  0.1831  0.2534
14020TIP3    H163475   0.741   4.328   2.433 -0.5021  1.6635  1.2120
14020TIP3    H263476   0.863   4.342   2.521  0.8598 -0.6490 -0.2207
14021TIP3   OH263477   6.665   1.496  17.015  0.4482  0.1827  0.6615
14021TIP3    H163478   6.679   1.588  16.992 -0.7774  0.2779  0.2369
14021TIP3    H263479   6.682   1.449  16.933  0.3903  0.0922  0.7040
14022TIP3   OH263480   2.462   5.958   0.163 -0.0835  0.9282  0.1038
14022TIP3    H163481   2.402   6.016   0.115  1.0545  2.2232  0.1880
14022TIP3    H263482   2.467   5.879   0.109  0.2649  1.8909 -1.3267
14023TIP3   OH263483   2.083   0.859  14.489  0.0807  0.7834  0.3299
14023TIP3    H163484   2.089   0.938  14.542  1.0266  0.5421  0.6015
14023TIP3    H263485   1.999   0.820  14.513 -0.5030  1.8074  0.0289
14024TIP3   OH263486   0.209   0.878  13.039  0.4343  0.1100  0.0987
14024TIP3    H163487   0.212   0.923  13.124  0.8181 -0.8208  0.5820
14024TIP3    H263488   0.187   0.788  13.060  0.0184 -0.0192 -0.8439
14025TIP3   OH263489   2.195   0.101   5.941  0.1694  0.1951 -0.3258
14025TIP3    H163490   2.108   0.109   5.902  0.7284 -0.7425 -1.8499
14025TIP3    H263491   2.178   0.075   6.032 -1.1477  1.0748 -0.2972
14026TIP3   OH263492   1.654   3.279  11.943 -0.1597 -0.0220  0.0427
14026TIP3    H163493   1.597   3.230  11.884  1.0510 -0.9177 -0.4292
14026TIP3    H263494   1.714   3.327  11.886 -0.4175  0.9078  0.5293
14027TIP3   OH263495   3.495   3.245   4.203  0.3380  0.4326  0.1352
14027TIP3    H163496   3.577   3.230   4.156 -0.0621 -0.9524 -0.1615
14027TIP3    H263497   3.429   3.252   4.135  0.0065  0.1023  0.4159
14028TIP3   OH263498   2.491   4.763  12.716  1.0709 -0.4321 -0.2278
14028TIP3    H163499   2.423   4.755  12.649  0.6123 -0.4295  0.2353
14028TIP3    H263500   2.562   4.706  12.684  1.8301  1.3138 -1.8792
14029TIP3   OH263501   0.362   0.209  15.173 -0.1265  0.2395 -0.1194
14029TIP3    H163502   0.423   0.282  15.183 -0.8694  0.7102  1.0278
14029TIP3    H263503   0.280   0.240  15.209 -0.8470 -0.6790 -0.9167
14030TIP3   OH263504   6.352   4.695   4.809  0.2317  0.0294 -0.3903
14030TIP3    H163505   6.271   4.716   4.762 -0.7885 -1.0563  0.8082
14030TIP3    H263506   6.348   4.750   4.887  0.0001 -0.9439  0.3002
14031TIP3   OH263507   5.358   3.201  15.299  0.4890  0.0685 -0.2460
14031TIP3    H163508   5.396   3.289  15.295  2.7162 -0.8280 -0.3429
14031TIP3    H263509   5.359   3.170  15.209 -2.2063  0.6161 -0.5498
14032TIP3   OH263510   5.983   5.082  10.809 -0.3333  0.1027  0.1259
14032TIP3    H163511   5.922   5.156  10.801 -0.5997 -0.0210  0.9234
14032TIP3    H263512   5.935   5.008  10.772 -0.4029  0.1463  0.1277
14033TIP3   OH263513   5.697   4.257  13.370  0.2166 -0.0198 -0.2521
14033TIP3    H163514   5.742   4.234  13.289 -0.9357 -0.3140 -0.8376
14033TIP3    H263515   5.668   4.347  13.357  2.2405  0.8608  0.8933
14034TIP3   OH263516   5.017   4.214   4.620 -0.4684  0.0266  0.4768
14034TIP3    H163517   5.034   4.182   4.709  1.6398  0.7625  0.3945
14034TIP3    H263518   4.998   4.135   4.569  1.7217 -0.8211  0.8795
14035TIP3   OH263519   1.101   1.208  11.971  0.3238  0.1100 -0.2392
14035TIP3    H163520   1.169   1.231  11.908  0.3305  0.3380 -0.1467
14035TIP3    H263521   1.043   1.284  11.974 -0.0274 -0.1467 -0.4405
14036TIP3   OH263522   1.768   3.964  16.753  0.0713 -0.1873 -0.3673
14036TIP3    H163523   1.781   3.970  16.848  0.9808 -0.1783 -0.4828
14036TIP3    H263524   1.681   4.001  16.739  0.0723  0.1526  0.4223
14037TIP3   OH263525   3.009   5.901   0.084 -0.4134 -0.1702  0.6996
14037TIP3    H163526   2.924   5.907   0.040 -0.4095 -1.0529  0.5623
14037TIP3    H263527   2.989   5.864   0.170 -0.1718 -0.3255  0.6895
14038TIP3   OH263528   5.753   1.632  14.279 -0.4667 -0.0430  0.5297
14038TIP3    H163529   5.658   1.625  14.274 -0.3854 -0.6579 -0.4135
14038TIP3    H263530   5.781   1.550  14.320 -0.5026  1.3048  3.4517
14039TIP3   OH263531   3.315   2.309  13.158  0.7392 -0.2451 -0.0605
14039TIP3    H163532   3.262   2.276  13.231  1.7017  0.4496  0.9946
14039TIP3    H263533   3.305   2.404  13.163 -1.9630 -0.2115 -3.0292
14040TIP3   OH263534   3.577   3.749   5.567 -0.0053 -0.8380 -0.2385
14040TIP3    H163535   3.507   3.730   5.504 -0.2718 -0.0967 -0.1773
14040TIP3    H263536   3.597   3.665   5.607  0.8600 -1.5182 -2.0170
14041TIP3   OH263537   5.162   4.457  11.795 -0.4414 -0.1905 -0.1372
14041TIP3    H163538   5.201   4.513  11.862  1.3598 -0.1230 -1.1730
14041TIP3    H263539   5.222   4.464  11.721 -2.0557 -0.7551 -1.5385
14042TIP3   OH263540   6.257   2.894  16.746 -0.2406 -0.2886 -0.4144
14042TIP3    H163541   6.352   2.897  16.733 -0.0652  1.3162  0.8543
14042TIP3    H263542   6.239   2.803  16.767  0.8118 -0.8901 -1.8972
14043TIP3   OH263543   5.457   0.089  15.362 -0.4784  0.3625 -0.6857
14043TIP3    H163544   5.368   0.062  15.384 -0.5596  0.4790 -0.8743
14043TIP3    H263545   5.501   0.008  15.337  0.0152 -0.0243  1.2130
14044TIP3   OH263546   0.201   6.717  11.365  0.3149  0.0797 -0.5430
14044TIP3    H163547   0.118   6.746  11.403  1.3266  1.9903  0.3190
14044TIP3    H263548   0.189   6.730  11.271 -0.8250 -1.0062 -0.5860
14045TIP3   OH263549   2.401   1.280  14.407  0.0853  0.0531 -0.3426
14045TIP3    H163550   2.452   1.338  14.350  0.6958  0.0541  0.1955
14045TIP3    H263551   2.315   1.322  14.413  0.0936  0.1918 -1.0418
14046TIP3   OH263552   6.077   5.743   2.430  0.1655 -0.1209  0.6386
14046TIP3    H163553   6.136   5.819   2.432 -0.3965  0.3617 -0.4766
14046TIP3    H263554   6.102   5.695   2.352 -1.2795  0.4055 -0.1749
14047TIP3   OH263555   4.424   0.930  12.459 -0.6973  0.5021 -0.3539
14047TIP3    H163556   4.484   1.003  12.444  0.9069 -0.4818  0.8609
14047TIP3    H263557   4.337   0.969  12.456  0.0077  2.0965 -1.6163
14048TIP3   OH263558   2.970   4.833  16.630 -0.4839 -0.0353  0.5492
14048TIP3    H163559   2.972   4.865  16.720  0.0138  3.5336 -0.5754
14048TIP3    H263560   3.063   4.825  16.606 -0.5915 -2.0765  0.6118
14049TIP3   OH263561   6.149   1.207   4.233  0.1588 -1.1852  0.1014
14049TIP3    H163562   6.205   1.259   4.175  0.2677 -0.0013  1.2274
14049TIP3    H263563   6.210   1.162   4.292  0.0635 -2.6043 -0.8384
14050TIP3   OH263564   1.519   6.517  11.203  0.4422  0.1960 -0.0549
14050TIP3    H163565   1.443   6.569  11.175  1.2861  0.3029 -2.4052
14050TIP3    H263566   1.499   6.428  11.173  0.8751  0.0503  0.0830
14051TIP3   OH263567   5.493   1.086  12.853 -0.1566 -0.3891 -0.1125
14051TIP3    H163568   5.515   1.081  12.760  0.0905 -0.4476 -0.0520
14051TIP3    H263569   5.457   1.174  12.865 -0.3045 -0.4265 -0.2882
14052TIP3   OH263570   1.404   4.615  17.037 -0.0375  0.3277 -0.1789
14052TIP3    H163571   1.329   4.663  17.072 -0.7247 -0.9661  0.1904
14052TIP3    H263572   1.472   4.681  17.027 -0.9262  1.3600  0.3658
14053TIP3   OH263573   1.679   5.381  14.490  0.2466 -0.8659 -0.1778
14053TIP3    H163574   1.615   5.334  14.543  0.4230 -0.9242 -0.0135
14053TIP3    H263575   1.741   5.417  14.554 -2.3351  3.5736  0.1900
14054TIP3   OH263576   5.369   1.466   5.424  0.0889  0.0235 -0.2700
14054TIP3    H163577   5.291   1.418   5.453 -0.3033  0.5193 -0.4724
14054TIP3    H263578   5.341   1.510   5.344  0.5191  0.3681 -0.2359
14055TIP3   OH263579   2.655   0.675   1.044 -0.2868 -0.1306  0.0235
14055TIP3    H163580   2.734   0.703   1.090 -1.2316  0.5218  1.3386
14055TIP3    H263581   2.672   0.692   0.952 -0.3702  3.9046  0.5757
14056TIP3   OH263582   6.678   4.434   1.644  0.2718  0.0438  0.2741
14056TIP3    H163583   6.614   4.383   1.694 -1.0715  0.6228 -0.8102
14056TIP3    H263584   6.627   4.479   1.577  1.9176 -0.1422 -1.1858
14057TIP3   OH263585   0.183   3.042   1.179  0.0296  0.1762  0.0208
14057TIP3    H163586   0.088   3.048   1.188 -0.3675 -1.1605 -2.4252
14057TIP3    H263587   0.215   3.033   1.269 -2.2562 -0.6508  0.8325
14058TIP3   OH263588   2.192   1.411   1.042  0.1712 -0.0856 -0.3939
14058TIP3    H163589   2.203   1.330   1.091 -0.0961  0.1431  0.0482
14058TIP3    H263590   2.142   1.468   1.100 -0.7353 -0.0478 -1.1976
14059TIP3   OH263591   5.431   0.100  16.526  0.7509  0.5546  0.5182
14059TIP3    H163592   5.524   0.124  16.523  1.4660 -1.8988  0.6699
14059TIP3    H263593   5.424   0.038  16.599 -0.4598 -1.2358 -1.0111
14060TIP3   OH263594   5.247   2.073  12.910 -0.0465  0.0692 -0.4246
14060TIP3    H163595   5.196   1.997  12.884 -0.4844  0.0845  0.3772
14060TIP3    H263596   5.299   2.044  12.985  0.8715  0.1547 -1.0102
14061TIP3   OH263597   2.973   1.582  11.143  0.0002  0.2054 -0.5782
14061TIP3    H163598   2.915   1.507  11.160 -0.8013  1.2687  1.7348
14061TIP3    H263599   2.922   1.639  11.086 -0.0161 -0.2624 -1.0379
14062TIP3   OH263600   0.753   6.282   5.222  0.0635 -0.0807  0.3168
14062TIP3    H163601   0.765   6.206   5.278 -0.8972  0.9560  2.0166
14062TIP3    H263602   0.803   6.262   5.143  0.5548 -2.0720  1.0766
14063TIP3   OH263603   0.679   3.336  13.968 -0.1558 -0.2609  0.0017
14063TIP3    H163604   0.677   3.371  14.057 -0.4342 -0.2743  0.0018
14063TIP3    H263605   0.646   3.247  13.977  0.2663 -0.4243 -0.0442
14064TIP3   OH263606   5.081   4.637   1.747 -0.9398  0.4743 -0.0509
14064TIP3    H163607   5.097   4.580   1.672 -0.0003 -1.4025  1.4801
14064TIP3    H263608   5.018   4.589   1.800  0.1976  0.6102  1.4905
14065TIP3   OH263609   4.961   1.240   0.948  0.0538 -0.2692  0.2509
14065TIP3    H163610   4.895   1.187   0.904  0.2459  0.7235 -1.2731
14065TIP3    H263611   4.948   1.329   0.914  1.4077  0.1687  0.8145
14066TIP3   OH263612   2.225   4.845   2.910  0.4989  0.4629  0.0833
14066TIP3    H163613   2.133   4.847   2.885 -0.1706  3.3521  2.2868
14066TIP3    H263614   2.261   4.928   2.879  2.6272 -0.9018 -1.3682
14067TIP3   OH263615   2.147   2.303  11.652 -0.5065  0.3177  0.3372
14067TIP3    H163616   2.055   2.276  11.656 -0.3333 -0.1411  1.5205
14067TIP3    H263617   2.154   2.373  11.717 -0.2735  1.1834 -0.5931
14068TIP3   OH263618   6.175   2.003   1.349  0.4128  0.3286  0.2676
14068TIP3    H163619   6.247   1.955   1.390  1.8807  1.6376 -0.6395
14068TIP3    H263620   6.143   1.945   1.280  0.0639 -0.5735  1.1631
14069TIP3   OH263621   3.095   2.162  12.499  0.1282  0.0723 -0.1315
14069TIP3    H163622   3.145   2.116  12.432 -1.2981 -0.7042 -0.7100
14069TIP3    H263623   3.015   2.111  12.508 -0.6683  1.3942  0.5907
14070TIP3   OH263624   1.743   0.660  16.555 -0.2883  0.6998  0.0318
14070TIP3    H163625   1.825   0.637  16.512 -0.2339  0.3768  0.3045
14070TIP3    H263626   1.675   0.634  16.493 -0.2151  0.1319  0.1890
14071TIP3   OH263627   2.345   1.139  17.107  0.3386  0.8706 -0.1452
14071TIP3    H163628   2.345   1.210  17.170 -0.6545  0.3326  0.4869
14071TIP3    H263629   2.254   1.108  17.105  0.1892  1.2603 -2.2882
14072TIP3   OH263630   0.576   2.426   3.895  0.2071 -0.1432  0.1246
14072TIP3    H163631   0.598   2.487   3.965  0.7716  1.1520 -1.1452
14072TIP3    H263632   0.519   2.475   3.836 -0.8279 -1.4292  0.0028
14073TIP3   OH263633   6.315   4.143   4.302 -0.1687 -0.9322  0.2346
14073TIP3    H163634   6.385   4.118   4.362 -0.5701  1.1362  1.6647
14073TIP3    H263635   6.242   4.086   4.325  0.1399 -1.1438  0.7142
14074TIP3   OH263636   2.886   6.711   0.251 -0.6412 -0.0155  0.0910
14074TIP3    H163637   2.957   6.708   0.315 -1.0846  0.4038  0.6211
14074TIP3    H263638   2.844   6.625   0.257 -2.0043  0.7013  1.9464
14075TIP3   OH263639   2.011   1.193  13.387 -0.7277  0.1746 -0.2753
14075TIP3    H163640   2.080   1.214  13.324  0.1048 -1.2630  0.0931
14075TIP3    H263641   1.942   1.153  13.334  0.0513 -1.2112 -0.3047
14076TIP3   OH263642   4.718   0.683   5.031  0.2559 -0.0413 -0.1466
14076TIP3    H163643   4.721   0.765   5.082  0.0516 -0.4936  0.6087
14076TIP3    H263644   4.785   0.628   5.070 -1.8624 -1.5176  1.6509
14077TIP3   OH263645   0.959   4.546  13.580  0.1048  0.1975  0.1781
14077TIP3    H163646   0.912   4.616  13.536 -0.0818 -0.4583 -0.6762
14077TIP3    H263647   1.047   4.583  13.595 -1.1448  2.2294  3.6892
14078TIP3   OH263648   3.863   1.301   4.379  0.2165 -0.0904  0.2360
14078TIP3    H163649   3.955   1.330   4.382  0.4153 -0.4075 -1.6619
14078TIP3    H263650   3.868   1.210   4.349 -0.7803  0.4851 -1.8415
14079TIP3   OH263651   4.181   4.427  11.769  0.6377 -0.0896  0.2959
14079TIP3    H163652   4.275   4.417  11.757  0.5852  0.3528 -0.5964
14079TIP3    H263653   4.169   4.520  11.790  0.4056 -0.1486  0.4266
14080TIP3   OH263654   3.674   2.039   2.110  0.3586 -0.7302  0.5493
14080TIP3    H163655   3.707   2.125   2.136 -1.4019  0.1009  0.1983
14080TIP3    H263656   3.722   2.018   2.030  2.4315 -1.1761  1.8132
14081TIP3   OH263657   4.189   4.189  13.232  0.1695  0.3104  0.0706
14081TIP3    H163658   4.222   4.277  13.248  0.3604  0.3116 -0.3151
14081TIP3    H263659   4.268   4.136  13.218  0.1502 -0.2228  1.6997
14082TIP3   OH263660   2.311   2.365  17.057 -0.2802 -0.5668 -0.2398
14082TIP3    H163661   2.352   2.319  16.983 -0.5018 -1.1438 -0.0086
14082TIP3    H263662   2.348   2.453  17.053  1.9031 -1.3532  0.6322
14083TIP3   OH263663   1.552   1.366   4.881  0.1000  0.3070  0.0510
14083TIP3    H163664   1.485   1.320   4.932  2.1389  0.0389  2.7312
14083TIP3    H263665   1.558   1.317   4.799 -1.3580 -1.0513  0.7060
14084TIP3   OH263666   3.913   0.808  16.294 -0.1696 -0.3122  0.3969
14084TIP3    H163667   3.867   0.747  16.351  0.7715  0.2474  1.8012
14084TIP3    H263668   3.986   0.758  16.259 -0.1516 -0.3649  0.5097
14085TIP3   OH263669   0.454   3.927  14.836 -0.1370 -0.0501  0.0274
14085TIP3    H163670   0.491   3.839  14.838 -1.2901 -0.5734 -0.5915
14085TIP3    H263671   0.480   3.962  14.751  2.0104  1.0052  1.0521
14086TIP3   OH263672   4.466   5.992  15.298  0.2973  0.0827  0.2725
14086TIP3    H163673   4.389   6.010  15.245  0.5359 -3.1950 -1.4247
14086TIP3    H263674   4.532   6.054  15.267 -0.8085  1.0373 -0.2382
14087TIP3   OH263675   4.985   3.538  15.993 -0.1014 -0.0537 -0.1743
14087TIP3    H163676   5.043   3.591  15.938 -1.1364 -0.4753 -1.7416
14087TIP3    H263677   5.004   3.567  16.082  1.5363  0.7683 -0.7479
14088TIP3   OH263678   5.311   1.576  13.295 -0.3068  0.0250 -0.1028
14088TIP3    H163679   5.219   1.557  13.279 -0.2505 -1.1035  0.7959
14088TIP3    H263680   5.351   1.573  13.208 -0.9015 -0.8061 -0.3645
14089TIP3   OH263681   0.208   0.331  16.256  0.5897  0.3179  0.8572
14089TIP3    H163682   0.283   0.376  16.294 -0.5173  1.0751  2.2511
14089TIP3    H263683   0.134   0.391  16.271 -0.1450  0.0321 -1.3326
14090TIP3   OH263684   1.745   0.964  14.413  0.4449 -0.3162  0.1658
14090TIP3    H163685   1.762   0.969  14.507  0.6342 -1.2895  0.1911
14090TIP3    H263686   1.826   0.930  14.375 -0.1553 -1.4519 -0.1478
14091TIP3   OH263687   0.577   2.140  17.438  0.1623  0.1647 -0.0166
14091TIP3    H163688   0.572   2.163  17.345 -2.3558 -2.4657 -0.6626
14091TIP3    H263689   0.651   2.079  17.443  1.0122  1.1543 -0.0067
14092TIP3   OH263690   5.931   1.904  15.470 -0.1337  0.1488  0.5346
14092TIP3    H163691   5.965   1.980  15.424 -1.4175  1.2237  1.2889
14092TIP3    H263692   5.956   1.829  15.415 -1.9060  1.3577 -2.1368
14093TIP3   OH263693   0.889   2.712   2.685  0.1457 -0.0451  0.1252
14093TIP3    H163694   0.923   2.745   2.602 -0.6644 -0.0356 -0.2095
14093TIP3    H263695   0.808   2.761   2.699 -1.7165 -2.6221 -0.9657
14094TIP3   OH263696   2.516   4.532   3.144 -0.1417  0.2543  0.0848
14094TIP3    H163697   2.594   4.518   3.196 -0.5485  0.9279  0.8892
14094TIP3    H263698   2.514   4.457   3.084 -0.2328 -1.1243  1.7271
14095TIP3   OH263699   4.485   4.741  12.989  0.2739  0.3885 -0.0294
14095TIP3    H163700   4.535   4.666  13.022  2.2555  0.5137 -2.4769
14095TIP3    H263701   4.528   4.817  13.028  1.8752  0.4684 -1.7842
14096TIP3   OH263702   5.831   4.794   6.310  0.1045  0.7016  0.0967
14096TIP3    H163703   5.753   4.788   6.365 -1.0917  0.8376 -1.5099
14096TIP3    H263704   5.877   4.871   6.343 -0.9167  1.1572  0.5162
14097TIP3   OH263705   2.498   4.966  11.467  0.6225  0.1173  0.1597
14097TIP3    H163706   2.491   5.010  11.382 -0.2522  1.2419  0.7771
14097TIP3    H263707   2.412   4.978  11.507  1.4051  0.8164  1.7498
14098TIP3   OH263708   2.960   6.267   5.002  0.3034  0.3350  0.5931
14098TIP3    H163709   2.914   6.216   4.935 -0.5119 -0.3676  1.6731
14098TIP3    H263710   3.048   6.279   4.965 -0.5807  1.3981 -1.3442
14099TIP3   OH263711   5.790   3.509  16.059  0.0179  0.5356  0.1667
14099TIP3    H163712   5.860   3.444  16.072 -1.4455 -1.5827 -1.6728
14099TIP3    H263713   5.717   3.476  16.111 -0.6574  0.8525 -0.5618
14100TIP3   OH263714   0.561   4.434  15.456 -0.1064 -0.2177  0.0617
14100TIP3    H163715   0.594   4.446  15.366 -2.3546 -2.2646 -1.1400
14100TIP3    H263716   0.605   4.503  15.506  2.5728 -0.0618 -2.2135
14101TIP3   OH263717   2.963   1.554  14.357 -0.0312  0.4233  0.0234
14101TIP3    H163718   2.932   1.474  14.400 -0.5014 -0.2280 -1.4700
14101TIP3    H263719   3.051   1.568  14.393 -0.3904 -0.1092  1.1544
14102TIP3   OH263720   5.078   6.669   3.410  0.7362  0.4696 -0.4051
14102TIP3    H163721   5.031   6.591   3.441  1.8324  0.1273  0.4827
14102TIP3    H263722   5.031   6.742   3.448 -0.5478  0.3023 -1.5682
14103TIP3   OH263723   0.961   3.038   5.384 -0.4872  0.0786 -0.1810
14103TIP3    H163724   1.016   3.028   5.306 -0.2612 -1.0724  0.1058
14103TIP3    H263725   0.934   2.949   5.406 -0.0245  0.3095  1.4400
14104TIP3   OH263726   3.342   2.876  15.739  0.7139 -0.1650  0.2754
14104TIP3    H163727   3.353   2.856  15.646  0.0963  1.2222 -0.1221
14104TIP3    H263728   3.270   2.820  15.767 -0.2545  0.6214 -0.5355
14105TIP3   OH263729   5.267   4.629   2.361  0.2540 -0.3498 -0.1078
14105TIP3    H163730   5.247   4.612   2.453 -0.5464 -1.3604 -0.4467
14105TIP3    H263731   5.319   4.553   2.333  0.8296  0.1400 -0.3954
14106TIP3   OH263732   4.522   1.931  14.116 -0.5189 -0.0583 -0.3241
14106TIP3    H163733   4.539   1.838  14.126  0.7007  0.1107 -0.6696
14106TIP3    H263734   4.443   1.947  14.168 -0.5197 -1.2046  0.0443
14107TIP3   OH263735   2.530   0.967  16.031 -0.2938  0.0527 -0.5962
14107TIP3    H163736   2.550   1.060  16.020  0.3372 -0.2037 -1.6806
14107TIP3    H263737   2.462   0.949  15.966  0.9976 -0.6891 -1.7693
14108TIP3   OH263738   0.826   4.716   2.993  0.5135 -0.0769  0.1620
14108TIP3    H163739   0.762   4.751   2.931  1.4965 -1.1511 -1.5426
14108TIP3    H263740   0.823   4.777   3.067 -1.9081  0.3042 -0.1709
14109TIP3   OH263741   4.744   3.063   3.292 -0.2878  0.7058 -0.2828
14109TIP3    H163742   4.714   2.972   3.291  1.3051  0.0832  1.6398
14109TIP3    H263743   4.821   3.064   3.236  0.7917  0.3845  1.1335
14110TIP3   OH263744   2.222   3.781  14.786  0.3035 -0.2943  0.5651
14110TIP3    H163745   2.199   3.731  14.707 -3.3234 -1.4345  2.1195
14110TIP3    H263746   2.163   3.856  14.785  0.6597  0.0327  1.8329
14111TIP3   OH263747   0.739   5.165  17.391 -0.2333  0.3419  0.2319
14111TIP3    H163748   0.736   5.259  17.411  0.7931  0.1174  1.5798
14111TIP3    H263749   0.667   5.127  17.442 -1.3125  0.5039 -1.1223
14112TIP3   OH263750   3.047   2.006   2.041  0.1486  0.3968  0.0368
14112TIP3    H163751   3.026   2.100   2.043 -0.8083  0.1838  1.8572
14112TIP3    H263752   2.962   1.963   2.037  0.6075 -0.4307 -1.9575
14113TIP3   OH263753   4.391   2.321  12.701  0.4091  0.2342 -0.1280
14113TIP3    H163754   4.407   2.233  12.669 -1.1803 -1.6973  3.8037
14113TIP3    H263755   4.462   2.338  12.763 -0.2786  0.9528  0.4856
14114TIP3   OH263756   4.924   4.624   1.254 -0.2464  0.0863 -0.1547
14114TIP3    H163757   5.018   4.632   1.271 -0.6146  1.1067  1.6455
14114TIP3    H263758   4.895   4.554   1.313 -0.5956 -0.3813 -0.8684
14115TIP3   OH263759   4.986   2.935   3.206 -0.3505  0.1041  0.1050
14115TIP3    H163760   5.015   2.948   3.296  1.0617  0.1344 -0.3307
14115TIP3    H263761   5.021   3.010   3.158  0.1179 -0.6116 -0.7105
14116TIP3   OH263762   2.981   3.755  11.295 -0.4985 -0.1781 -0.0290
14116TIP3    H163763   2.965   3.844  11.328 -0.1746 -0.4568  0.9054
14116TIP3    H263764   3.074   3.755  11.271 -1.2159  0.7544 -3.3141
14117TIP3   OH263765   4.735   0.214   1.029 -0.1821 -0.0898 -0.1157
14117TIP3    H163766   4.762   0.305   1.014 -0.0031  0.2296  1.8616
14117TIP3    H263767   4.643   0.212   1.003 -0.7281  1.1866  1.5477
14118TIP3   OH263768   1.307   3.160   5.032  0.3869  0.7305 -0.1599
14118TIP3    H163769   1.228   3.115   5.061  0.6579 -0.8090 -1.6118
14118TIP3    H263770   1.277   3.246   5.002 -0.2878  1.2356  1.8221
14119TIP3   OH263771   3.101   3.161   5.603 -0.1749 -0.0632 -0.0443
14119TIP3    H163772   3.025   3.210   5.634 -1.3501 -2.5067  1.2605
14119TIP3    H263773   3.108   3.087   5.664  3.9922  0.6238  0.6095
14120TIP3   OH263774   3.230   4.463   3.960 -0.0438 -0.3153  0.1759
14120TIP3    H163775   3.172   4.392   3.988  0.2705  0.1226  2.0851
14120TIP3    H263776   3.296   4.469   4.029  1.9236 -0.3395 -1.5718
14121TIP3   OH263777   4.950   1.621  17.161  0.2832 -0.2937  0.5998
14121TIP3    H163778   4.867   1.667  17.168 -0.1275 -0.8508 -0.3983
14121TIP3    H263779   4.957   1.598  17.068  2.0293  0.6285  0.4586
14122TIP3   OH263780   4.265   3.651  13.144 -0.5183 -0.0153  0.2095
14122TIP3    H163781   4.268   3.556  13.145  1.5026 -0.0021  0.3529
14122TIP3    H263782   4.172   3.673  13.140 -1.0089 -1.9796  0.1079
14123TIP3   OH263783   5.444   0.448   3.073 -0.2391  0.3133  0.4439
14123TIP3    H163784   5.387   0.525   3.078 -2.6294 -1.3046 -0.1353
14123TIP3    H263785   5.400   0.382   3.127  2.7177 -0.1654  2.4644
14124TIP3   OH263786   4.548   2.269  16.160  0.5373 -0.0196 -0.1318
14124TIP3    H163787   4.497   2.198  16.197 -1.5748  1.6643  0.4309
14124TIP3    H263788   4.630   2.269  16.209 -1.1181  0.5163  2.8832
14125TIP3   OH263789   4.521   0.648   4.832  0.1151  0.0464 -0.3096
14125TIP3    H163790   4.575   0.668   4.908  0.6887 -1.0797 -0.3948
14125TIP3    H263791   4.431   0.659   4.863  0.3409 -0.4808  0.5686
14126TIP3   OH263792   2.213   4.566  15.598  0.2217  0.4975  0.4667
14126TIP3    H163793   2.181   4.645  15.642 -0.1316  0.1934  0.7653
14126TIP3    H263794   2.286   4.536  15.651 -0.2603  0.0811  0.9028
14127TIP3   OH263795   2.893   3.398   4.728 -0.9457  0.5216  0.2477
14127TIP3    H163796   2.813   3.359   4.692 -0.4339  0.4228 -0.8152
14127TIP3    H263797   2.965   3.352   4.684 -0.2785  0.0120  1.8347
14128TIP3   OH263798   2.270   6.012   1.454 -0.1540  0.0585 -0.4063
14128TIP3    H163799   2.317   5.977   1.378  0.9251 -1.4985  0.9016
14128TIP3    H263800   2.331   6.075   1.493  0.0546 -0.4902  0.1708
14129TIP3   OH263801   3.559   5.864  15.120  0.3602  0.1901 -0.0654
14129TIP3    H163802   3.515   5.920  15.183  1.6673 -0.7777  1.8158
14129TIP3    H263803   3.490   5.833  15.062 -0.7635  1.7054  0.4107
14130TIP3   OH263804   2.169   0.870   4.199  0.3811 -0.2092 -0.0411
14130TIP3    H163805   2.236   0.928   4.235 -1.3724  3.0854 -1.5819
14130TIP3    H263806   2.108   0.854   4.271  0.5519  0.4634  0.2549
14131TIP3   OH263807   2.396   1.944   0.182 -0.5387  0.0050  0.3849
14131TIP3    H163808   2.394   1.875   0.248 -0.7790 -0.8628 -0.4991
14131TIP3    H263809   2.308   1.982   0.185 -1.2830 -1.4699 -0.8582
14132TIP3   OH263810   4.921   4.521  15.067 -0.1436 -0.1504 -0.4711
14132TIP3    H163811   4.957   4.435  15.045  0.3951  0.0963 -0.5437
14132TIP3    H263812   4.831   4.502  15.094  0.1588 -0.8230  0.1203
14133TIP3   OH263813   4.483   3.144  13.750 -0.1720  0.0481  0.0020
14133TIP3    H163814   4.477   3.237  13.773  0.2692  0.1792 -0.3897
14133TIP3    H263815   4.511   3.144  13.658 -2.5972 -0.4592 -0.8170
14134TIP3   OH263816   2.632   6.158  16.528 -0.0324  1.0591  0.3789
14134TIP3    H163817   2.703   6.095  16.531  0.0386  1.0228 -1.1445
14134TIP3    H263818   2.634   6.202  16.613 -0.0302 -0.9012  1.4423
14135TIP3   OH263819   2.598   5.980   2.416 -0.0011 -0.3863  0.2108
14135TIP3    H163820   2.635   6.063   2.445 -0.6816  2.1784 -5.0469
14135TIP3    H263821   2.673   5.928   2.387  0.1966  0.7677 -1.4738
14136TIP3   OH263822   3.781   6.374  11.550 -0.2961  0.1788 -0.5193
14136TIP3    H163823   3.766   6.319  11.626 -1.3446  0.7467 -0.3039
14136TIP3    H263824   3.859   6.425  11.573 -0.4472  0.1550  0.0755
14137TIP3   OH263825   5.402   5.315   2.849  0.1786  0.4809  0.1234
14137TIP3    H163826   5.476   5.303   2.789  0.8954  2.2140  0.6085
14137TIP3    H263827   5.330   5.269   2.807  1.5388 -1.3678 -0.3013
14138TIP3   OH263828   3.731   4.400   5.051 -0.2267 -0.2185 -0.4106
14138TIP3    H163829   3.823   4.424   5.062 -0.2766 -0.6003  0.9835
14138TIP3    H263830   3.682   4.479   5.073 -0.2437 -0.0541 -1.0244
14139TIP3   OH263831   6.404   2.045  14.129 -0.0390 -0.3160  0.1039
14139TIP3    H163832   6.422   1.952  14.141  0.6435  0.0280  2.2341
14139TIP3    H263833   6.372   2.074  14.214 -1.2077  1.2092 -0.8014
14140TIP3   OH263834   1.647   6.370   3.726 -0.1614  0.1185 -0.2167
14140TIP3    H163835   1.640   6.304   3.657  0.5932  0.8347 -1.0056
14140TIP3    H263836   1.595   6.335   3.799 -0.6597 -0.8265 -1.0081
14141TIP3   OH263837   6.636   5.786   6.063  0.7098 -0.3593  0.2305
14141TIP3    H163838   6.592   5.871   6.057  0.7788 -0.2946  0.6003
14141TIP3    H263839   6.728   5.806   6.044  0.7262 -0.3506  0.3201
14142TIP3   OH263840   0.536   1.902  16.739  0.5354  0.2649  0.2762
14142TIP3    H163841   0.541   1.876  16.831  1.5632 -0.3374  0.0597
14142TIP3    H263842   0.625   1.893  16.706  0.0754 -0.0964 -0.9400
14143TIP3   OH263843   0.024   5.922   1.615 -0.0365  0.3441 -0.0927
14143TIP3    H163844   0.011   5.829   1.600  0.9951  0.6264 -3.5672
14143TIP3    H263845   0.118   5.931   1.632 -0.1206  0.7415  0.1787
14144TIP3   OH263846   1.547   4.739  10.909 -0.1500 -0.0714 -0.7601
14144TIP3    H163847   1.559   4.806  10.842 -0.8350 -0.3812 -1.2041
14144TIP3    H263848   1.472   4.769  10.960 -1.2274 -1.0710 -1.7042
14145TIP3   OH263849   2.195   6.369  13.019  0.5409 -0.8303  0.4424
14145TIP3    H163850   2.151   6.320  13.088 -1.4099 -0.1763 -0.2930
14145TIP3    H263851   2.126   6.420  12.977  2.0469  0.4503 -0.6000
14146TIP3   OH263852   6.387   6.240  16.880 -0.3661  0.3668 -0.1033
14146TIP3    H163853   6.436   6.241  16.962 -2.3951 -0.0034  1.1858
14146TIP3    H263854   6.362   6.148  16.867  0.7810  0.2445 -1.7068
14147TIP3   OH263855   2.927   1.645  15.834 -0.4392  0.1054 -0.2622
14147TIP3    H163856   2.902   1.556  15.857 -0.8487 -0.1498 -1.6347
14147TIP3    H263857   2.847   1.684  15.799 -0.1289  0.8522 -0.1640
14148TIP3   OH263858   4.662   5.257  12.112  0.4944  0.1320 -0.2133
14148TIP3    H163859   4.625   5.239  12.199  0.4967  0.3697 -0.1612
14148TIP3    H263860   4.669   5.352  12.109 -3.5636  0.5866 -2.1012
14149TIP3   OH263861   0.417   4.744  15.508  0.2274 -0.1377 -0.4549
14149TIP3    H163862   0.355   4.813  15.485  0.6394  0.0636 -0.9787
14149TIP3    H263863   0.365   4.681  15.558  0.4158  1.8215  2.4441
14150TIP3   OH263864   4.747   4.781   1.549 -0.2517  0.1548  1.3563
14150TIP3    H163865   4.842   4.772   1.550 -0.2173  0.4834  1.0735
14150TIP3    H263866   4.723   4.773   1.457 -0.4614  0.4298  1.3859
14151TIP3   OH263867   4.359   0.638   4.066 -0.6213 -0.3206  0.4449
14151TIP3    H163868   4.409   0.681   3.997 -2.2275 -2.2454 -2.0725
14151TIP3    H263869   4.281   0.691   4.076 -1.0140 -0.7611 -0.2191
14152TIP3   OH263870   5.090   1.178  15.636  0.4687  0.2081  0.2339
14152TIP3    H163871   5.064   1.127  15.560  0.5964  1.1654 -0.4652
14152TIP3    H263872   5.015   1.235  15.654  0.3485 -0.1690  0.9683
14153TIP3   OH263873   2.152   6.734   5.634 -0.1405 -0.1130  0.1964
14153TIP3    H163874   2.123   6.772   5.551  0.1446 -0.6855 -0.1705
14153TIP3    H263875   2.242   6.765   5.645  0.0382 -0.5458 -0.0249
14154TIP3   OH263876   1.008   6.055  14.851 -0.3289 -0.1253 -0.4813
14154TIP3    H163877   0.973   5.976  14.894 -0.9481  0.2060 -0.3625
14154TIP3    H263878   0.991   6.040  14.758  2.5562 -1.6212 -0.8716
14155TIP3   OH263879   4.544   0.656   5.981  0.3816 -0.4467 -0.1340
14155TIP3    H163880   4.512   0.702   6.059  0.5051 -1.4539  0.5283
14155TIP3    H263881   4.498   0.698   5.908  0.0763  0.3470  0.4987
14156TIP3   OH263882   1.543   0.252   2.194 -0.0702  0.4197  0.4202
14156TIP3    H163883   1.538   0.329   2.251  0.1082  0.7653 -0.0233
14156TIP3    H263884   1.497   0.184   2.242  0.2294  0.6585  1.0584
14157TIP3   OH263885   4.706   2.228   5.221 -0.2432  0.2314 -0.3866
14157TIP3    H163886   4.622   2.255   5.183 -0.6046  1.3827  1.1240
14157TIP3    H263887   4.688   2.222   5.315  0.5202 -2.8473 -0.3548
14158TIP3   OH263888   3.106   1.017  13.083 -0.4314 -0.5665 -0.2763
14158TIP3    H163889   3.190   1.048  13.116 -0.2962 -0.0473 -1.0752
14158TIP3    H263890   3.042   1.078  13.121 -0.3990 -0.6934 -0.0204
14159TIP3   OH263891   4.247   4.969  14.327  0.3698 -0.2750 -0.0830
14159TIP3    H163892   4.208   4.963  14.240  1.0743  0.2494 -0.4440
14159TIP3    H263893   4.333   4.929  14.317  0.4549 -0.2080  0.3719
14160TIP3   OH263894   4.794   4.453   5.039  0.6564  0.5164 -0.7756
14160TIP3    H163895   4.764   4.386   4.978 -0.7910  0.6177 -0.2025
14160TIP3    H263896   4.836   4.519   4.983  2.5586 -1.0328 -1.3079
14161TIP3   OH263897   0.204   3.585  15.492 -0.3979 -0.1488  0.6140
14161TIP3    H163898   0.137   3.533  15.448 -0.1277 -0.2998  0.3758
14161TIP3    H263899   0.200   3.558  15.584 -0.8995  0.0981  0.6660
14162TIP3   OH263900   0.007   3.107  15.003 -0.3081 -0.0358  0.3541
14162TIP3    H163901   0.055   3.179  15.042 -0.8761 -0.0884  1.1953
14162TIP3    H263902   0.074   3.050  14.965  0.2245  0.3272  0.7382
14163TIP3   OH263903   5.528   4.794   2.145  0.1232 -0.5090  0.4880
14163TIP3    H163904   5.506   4.701   2.152 -0.8959 -0.3493 -0.2296
14163TIP3    H263905   5.615   4.796   2.105  0.1040 -1.1616  0.4079
14164TIP3   OH263906   0.562   1.229  10.886  0.5481  0.0242 -0.4432
14164TIP3    H163907   0.528   1.201  10.801  0.2514  0.8176 -0.5966
14164TIP3    H263908   0.539   1.158  10.946 -0.3749  0.0186 -0.7777
14165TIP3   OH263909   1.612   3.402   2.513  0.1248 -0.2768  0.1791
14165TIP3    H163910   1.569   3.486   2.530 -1.6488 -0.9311 -0.7848
14165TIP3    H263911   1.560   3.338   2.563 -0.4710 -1.1812 -1.5076
14166TIP3   OH263912   6.011   1.137  16.305 -0.1037 -0.2620 -0.3059
14166TIP3    H163913   5.938   1.196  16.283 -0.8358 -1.0396 -0.0077
14166TIP3    H263914   5.970   1.064  16.350  0.8952 -0.6370  0.0199
14167TIP3   OH263915   4.145   3.306  13.087 -0.0157  0.3771 -0.2721
14167TIP3    H163916   4.111   3.278  13.002 -1.2154 -0.3696  0.4227
14167TIP3    H263917   4.232   3.266  13.092  0.5060  1.2831 -1.5587
14168TIP3   OH263918   3.612   3.707   1.318 -0.1356  0.2307  0.0759
14168TIP3    H163919   3.582   3.738   1.232  0.0497  1.0378  0.2948
14168TIP3    H263920   3.708   3.709   1.312 -0.0948 -1.2011 -0.2129
14169TIP3   OH263921   4.273   1.164   0.240 -0.3602  0.1585 -0.0186
14169TIP3    H163922   4.179   1.169   0.221  0.0072  2.0168 -1.7382
14169TIP3    H263923   4.278   1.171   0.336 -1.9458  1.6251  0.0104
14170TIP3   OH263924   4.120   1.838   1.244  0.0299  0.7117 -0.6473
14170TIP3    H163925   4.177   1.869   1.314  0.5487  1.3248 -1.3246
14170TIP3    H263926   4.033   1.872   1.266 -0.1424 -0.4044  0.5062
14171TIP3   OH263927   3.336   4.162   5.947 -0.0318 -0.1969 -0.0736
14171TIP3    H163928   3.367   4.097   6.011 -1.7962 -1.8221 -0.7817
14171TIP3    H263929   3.303   4.234   6.001 -0.1488 -0.8875  0.8173
14172TIP3   OH263930   0.227   3.179   1.790 -0.2460  0.2196  0.3066
14172TIP3    H163931   0.219   3.101   1.736 -2.3598  0.0159  0.7972
14172TIP3    H263932   0.147   3.229   1.771  0.8709  2.1096  0.2777
14173TIP3   OH263933   4.596   0.003   5.145  0.1334  0.6023  0.0554
14173TIP3    H163934   4.655  -0.043   5.206  0.1889 -0.6437 -0.8864
14173TIP3    H263935   4.512   0.004   5.190  0.1348 -0.4425  0.1110
14174TIP3   OH263936   4.226   2.725   2.488 -0.2764 -0.6428  0.0392
14174TIP3    H163937   4.141   2.769   2.495 -0.8657 -1.4897 -1.3799
14174TIP3    H263938   4.267   2.763   2.410  0.1498 -1.0487  0.0604
14175TIP3   OH263939   2.706   1.723  15.688  0.3645  0.5984 -0.0158
14175TIP3    H163940   2.647   1.781  15.640 -0.2424  0.5271  0.6267
14175TIP3    H263941   2.690   1.637  15.650 -0.5560  0.4398  0.7110
14176TIP3   OH263942   5.989   2.831   6.135  0.3155 -0.2063  0.5111
14176TIP3    H163943   6.005   2.885   6.057  2.1954  0.6678  1.4207
14176TIP3    H263944   6.076   2.799   6.159 -0.7989 -5.2812 -0.9765
14177TIP3   OH263945   1.411   0.727   2.354  0.0310  0.1105 -0.2434
14177TIP3    H163946   1.492   0.775   2.338  1.8556 -2.3075  0.9785
14177TIP3    H263947   1.350   0.793   2.385  1.2443  2.1685 -1.9868
14178TIP3   OH263948   4.333   5.285  15.161  0.0503 -0.3939  0.2422
14178TIP3    H163949   4.331   5.363  15.105  1.2753 -0.3266  0.2616
14178TIP3    H263950   4.364   5.216  15.103  0.2431 -0.5719  0.5580
14179TIP3   OH263951   1.511   0.865  11.294  0.5304  0.0666 -0.4720
14179TIP3    H163952   1.527   0.959  11.302  1.3668 -0.0613 -0.4885
14179TIP3    H263953   1.548   0.841  11.209 -1.5763  0.0826 -1.4350
14180TIP3   OH263954   3.651   0.909   4.988 -0.0119 -0.4071 -0.2621
14180TIP3    H163955   3.740   0.937   4.966  0.4305 -1.2357  0.3973
14180TIP3    H263956   3.613   0.882   4.904  0.6013 -0.6923 -0.4589
14181TIP3   OH263957   3.798   1.722  10.912  0.1714  0.5490 -0.5164
14181TIP3    H163958   3.799   1.817  10.903  0.5412  0.6419  0.3780
14181TIP3    H263959   3.709   1.701  10.939  0.3840  0.7599  0.3684
14182TIP3   OH263960   5.366   1.893   6.549 -0.6347 -0.1683  0.2595
14182TIP3    H163961   5.344   1.855   6.464  0.6815  2.3232 -1.3278
14182TIP3    H263962   5.281   1.906   6.592 -1.5254  0.2601 -1.5246
14183TIP3   OH263963   3.924   5.085  16.197 -0.0089 -0.1250 -0.5744
14183TIP3    H163964   3.990   5.153  16.181 -0.7661  0.5519 -0.9014
14183TIP3    H263965   3.943   5.054  16.285 -1.5672  2.8003  0.9795
14184TIP3   OH263966   2.584   0.089   2.132  0.6407  0.1056  0.1813
14184TIP3    H163967   2.659   0.085   2.191  0.0530  1.5027  1.0914
14184TIP3    H263968   2.545   0.175   2.149 -0.5934 -0.1821 -0.9821
14185TIP3   OH263969   0.654   3.974  13.225 -0.0011  0.2942  0.5202
14185TIP3    H163970   0.686   4.047  13.279  1.3997  0.7610 -0.8553
14185TIP3    H263971   0.662   4.006  13.135 -1.0205 -0.9359 -0.0353
14186TIP3   OH263972   3.930   2.207   5.292  0.0065  0.0636  0.0135
14186TIP3    H163973   3.961   2.119   5.312  1.1719  0.1193 -1.4072
14186TIP3    H263974   3.891   2.199   5.205  1.3182  1.1925 -0.7111
14187TIP3   OH263975   1.119   5.560  13.915  1.1894 -0.4987 -0.3949
14187TIP3    H163976   1.128   5.533  14.006  1.0041  1.1708  0.1523
14187TIP3    H263977   1.042   5.512  13.883  0.5225 -0.1887  0.6882
14188TIP3   OH263978   4.450   4.601  13.557  0.5579  0.4598 -0.2926
14188TIP3    H163979   4.466   4.640  13.642  1.0077  1.2348 -0.7191
14188TIP3    H263980   4.511   4.645  13.498  0.2000  0.0015 -1.0290
14189TIP3   OH263981   5.836   1.895   2.448  0.3584  0.4811  0.9309
14189TIP3    H163982   5.786   1.857   2.521  0.8502 -0.7763  0.6449
14189TIP3    H263983   5.785   1.971   2.420 -1.0519 -0.3777  1.0874
14190TIP3   OH263984   6.382   5.620  16.851 -0.2576 -0.1819 -0.3840
14190TIP3    H163985   6.334   5.641  16.932 -0.5820  0.3386 -0.7041
14190TIP3    H263986   6.360   5.692  16.792  2.0493  0.8635 -0.0783
14191TIP3   OH263987   1.240   0.980  12.548 -0.0161 -0.3387  0.6086
14191TIP3    H163988   1.150   0.965  12.577 -0.2798  1.1010  0.6194
14191TIP3    H263989   1.287   0.901  12.574 -1.0583 -0.6886  1.5208
14192TIP3   OH263990   6.673   4.253   4.236 -0.2585 -0.4991  0.3022
14192TIP3    H163991   6.662   4.319   4.305 -0.8842  0.5828 -0.7947
14192TIP3    H263992   6.682   4.304   4.155  0.0750 -1.7475 -0.4721
14193TIP3   OH263993   6.266   1.352   3.422  0.3872 -0.4267 -0.3245
14193TIP3    H163994   6.280   1.381   3.512  1.4012  0.4102 -0.7283
14193TIP3    H263995   6.317   1.413   3.369 -1.5633  0.1741 -1.6124
14194TIP3   OH263996   0.312   5.174   0.254 -0.1479  0.5908 -0.4002
14194TIP3    H163997   0.228   5.164   0.210  0.1073  1.8894 -1.2546
14194TIP3    H263998   0.292   5.224   0.333 -0.3825 -0.3733  0.1543
14195TIP3   OH263999   0.846   1.016   4.300 -0.1886 -0.0286 -0.3269
14195TIP3    H164000   0.873   1.040   4.212 -1.5716 -0.4501 -0.8937
14195TIP3    H264001   0.927   0.989   4.344  0.4593 -0.2079 -1.5942
14196TIP3   OH264002   0.097   4.487  14.918  0.2543 -0.0811 -0.2374
14196TIP3    H164003   0.102   4.411  14.977  0.3345 -0.0887 -0.2545
14196TIP3    H264004   0.094   4.449  14.830  0.4534 -0.0601 -0.2525
14197TIP3   OH264005   3.871   3.092  15.417  0.4337  0.0894  0.0813
14197TIP3    H164006   3.789   3.139  15.429  0.2360  0.0110 -0.8815
14197TIP3    H264007   3.906   3.125  15.334  0.5252 -1.0914 -0.3717
14198TIP3   OH264008   3.929   1.071   2.740  0.0302  0.1208 -0.4462
14198TIP3    H164009   3.942   1.149   2.794  1.0362 -0.8403  0.7675
14198TIP3    H264010   3.999   1.076   2.675  0.3985 -0.0171 -0.0634
14199TIP3   OH264011   0.241   5.845   5.396 -0.0555 -0.0727  0.4355
14199TIP3    H164012   0.295   5.817   5.322  0.6884 -0.7439  1.2182
14199TIP3    H264013   0.157   5.868   5.356 -0.2382 -2.0274 -0.4450
14200TIP3   OH264014   5.217   2.953   0.314 -0.0174 -0.3309 -0.2738
14200TIP3    H164015   5.193   3.041   0.345 -1.3149 -1.0849  0.9867
14200TIP3    H264016   5.201   2.956   0.219  0.1087  0.8340 -0.2760
14201TIP3   OH264017   2.258   2.103  10.983 -0.1328  0.2571  0.1612
14201TIP3    H164018   2.316   2.131  10.912  1.3380  1.8846  1.9012
14201TIP3    H264019   2.265   2.007  10.983  0.7428  0.2953 -1.1410
14202TIP3   OH264020   5.559   5.625   0.603 -0.1720  0.2354  0.1421
14202TIP3    H164021   5.545   5.712   0.640  0.4502  0.4867 -0.2045
14202TIP3    H264022   5.570   5.568   0.679  0.6551  0.6738  0.3552
14203TIP3   OH264023   3.641   5.514   1.637 -0.1683 -0.0251 -0.0396
14203TIP3    H164024   3.591   5.439   1.603 -1.0974  0.1427  0.8862
14203TIP3    H264025   3.729   5.479   1.653 -0.6575 -1.0020  0.6087
14204TIP3   OH264026   0.350   4.447  15.207 -0.1449 -0.2920 -0.3211
14204TIP3    H164027   0.341   4.355  15.182  0.2335  0.0023 -1.5647
14204TIP3    H264028   0.443   4.465  15.199 -0.1573  0.0896  0.3556
14205TIP3   OH264029   3.293   6.411  17.338 -0.0964  0.4096 -0.1440
14205TIP3    H164030   3.231   6.382  17.405 -0.8999  0.0207 -1.0345
14205TIP3    H264031   3.307   6.504  17.357  0.2795  0.1320  1.0143
14206TIP3   OH264032   3.925   3.048  17.055 -0.1884 -0.1926 -0.1537
14206TIP3    H164033   3.899   3.041  17.147  1.0516  0.9298  0.3059
14206TIP3    H264034   4.007   2.998  17.050  1.4386  2.2753  0.1116
14207TIP3   OH264035   3.003   2.353  11.291 -0.4456  0.0735  0.3257
14207TIP3    H164036   3.089   2.388  11.314  0.3449 -1.1800 -0.6443
14207TIP3    H264037   2.995   2.369  11.197 -1.3947  0.4020  0.4519
14208TIP3   OH264038   5.832   4.582  11.878  0.1183 -0.5346  0.1906
14208TIP3    H164039   5.758   4.615  11.828  1.0367 -1.3016 -1.7726
14208TIP3    H264040   5.867   4.511  11.825  2.2058 -0.2626  1.1120
14209TIP3   OH264041   2.071   5.062  12.521  0.4623 -0.0253 -0.2978
14209TIP3    H164042   2.000   5.118  12.490 -0.0747 -0.2452  0.5027
14209TIP3    H264043   2.077   4.992  12.456  0.3023  0.2790 -0.6421
14210TIP3   OH264044   5.302   5.989  15.766  0.3303 -0.5106 -0.1761
14210TIP3    H164045   5.263   6.065  15.722  0.0545  1.1256  2.6017
14210TIP3    H264046   5.396   6.007  15.767  0.2795 -0.2657  0.3600
14211TIP3   OH264047   1.498   4.240   2.323  0.0489 -0.4870 -0.4408
14211TIP3    H164048   1.538   4.313   2.276 -0.7986 -0.2951 -0.8961
14211TIP3    H264049   1.572   4.191   2.358  0.6317  0.6949  0.0526
14212TIP3   OH264050   5.767   2.618  13.116 -0.2302 -0.0490 -0.0436
14212TIP3    H164051   5.821   2.681  13.163 -2.1536  2.4749 -0.9463
14212TIP3    H264052   5.829   2.561  13.072  1.6413  1.2834  0.7132
14213TIP3   OH264053   3.138   4.302  13.987 -0.7279 -0.3652 -0.0036
14213TIP3    H164054   3.179   4.216  13.979  0.1342  0.0393  0.0427
14213TIP3    H264055   3.128   4.315  14.081  0.6656  0.2910  0.0683
14214TIP3   OH264056   4.307   5.744   5.355  0.4788  0.0658  0.0955
14214TIP3    H164057   4.301   5.666   5.410 -1.3383  1.8673  2.6999
14214TIP3    H264058   4.391   5.783   5.376  0.6141 -0.2497  0.1347
14215TIP3   OH264059   1.184   0.569   2.789  0.3841  0.0515 -0.2314
14215TIP3    H164060   1.150   0.561   2.878  0.7914  0.0867 -0.0706
14215TIP3    H264061   1.107   0.561   2.733  0.0991  0.2395  0.1330
14216TIP3   OH264062   2.873   0.112  12.164  0.4947 -0.3922 -0.1758
14216TIP3    H164063   2.926   0.082  12.090  0.2311  0.1955 -0.6094
14216TIP3    H264064   2.878   0.040  12.228 -0.6740 -1.6958 -1.4678
14217TIP3   OH264065   6.510   3.647   5.666  0.2126  0.3086 -0.1079
14217TIP3    H164066   6.568   3.712   5.707  0.2079 -0.5604  1.3633
14217TIP3    H264067   6.512   3.572   5.726 -0.5686 -0.6696 -1.2508
14218TIP3   OH264068   2.138   1.915   5.529 -0.5725 -0.1566  0.2759
14218TIP3    H164069   2.099   2.001   5.516 -2.5337 -0.8787  1.0062
14218TIP3    H264070   2.086   1.875   5.598  0.6867 -1.7037  0.3936
14219TIP3   OH264071   0.676   5.527  16.019  0.0680 -0.2569  0.1461
14219TIP3    H164072   0.599   5.480  15.989  1.1383 -2.0993  0.1555
14219TIP3    H264073   0.713   5.567  15.940 -0.5652  0.1728  0.0589
14220TIP3   OH264074   6.601   6.149  14.378  0.0455  0.3237 -0.2550
14220TIP3    H164075   6.556   6.179  14.457 -0.2314 -0.0900 -0.2510
14220TIP3    H264076   6.670   6.091  14.409  0.0588  0.3123 -0.3056
14221TIP3   OH264077   3.958   2.593  15.539 -0.5474  0.0507  0.6969
14221TIP3    H164078   4.004   2.519  15.499  1.8665  1.8563 -0.0646
14221TIP3    H264079   3.865   2.576  15.519  0.0016 -2.2073 -0.3213
14222TIP3   OH264080   0.022   1.388   1.486  0.1877  0.0380  0.2734
14222TIP3    H164081   0.045   1.294   1.488  0.1320  0.0216  0.1156
14222TIP3    H264082  -0.051   1.393   1.425  0.1592  0.1785  0.3212
14223TIP3   OH264083   3.647   4.772   4.214 -0.4713 -0.2343 -0.5536
14223TIP3    H164084   3.740   4.761   4.190 -0.9295  0.2804 -2.8478
14223TIP3    H264085   3.599   4.732   4.141 -2.0558  1.2218 -0.3652
14224TIP3   OH264086   4.334   0.084  16.541  0.5622  0.1771 -0.1014
14224TIP3    H164087   4.389   0.162  16.552  1.6726 -0.7158  0.9245
14224TIP3    H264088   4.391   0.011  16.565 -0.1118 -1.0673 -2.0782
14225TIP3   OH264089   0.663   3.084  14.213  0.5086 -0.4044  0.3301
14225TIP3    H164090   0.757   3.076  14.227  0.5108 -2.1130 -0.3920
14225TIP3    H264091   0.651   3.064  14.120 -0.5888 -0.4749  0.4705
14226TIP3   OH264092   3.182   4.332  11.527  0.0469  0.7016 -0.2654
14226TIP3    H164093   3.134   4.300  11.451 -1.3603 -2.9182  1.9046
14226TIP3    H264094   3.269   4.292  11.518 -0.7128 -1.3269  0.8545
14227TIP3   OH264095   4.543   5.198   4.734 -0.1590 -0.1802 -0.2613
14227TIP3    H164096   4.544   5.294   4.742 -1.8035 -0.2209  0.8536
14227TIP3    H264097   4.459   5.178   4.695  0.9503 -1.1082 -2.3325
14228TIP3   OH264098   0.318   5.788  16.599  0.3915  0.4786  0.1007
14228TIP3    H164099   0.266   5.709  16.615 -0.3426  0.7523 -0.8886
14228TIP3    H264100   0.392   5.757  16.547 -0.3713  0.5713 -1.0702
14229TIP3   OH264101   6.521   3.986  10.644  0.4021 -0.0623  0.7462
14229TIP3    H164102   6.457   3.922  10.613  0.3408 -0.0983  0.9422
14229TIP3    H264103   6.601   3.935  10.660  0.0146 -0.3043  2.0091
14230TIP3   OH264104   1.103   3.798  17.413  0.2001  0.3015 -0.2406
14230TIP3    H164105   1.036   3.792  17.481  0.2531  0.0133 -0.2157
14230TIP3    H264106   1.151   3.715  17.418 -0.8847 -0.4599 -1.7647
14231TIP3   OH264107   1.538   1.043  15.035 -0.2812  0.2429 -0.2538
14231TIP3    H164108   1.578   0.974  14.983  0.5380  0.1374  0.4896
14231TIP3    H264109   1.610   1.102  15.056 -0.3741 -0.2054  1.5243
14232TIP3   OH264110   5.316   2.701   0.266 -0.0680  0.0999 -0.2954
14232TIP3    H164111   5.308   2.780   0.321 -2.0024 -0.3638  0.1627
14232TIP3    H264112   5.292   2.731   0.178  0.9974  0.3880 -0.5066
14233TIP3   OH264113   1.317   0.685   5.922 -0.6164  0.1652  0.9824
14233TIP3    H164114   1.286   0.695   5.831  0.3254 -0.3783  0.5928
14233TIP3    H264115   1.246   0.637   5.965 -0.7927 -0.1445  0.3675
14234TIP3   OH264116   1.858   5.450   0.054  0.1794 -0.1018 -0.0903
14234TIP3    H164117   1.909   5.509  -0.002 -1.5393  0.5390 -1.0499
14234TIP3    H264118   1.913   5.371   0.060  0.4177 -0.2591 -2.8366
14235TIP3   OH264119   5.288   1.627   1.370  0.0969  0.1163 -0.0111
14235TIP3    H164120   5.286   1.691   1.299 -1.0460 -1.4779 -1.5022
14235TIP3    H264121   5.360   1.568   1.346 -0.0335 -0.1982  0.3606
14236TIP3   OH264122   1.380   5.667  14.542 -0.2384 -0.4632 -0.3718
14236TIP3    H164123   1.328   5.697  14.617 -1.0168 -1.4772 -0.4742
14236TIP3    H264124   1.347   5.719  14.469  2.9801  3.2054  0.4445
14237TIP3   OH264125   6.055   3.383  15.272  0.1885  0.3057  0.2010
14237TIP3    H164126   6.047   3.472  15.240 -0.7937  0.6477  1.3294
14237TIP3    H264127   5.966   3.347  15.268  0.4132 -0.3230  0.5883
14238TIP3   OH264128   1.909   5.253   3.624  0.8172  0.2444 -0.0409
14238TIP3    H164129   1.954   5.323   3.577  0.2052  1.0874  0.5921
14238TIP3    H264130   1.816   5.276   3.617  0.7309  0.7409  2.0551
14239TIP3   OH264131   1.433   5.714   5.939  0.3842 -0.4179  0.1706
14239TIP3    H164132   1.369   5.779   5.911  0.1978  0.2540  2.0485
14239TIP3    H264133   1.403   5.632   5.899 -0.9246  0.1290 -0.0112
14240TIP3   OH264134   6.332   2.504   1.830  0.5120 -0.4189 -0.0946
14240TIP3    H164135   6.332   2.594   1.862 -0.2048 -0.5934  0.4466
14240TIP3    H264136   6.350   2.511   1.737  0.1585  0.3139 -0.1114
14241TIP3   OH264137   2.753   6.475  12.698  0.1673 -0.8547 -0.0730
14241TIP3    H164138   2.840   6.490  12.734  0.4725 -1.7524 -0.4385
14241TIP3    H264139   2.723   6.394  12.739 -1.7091  0.8838  2.3148
14242TIP3   OH264140   3.376   5.920   3.439  0.1997 -0.5947 -0.7494
14242TIP3    H164141   3.426   5.999   3.459  1.2359 -1.1772 -1.0070
14242TIP3    H264142   3.434   5.848   3.463 -1.0463 -1.3005  0.2798
14243TIP3   OH264143   0.561   6.693  16.573 -0.7894 -0.0559  0.0210
14243TIP3    H164144   0.646   6.730  16.599 -1.0198  0.2662  0.3369
14243TIP3    H264145   0.506   6.703  16.651 -0.9639 -0.7469 -0.0108
14244TIP3   OH264146   4.526   1.044  17.157  0.3483 -0.0415 -0.3209
14244TIP3    H164147   4.435   1.034  17.128  0.5093 -0.7482 -0.5996
14244TIP3    H264148   4.560   0.954  17.162  0.6273  0.1232  1.1049
14245TIP3   OH264149   0.691   5.554   5.769  0.3544 -0.5204 -0.2638
14245TIP3    H164150   0.601   5.586   5.771 -0.2475 -2.1440  0.4697
14245TIP3    H264151   0.685   5.468   5.727  1.6560 -0.4075 -0.7294
14246TIP3   OH264152   5.598   0.805   4.011  0.7062 -0.1519  0.3583
14246TIP3    H164153   5.532   0.736   4.003  0.6431 -0.0654  0.1530
14246TIP3    H264154   5.566   0.859   4.084  1.0020 -0.6127  0.8361
14247TIP3   OH264155   2.437   1.982  15.157  0.2183 -0.3426 -0.2065
14247TIP3    H164156   2.531   1.980  15.137 -0.1242 -2.0545 -1.9599
14247TIP3    H264157   2.429   2.042  15.231  2.5001  1.0229 -0.9850
14248TIP3   OH264158   5.334   1.338   5.107  0.0382 -0.0344 -0.4572
14248TIP3    H164159   5.251   1.362   5.066  0.0902 -1.4538 -1.4629
14248TIP3    H264160   5.362   1.418   5.151 -1.3418  0.7784 -0.9654
14249TIP3   OH264161   0.533   5.826   4.428 -0.1981 -0.2646  0.0653
14249TIP3    H164162   0.490   5.825   4.342  2.5385  0.7817 -1.4880
14249TIP3    H264163   0.551   5.735   4.447 -4.3750 -0.9439  1.6346
14250TIP3   OH264164   3.470   3.794  11.977 -0.4335  0.3061 -0.2499
14250TIP3    H164165   3.417   3.719  12.006 -0.0847 -0.1739 -0.8304
14250TIP3    H264166   3.525   3.815  12.053 -1.3496  0.7225  0.3143
14251TIP3   OH264167   1.905   2.508   1.990 -0.0725 -0.5332  0.3498
14251TIP3    H164168   1.892   2.444   1.919  1.2024  2.3357 -2.7324
14251TIP3    H264169   1.999   2.503   2.009  0.0831  0.5055 -0.0879
14252TIP3   OH264170   1.876   3.097  14.553  0.1412  0.2161  0.5336
14252TIP3    H164171   1.852   3.177  14.506 -0.0131  0.2308  0.6381
14252TIP3    H264172   1.827   3.102  14.635 -1.2120 -0.8071 -0.1723
14253TIP3   OH264173   5.611   1.628  12.299 -0.1862 -0.7778  0.1829
14253TIP3    H164174   5.666   1.582  12.235 -0.4053 -1.8808  0.7578
14253TIP3    H264175   5.524   1.590  12.289 -0.2472 -0.8997  1.0555
14254TIP3   OH264176   5.673   2.130  15.837 -0.5287 -0.0289 -0.2181
14254TIP3    H164177   5.672   2.149  15.931 -1.3810 -2.2035  0.2628
14254TIP3    H264178   5.732   2.196  15.800  1.3291 -0.2701  2.0957
14255TIP3   OH264179   0.129   4.767  14.858 -0.2910 -0.1072 -0.4138
14255TIP3    H164180   0.108   4.766  14.764  1.1627 -0.0505 -0.7566
14255TIP3    H264181   0.143   4.675  14.880  1.2373  0.0355 -0.7120
14256TIP3   OH264182   3.740   6.090   4.611 -0.1185 -0.4514  0.3711
14256TIP3    H164183   3.690   6.020   4.653 -1.2742  1.9206  3.3300
14256TIP3    H264184   3.701   6.098   4.524 -1.5104 -1.9550  0.8022
14257TIP3   OH264185   5.285   0.994   2.779  0.4368 -0.1629  0.6146
14257TIP3    H164186   5.198   0.954   2.785 -0.4318  1.7156  1.4332
14257TIP3    H264187   5.281   1.048   2.701  0.1592  1.4247  1.6796
14258TIP3   OH264188   5.336   0.449  11.946  0.1073  0.4847 -0.3458
14258TIP3    H164189   5.356   0.534  11.906 -0.5594  0.2980 -1.1090
14258TIP3    H264190   5.403   0.390  11.913 -0.1463  0.4445 -0.7925
14259TIP3   OH264191   4.163   2.182  10.987  0.4265  0.2386  0.1236
14259TIP3    H164192   4.177   2.188  11.082  1.4523  0.1525 -0.0071
14259TIP3    H264193   4.229   2.119  10.957 -0.9892 -1.0274 -0.4354
14260TIP3   OH264194   5.819   4.999   6.956  0.2472 -0.0216  0.1272
14260TIP3    H164195   5.782   4.913   6.938 -0.6301  0.5998 -1.2564
14260TIP3    H264196   5.743   5.057   6.961  0.6848  0.4254  2.8513
14261TIP3   OH264197   0.240   1.250   3.580  0.4348  0.0503 -0.0843
14261TIP3    H164198   0.292   1.324   3.547  0.4744  0.5377  1.0466
14261TIP3    H264199   0.286   1.221   3.658 -0.2208 -0.4360  0.1258
14262TIP3   OH264200   0.341   1.211   1.056 -0.3233  0.1394 -0.0392
14262TIP3    H164201   0.383   1.296   1.041  1.5740 -0.9109 -1.0891
14262TIP3    H264202   0.250   1.233   1.073  0.3497  2.4741  1.1036
14263TIP3   OH264203   6.129   2.183   2.230 -0.2449  0.4564  0.4640
14263TIP3    H164204   6.118   2.261   2.175 -0.6646 -0.4968 -0.8711
14263TIP3    H264205   6.172   2.119   2.173 -1.5910 -0.9042  0.8825
14264TIP3   OH264206   5.235   0.918   1.677 -0.2783 -0.8540 -0.0779
14264TIP3    H164207   5.189   0.931   1.595 -0.9054  1.5326  0.5920
14264TIP3    H264208   5.327   0.905   1.651 -0.6490 -1.3864 -1.1874
14265TIP3   OH264209   1.622   0.374  14.206 -0.3324  0.2468 -0.7823
14265TIP3    H164210   1.629   0.294  14.257  2.0861 -0.9410 -2.7764
14265TIP3    H264211   1.629   0.444  14.271  1.0432 -1.1632  0.6922
14266TIP3   OH264212   0.232   1.415   0.399  0.6112 -0.1495 -0.1796
14266TIP3    H164213   0.204   1.326   0.377  1.7623 -0.3074 -1.0841
14266TIP3    H264214   0.184   1.435   0.479 -1.3101 -0.7576 -1.1171
14267TIP3   OH264215   2.635   3.586  13.741 -0.5390  0.4232  0.6190
14267TIP3    H164216   2.690   3.647  13.693  0.1465  0.1612  1.0581
14267TIP3    H264217   2.647   3.611  13.833  0.2181 -0.7388  0.8533
14268TIP3   OH264218   6.714   2.600   4.860  0.2705  0.0283  0.4188
14268TIP3    H164219   6.714   2.596   4.765  3.6917  0.5901  0.2582
14268TIP3    H264220   6.639   2.655   4.882 -0.8910 -0.5151 -1.8753
14269TIP3   OH264221   0.938   3.739  15.702 -0.1233 -0.7649  1.2602
14269TIP3    H164222   0.845   3.762  15.702 -0.2753 -1.3659  1.1930
14269TIP3    H264223   0.968   3.759  15.791 -0.2205 -0.2118  1.1716
14270TIP3   OH264224   5.030   1.963   0.643  0.3577 -0.0051  0.1742
14270TIP3    H164225   5.011   2.035   0.701 -1.0774  0.3043 -0.6374
14270TIP3    H264226   5.124   1.969   0.626  0.2377  1.7383  0.0337
14271TIP3   OH264227   1.756   0.583   1.229  0.2579 -0.2230 -0.3193
14271TIP3    H164228   1.751   0.549   1.318 -0.5467  1.7722  0.4486
14271TIP3    H264229   1.824   0.530   1.187  1.0355 -0.8581  1.6204
14272TIP3   OH264230   3.762   4.423  14.623 -0.6396 -0.1466 -0.6331
14272TIP3    H164231   3.857   4.423  14.634 -0.4304 -2.0300 -1.9421
14272TIP3    H264232   3.746   4.487  14.553 -0.0655 -1.4080 -1.9615
14273TIP3   OH264233   5.085   4.927   3.601  0.1617  0.0803 -0.5017
14273TIP3    H164234   5.035   4.961   3.527 -1.3282  0.2993  0.5474
14273TIP3    H264235   5.151   4.994   3.618  0.6647 -0.0785 -1.7498
14274TIP3   OH264236   0.840   1.086   4.844  0.3679 -0.1668  0.4565
14274TIP3    H164237   0.819   1.168   4.889 -1.1942 -1.2154  1.7477
14274TIP3    H264238   0.774   1.079   4.775  0.8725 -0.0714 -0.0479
14275TIP3   OH264239   1.409   6.089  15.473 -0.5385  0.0445  0.2031
14275TIP3    H164240   1.478   6.054  15.417  1.0338 -0.0193  2.0444
14275TIP3    H264241   1.331   6.039  15.450  0.7604 -2.1140  0.1612
14276TIP3   OH264242   5.016   1.244   1.290  0.3567  0.5421  0.2736
14276TIP3    H164243   4.979   1.221   1.205  2.8842 -0.1350 -0.7236
14276TIP3    H264244   5.034   1.337   1.285 -0.8843  0.8257  0.6787
14277TIP3   OH264245   2.970   2.246   4.491  0.3307 -0.2547  0.2528
14277TIP3    H164246   2.988   2.335   4.520 -1.2351 -0.1655  1.0870
14277TIP3    H264247   3.056   2.206   4.478  1.0818  0.6912  2.0134
14278TIP3   OH264248   1.713   1.475  13.169  0.1304  0.1908  0.1603
14278TIP3    H164249   1.670   1.546  13.121 -2.5794 -2.5475 -1.8731
14278TIP3    H264250   1.761   1.426  13.102 -3.2346 -3.3765  0.0030
14279TIP3   OH264251   6.355   2.486   3.329  0.3855  0.0220 -0.2688
14279TIP3    H164252   6.370   2.401   3.369 -3.3774 -1.2680 -1.1328
14279TIP3    H264253   6.282   2.523   3.379  3.6409  4.2576  1.9720
14280TIP3   OH264254   5.405   6.549  14.491  0.4107  0.1762  0.2227
14280TIP3    H164255   5.327   6.496  14.476  0.3251  0.2533  0.3924
14280TIP3    H264256   5.404   6.614  14.421  0.5865 -0.1228 -0.0654
14281TIP3   OH264257   1.244   3.380   4.515 -0.4490  0.2167  0.5134
14281TIP3    H164258   1.226   3.469   4.485 -1.2976 -0.2884 -0.5584
14281TIP3    H264259   1.333   3.362   4.485 -1.4780 -0.4860 -2.3582
14282TIP3   OH264260   1.237   2.549   3.215  0.2550  0.4520  0.0794
14282TIP3    H164261   1.162   2.591   3.258 -1.2152  0.6679 -2.4785
14282TIP3    H264262   1.278   2.618   3.164  0.2842 -0.3157 -0.9816
14283TIP3   OH264263   3.764   6.439   3.871 -0.1506  0.3730  0.4459
14283TIP3    H164264   3.857   6.442   3.892 -0.5099  0.8069  2.1215
14283TIP3    H264265   3.738   6.531   3.862  0.1147  0.2698 -2.9129
14284TIP3   OH264266   2.007   6.109   3.277 -0.3425 -0.1593 -0.0398
14284TIP3    H164267   1.982   6.022   3.307 -0.7611 -0.0029  0.0769
14284TIP3    H264268   2.003   6.105   3.182  0.8802 -0.6280 -0.0952
14285TIP3   OH264269   0.365   0.378  13.211 -0.5046  0.2326 -0.5416
14285TIP3    H164270   0.447   0.349  13.250 -0.1760 -0.5926 -1.8057
14285TIP3    H264271   0.310   0.300  13.208 -0.2397  0.0563 -2.3765
14286TIP3   OH264272   5.076   3.499   1.353  0.2768  0.0099  0.4807
14286TIP3    H164273   5.017   3.469   1.422  0.2168  1.6550  1.1964
14286TIP3    H264274   5.071   3.431   1.286 -1.5772 -0.4504  1.0129
14287TIP3   OH264275   3.650   1.916  16.936 -0.2847 -0.0790  0.5297
14287TIP3    H164276   3.740   1.941  16.915 -0.6448  0.9436  0.1454
14287TIP3    H264277   3.633   1.955  17.022  0.7030 -3.0498  2.1989
14288TIP3   OH264278   3.212   2.440   2.469 -0.4616  0.0438  0.1141
14288TIP3    H164279   3.147   2.487   2.521 -1.7980  0.4357 -1.7793
14288TIP3    H264280   3.280   2.505   2.451 -1.2386  0.6806 -0.6744
14289TIP3   OH264281   6.447   4.432  10.838 -0.0340  0.9092 -0.0370
14289TIP3    H164282   6.385   4.372  10.796  0.8568 -0.1446  0.0921
14289TIP3    H264283   6.438   4.414  10.932 -1.1063  2.3537  0.1734
14290TIP3   OH264284   5.705   3.677  11.625  0.1703  0.3060 -0.7279
14290TIP3    H164285   5.620   3.705  11.593 -0.6042  0.0391  0.9857
14290TIP3    H264286   5.713   3.586  11.595 -0.2237  0.2834 -0.7698
14291TIP3   OH264287   4.407   0.119   5.976 -0.1577 -0.3117 -0.4337
14291TIP3    H164288   4.373   0.088   5.893 -0.2253 -0.1109 -0.4823
14291TIP3    H264289   4.501   0.098   5.973 -0.2873 -0.9324 -0.2647
14292TIP3   OH264290   0.397   2.842   4.906  0.3213 -0.7054  0.0346
14292TIP3    H164291   0.329   2.819   4.842 -1.3168 -0.6340  1.6882
14292TIP3    H264292   0.454   2.902   4.859  0.2234 -2.0390 -1.9295
14293TIP3   OH264293   1.718   2.349   5.475  0.0039 -0.0184 -0.0900
14293TIP3    H164294   1.708   2.297   5.395 -0.0011  1.2249 -0.9130
14293TIP3    H264295   1.797   2.401   5.461 -0.0617  0.3059  0.6718
14294TIP3   OH264296   5.672   6.230  13.020 -0.4718  0.0666 -0.0918
14294TIP3    H164297   5.712   6.147  13.045  1.1019  0.6455 -0.6072
14294TIP3    H264298   5.733   6.297  13.052 -1.2240  0.9978 -0.5538
14295TIP3   OH264299   5.836   0.105   3.431  0.6087 -0.0961  0.3514
14295TIP3    H164300   5.874   0.179   3.478 -1.5979  0.8362  0.8366
14295TIP3    H264301   5.783   0.146   3.362 -1.4107 -1.1030  1.2070
14296TIP3   OH264302   2.095   2.927  16.655  0.3705  0.6172 -0.5182
14296TIP3    H164303   2.182   2.966  16.667  0.2689  0.7137 -0.1079
14296TIP3    H264304   2.106   2.871  16.578  0.9694  0.1328 -0.0980
14297TIP3   OH264305   0.163   3.242   2.516 -0.0007 -0.4977  0.6563
14297TIP3    H164306   0.072   3.239   2.485  0.2170 -0.4658 -0.0100
14297TIP3    H264307   0.168   3.174   2.582 -0.6662 -0.0941  1.1364
14298TIP3   OH264308   6.066   6.674  15.111 -0.3194 -0.2645  0.5693
14298TIP3    H164309   5.992   6.682  15.171 -0.4360 -1.4494  0.5984
14298TIP3    H264310   6.068   6.582  15.086 -0.6777  0.2901 -1.7608
14299TIP3   OH264311   0.915   1.928   1.654 -0.3306  0.4956  0.1960
14299TIP3    H164312   0.972   1.982   1.708  3.0872 -1.3202 -1.3356
14299TIP3    H264313   0.885   1.987   1.584  0.0300  1.3599  0.7520
14300TIP3   OH264314   4.435   4.827   4.097 -0.1670  0.5673  0.3904
14300TIP3    H164315   4.453   4.917   4.125 -0.2422  0.6267  0.2534
14300TIP3    H264316   4.511   4.777   4.124  1.1191  1.1696 -1.8872
14301TIP3   OH264317   6.370   5.538  13.476 -0.1146  0.0501  0.2217
14301TIP3    H164318   6.381   5.633  13.483  1.9798 -0.0557 -0.7243
14301TIP3    H264319   6.460   5.504  13.476 -0.8431 -1.9888  1.1270
14302TIP3   OH264320   1.040   0.899   5.552 -0.4464  0.0007 -0.2971
14302TIP3    H164321   1.019   0.809   5.579 -0.3763 -0.0257 -0.3296
14302TIP3    H264322   1.132   0.911   5.576 -0.6438  0.2962  0.3195
14303TIP3   OH264323   4.044   2.168  11.230 -0.4974  0.3752 -0.0953
14303TIP3    H164324   3.954   2.141  11.249 -0.5574  1.7248  1.8127
14303TIP3    H264325   4.054   2.252  11.275  1.4371  0.7255 -1.0597
14304TIP3   OH264326   6.159   0.214  12.293  0.3071  0.3926  0.1826
14304TIP3    H164327   6.163   0.309  12.290  0.6825  0.4440  1.6162
14304TIP3    H264328   6.092   0.195  12.360  1.7877 -0.3136  1.5236
14305TIP3   OH264329   3.589   1.781   4.748  0.4555 -0.0403  0.1839
14305TIP3    H164330   3.521   1.714   4.743  1.6888 -1.2621 -2.2564
14305TIP3    H264331   3.564   1.846   4.682 -0.0584  1.3033  1.6434
14306TIP3   OH264332   2.262   1.956   6.070  0.5467 -0.3553  0.1032
14306TIP3    H164333   2.235   1.879   6.121  3.7006  0.7292  3.8901
14306TIP3    H264334   2.207   2.026   6.103  0.1846 -0.2736 -0.6570
14307TIP3   OH264335   3.367   3.686   2.254 -0.1329  0.1753  0.6710
14307TIP3    H164336   3.450   3.704   2.298  0.2586 -2.4240  1.1252
14307TIP3    H264337   3.300   3.708   2.319  0.2745  0.2604  1.0669
14308TIP3   OH264338   5.457   3.510  12.927 -0.3465 -0.4122  0.2508
14308TIP3    H164339   5.466   3.415  12.922 -1.0662 -0.5271  0.9139
14308TIP3    H264340   5.379   3.529  12.874 -0.3612 -0.2259  0.3390
14309TIP3   OH264341   0.571   2.563  15.132 -0.1837  0.3009  0.2931
14309TIP3    H164342   0.577   2.505  15.208 -1.4197  0.3354  0.4425
14309TIP3    H264343   0.539   2.506  15.062 -1.3280  0.7591  0.4218
14310TIP3   OH264344   4.558   2.548  12.935  0.4547 -0.5016 -0.0262
14310TIP3    H164345   4.631   2.601  12.902 -0.7267  0.0137 -1.9351
14310TIP3    H264346   4.480   2.589  12.899 -0.9091 -0.5162  2.6962
14311TIP3   OH264347   5.817   4.535  16.395  0.3488 -0.5041 -0.0329
14311TIP3    H164348   5.906   4.517  16.426  0.2361 -0.7022  0.1789
14311TIP3    H264349   5.768   4.456  16.417  0.1986 -0.5290 -0.4557
14312TIP3   OH264350   1.520   2.216  11.818 -0.1918  0.3721  0.1425
14312TIP3    H164351   1.501   2.283  11.883  0.4554  1.2206 -0.5121
14312TIP3    H264352   1.460   2.144  11.838 -0.8001  1.0907  0.9464
14313TIP3   OH264353   5.082   6.719  14.283  1.0367  0.4348  0.0654
14313TIP3    H164354   5.063   6.785  14.350 -2.0288 -0.0052 -0.2280
14313TIP3    H264355   5.123   6.768  14.212 -0.2744  1.8850  0.2604
14314TIP3   OH264356   5.980   1.329   2.944  0.0966  0.1152 -0.3596
14314TIP3    H164357   6.053   1.331   3.007  0.0305  1.1341 -0.3045
14314TIP3    H264358   6.019   1.357   2.862  0.1352 -1.0236 -0.7537
14315TIP3   OH264359   2.945   5.521   0.502  0.5195 -0.0783  0.0478
14315TIP3    H164360   2.857   5.485   0.505  0.0087  1.0816 -0.6805
14315TIP3    H264361   2.997   5.461   0.557  0.0054 -2.6803 -2.0917
14316TIP3   OH264362   0.068   2.505  10.628  0.0631 -0.3570  0.5025
14316TIP3    H164363   0.030   2.447  10.694  0.5827  0.9153  1.9946
14316TIP3    H264364   0.160   2.479  10.622  0.0130 -0.4823  0.2637
14317TIP3   OH264365   3.897   5.353  12.773  0.2215  0.6292  0.0010
14317TIP3    H164366   3.991   5.349  12.754  0.2056  0.7499 -0.1059
14317TIP3    H264367   3.873   5.444  12.755  0.0523  0.5609 -0.1174
14318TIP3   OH264368   5.326   0.687   3.131  0.2539 -0.0322  0.3215
14318TIP3    H164369   5.244   0.702   3.083  0.8760  1.7356 -0.2712
14318TIP3    H264370   5.298   0.660   3.218 -0.9809  0.7602  0.2038
14319TIP3   OH264371   2.039   6.679  16.570  0.0372 -0.3034  0.0172
14319TIP3    H164372   1.969   6.691  16.506  0.3835  0.0915 -0.2895
14319TIP3    H264373   2.042   6.762  16.618  1.7755  0.5356 -1.4531
14320TIP3   OH264374   4.630   2.695   2.002  0.1433  0.1672  0.5023
14320TIP3    H164375   4.608   2.618   1.948  0.2176  0.6361 -0.2027
14320TIP3    H264376   4.651   2.764   1.939  0.5650  0.6325  1.1367
14321TIP3   OH264377   2.807   2.863  14.018 -0.3712 -0.1560  0.0143
14321TIP3    H164378   2.842   2.786  14.062 -2.0497 -1.2881 -0.5312
14321TIP3    H264379   2.847   2.937  14.064  3.2582 -1.2521 -1.0051
14322TIP3   OH264380   4.953   2.639   1.984  0.3804 -0.0791 -0.3851
14322TIP3    H164381   4.925   2.551   2.009 -0.5312 -0.0116 -1.1297
14322TIP3    H264382   5.041   2.627   1.949  1.8999 -0.1397  3.0158
14323TIP3   OH264383   0.349   6.415  11.037 -0.3735 -0.3339  0.4995
14323TIP3    H164384   0.346   6.335  10.984  1.9848 -1.1653  1.4811
14323TIP3    H264385   0.421   6.400  11.098  0.4458  2.7603  0.4304
14324TIP3   OH264386   3.054   1.007  11.217 -0.2811  0.3817  0.5247
14324TIP3    H164387   3.111   1.084  11.207  1.4432 -0.8266  0.6136
14324TIP3    H264388   3.022   0.988  11.129  0.9134  0.0280  0.1528
14325TIP3   OH264389   1.552   5.289  15.368  0.3419 -0.7448 -0.3554
14325TIP3    H164390   1.498   5.349  15.317  1.0142  1.2452  1.1881
14325TIP3    H264391   1.615   5.253  15.305 -0.2551 -0.0543 -1.3543
14326TIP3   OH264392   6.395   0.131   5.435 -0.3308  0.0660  0.0497
14326TIP3    H164393   6.338   0.177   5.497 -0.0628  2.9659 -1.6791
14326TIP3    H264394   6.340   0.116   5.358 -0.5489 -3.1491  0.6678
14327TIP3   OH264395   5.127   5.901   0.353 -0.0621 -0.3459 -0.2041
14327TIP3    H164396   5.103   5.857   0.434  1.2433 -1.5812 -0.4627
14327TIP3    H264397   5.060   5.969   0.342 -0.6378 -0.5883  1.5413
14328TIP3   OH264398   1.829   3.895  17.353 -0.5206 -0.3433 -0.6491
14328TIP3    H164399   1.762   3.963  17.359 -0.2456 -0.1588  0.5130
14328TIP3    H264400   1.888   3.926  17.284  0.5302  1.4500  0.9853
14329TIP3   OH264401   1.616   4.966  12.802 -0.4940  0.4632  0.0576
14329TIP3    H164402   1.687   4.911  12.835 -1.0297  1.0380  2.3530
14329TIP3    H264403   1.548   4.905  12.774  0.5693 -0.0718 -1.4831
14330TIP3   OH264404   2.910   5.359  11.211  0.1689 -0.2263 -0.8718
14330TIP3    H164405   2.836   5.299  11.204 -1.0290  0.9354  0.9384
14330TIP3    H264406   2.986   5.306  11.188 -1.0438 -1.8912 -1.2266
14331TIP3   OH264407   3.662   1.798  15.158 -0.5612 -0.2563  0.3940
14331TIP3    H164408   3.626   1.797  15.247 -1.3748 -3.2170  0.1307
14331TIP3    H264409   3.585   1.809  15.102 -0.1160  0.9969  0.0012
14332TIP3   OH264410   3.459   0.555   5.826  0.2507  0.3285 -0.7859
14332TIP3    H164411   3.466   0.536   5.733 -1.2652  2.2182 -1.3553
14332TIP3    H264412   3.483   0.473   5.869  0.0709 -0.8791 -2.8444
14333TIP3   OH264413   0.994   3.854  16.963  0.0909  0.0033 -0.1317
14333TIP3    H164414   1.018   3.827  17.052 -0.4879 -0.9186 -0.2443
14333TIP3    H264415   0.898   3.852  16.963  0.0351  1.7570 -0.2577
14334TIP3   OH264416   6.535   3.304   5.241  0.5223 -0.0045 -0.2283
14334TIP3    H164417   6.597   3.328   5.172  0.7974  0.5556  0.1993
14334TIP3    H264418   6.495   3.387   5.267 -0.6575 -0.3962 -0.7123
14335TIP3   OH264419   5.343   3.825  12.883 -0.1952  0.5950  0.0753
14335TIP3    H164420   5.399   3.788  12.816 -1.6437 -2.0761  0.1964
14335TIP3    H264421   5.383   3.799  12.966 -1.5554 -1.4825  0.1636
14336TIP3   OH264422   2.980   4.301   6.035 -0.3597  0.2383  0.1698
14336TIP3    H164423   2.999   4.224   5.981  0.7048  0.1255  0.6851
14336TIP3    H264424   3.054   4.307   6.096 -0.5567  1.5187  0.3126
14337TIP3   OH264425   3.728   4.341  11.826  0.1946  0.1506  0.4992
14337TIP3    H164426   3.657   4.382  11.875  0.3762  1.2892 -0.1372
14337TIP3    H264427   3.685   4.275  11.772 -0.5578  1.5086 -0.6213
14338TIP3   OH264428   1.945   6.618  16.931 -0.0495  0.6589 -0.0578
14338TIP3    H164429   2.030   6.655  16.908  0.6309 -1.9402 -2.2601
14338TIP3    H264430   1.886   6.644  16.860 -0.3328  0.0811 -0.0439
14339TIP3   OH264431   0.816   4.175   4.443 -0.3037  0.6399 -0.5115
14339TIP3    H164432   0.889   4.222   4.483 -1.2315  2.1478 -0.5022
14339TIP3    H264433   0.739   4.205   4.491 -0.9182 -1.1954 -0.2720
14340TIP3   OH264434   4.354   2.887  15.208  0.5355 -0.0125 -0.1031
14340TIP3    H164435   4.408   2.887  15.129 -0.2265  0.4103 -0.6369
14340TIP3    H264436   4.403   2.941  15.270  0.3124  1.1152 -0.8801
14341TIP3   OH264437   3.142   5.548  14.833 -0.2561  0.0457  0.0428
14341TIP3    H164438   3.227   5.534  14.790  0.3621  2.1369  0.4650
14341TIP3    H264439   3.078   5.519  14.768  0.7522 -1.0626 -0.5013
14342TIP3   OH264440   5.855   6.251   2.076  0.0413 -0.0924  0.0884
14342TIP3    H164441   5.911   6.319   2.114  0.8139 -0.2622 -0.7038
14342TIP3    H264442   5.848   6.184   2.144 -1.2032  1.0250  1.0919
14343TIP3   OH264443   3.220   0.454   6.469  0.8819  0.1724 -0.0200
14343TIP3    H164444   3.130   0.483   6.485  0.8365 -0.4380  0.8517
14343TIP3    H264445   3.226   0.369   6.512  1.7824  0.0567 -0.3642
14344TIP3   OH264446   3.560   0.736  13.784  0.0590  0.3370  0.1797
14344TIP3    H164447   3.618   0.804  13.750 -0.5671  0.2904 -1.0178
14344TIP3    H264448   3.573   0.661  13.725 -0.7591  0.1195  0.2562
14345TIP3   OH264449   3.284   5.840  10.853 -0.1796 -0.3948 -0.0451
14345TIP3    H164450   3.251   5.927  10.872  0.2993 -0.2303  0.0553
14345TIP3    H264451   3.341   5.852  10.777 -2.3308 -1.0944 -1.8610
14346TIP3   OH264452   0.265   1.198   4.808  0.2074  0.2373  0.0590
14346TIP3    H164453   0.290   1.115   4.767  2.0754  0.9271 -0.2571
14346TIP3    H264454   0.238   1.173   4.897 -0.3157 -0.8115 -0.3699
14347TIP3   OH264455   4.035   1.292   0.119  0.4913 -0.6554  0.3047
14347TIP3    H164456   3.951   1.277   0.075  0.4837 -1.6161  0.6309
14347TIP3    H264457   4.084   1.346   0.057 -0.9875  1.4265  0.8500
14348TIP3   OH264458   1.308   0.577   3.913  0.0481 -0.7336  0.0688
14348TIP3    H164459   1.333   0.485   3.904  0.6958 -0.5497 -0.1123
14348TIP3    H264460   1.326   0.598   4.005  2.0190 -0.2109 -0.3891
14349TIP3   OH264461   4.996   5.784   3.824 -0.1261 -0.4809  0.4092
14349TIP3    H164462   4.937   5.762   3.896 -2.3451  1.5761 -0.6280
14349TIP3    H264463   5.041   5.863   3.854 -0.0315 -0.4159  0.1014
14350TIP3   OH264464   6.445   5.044  15.423  0.1469 -0.3174 -0.1450
14350TIP3    H164465   6.391   4.973  15.457 -0.5085 -0.2376 -0.9874
14350TIP3    H264466   6.466   5.017  15.333  0.8228  0.0353 -0.1007
14351TIP3   OH264467   3.122   4.331  16.147 -0.2782 -0.5163  0.3337
14351TIP3    H164468   3.124   4.240  16.173  1.7462 -0.2506  1.2855
14351TIP3    H264469   3.150   4.380  16.224 -1.2331  0.9243 -0.1739
14352TIP3   OH264470   4.712   5.087  13.453 -0.1458  0.1570 -0.0732
14352TIP3    H164471   4.684   4.996  13.461 -0.5289  0.3138  0.4331
14352TIP3    H264472   4.791   5.083  13.399 -0.7436 -0.3649 -0.9441
14353TIP3   OH264473   6.515   2.315   5.495 -0.0402 -0.5489 -0.1598
14353TIP3    H164474   6.604   2.279   5.491  0.2731  0.2082 -0.2276
14353TIP3    H264475   6.528   2.409   5.511 -0.8351 -0.4742  0.0777
14354TIP3   OH264476   4.251   3.085  13.261  0.1393 -0.2320 -0.1683
14354TIP3    H164477   4.267   3.006  13.209  0.5223 -0.3826  0.1754
14354TIP3    H264478   4.323   3.088  13.324 -0.5453 -0.2797  0.6358
14355TIP3   OH264479   0.121   6.512  15.815  0.0479 -0.5777 -0.2723
14355TIP3    H164480   0.095   6.482  15.902 -0.1863 -0.0566 -0.1591
14355TIP3    H264481   0.127   6.432  15.763 -0.1486 -0.8597  0.1321
14356TIP3   OH264482   2.294   5.729  15.959  0.1035  0.1846  0.1947
14356TIP3    H164483   2.201   5.715  15.936  0.3031 -1.2139  0.1253
14356TIP3    H264484   2.330   5.774  15.883 -0.0274 -1.3162 -0.7964
14357TIP3   OH264485   0.401   3.460   4.473  0.3149 -0.3235  0.4254
14357TIP3    H164486   0.321   3.484   4.518 -0.2001  0.5794 -0.9041
14357TIP3    H264487   0.400   3.364   4.472 -0.3395 -0.3308  1.1129
14358TIP3   OH264488   4.704   1.248   1.198  0.2152 -0.4982  0.1048
14358TIP3    H164489   4.622   1.202   1.216 -0.4549  0.1741 -1.1068
14358TIP3    H264490   4.697   1.276   1.107  2.3826 -1.6515 -0.5080
14359TIP3   OH264491   5.295   5.189   5.187  0.7108 -0.9500  0.0523
14359TIP3    H164492   5.379   5.224   5.216 -1.0717  1.9790  2.2367
14359TIP3    H264493   5.291   5.211   5.094  2.0442 -0.5024  0.0740
14360TIP3   OH264494   5.413   3.017   0.101 -0.2764  0.1938  0.2494
14360TIP3    H164495   5.467   2.958   0.050  0.2301  0.2475  0.7190
14360TIP3    H264496   5.380   3.081   0.037 -1.1770 -0.8256 -0.3371
14361TIP3   OH264497   0.283   5.133  11.169 -0.6701  0.3014  0.2504
14361TIP3    H164498   0.360   5.174  11.209 -0.2312 -1.3959  1.2832
14361TIP3    H264499   0.291   5.151  11.076  0.5341  0.8764  0.4507
14362TIP3   OH264500   6.039   1.125  12.284 -0.0161  0.5661  0.2669
14362TIP3    H164501   6.049   1.036  12.320 -0.3622 -0.0014 -0.9837
14362TIP3    H264502   6.046   1.182  12.360  0.9168 -0.4851  1.0086
14363TIP3   OH264503   1.205   0.745  11.625  0.0374  0.0686 -0.5435
14363TIP3    H164504   1.238   0.833  11.606  3.0933 -0.4027  1.9006
14363TIP3    H264505   1.194   0.743  11.720  3.8499 -3.2299  0.0785
14364TIP3   OH264506   2.608   5.106  17.075 -0.2645 -0.6031  0.4130
14364TIP3    H164507   2.587   5.184  17.024  2.2964  1.1246  1.8169
14364TIP3    H264508   2.535   5.046  17.058 -2.5307  2.1818 -0.4543
14365TIP3   OH264509   6.567   2.153   2.793 -0.5378 -0.2070 -0.7375
14365TIP3    H164510   6.644   2.129   2.740 -0.4463 -2.4034  0.2897
14365TIP3    H264511   6.493   2.116   2.745 -0.6230 -0.7968 -0.1526
14366TIP3   OH264512   5.055   0.157  14.500  0.3874 -0.2120  0.4967
14366TIP3    H164513   4.972   0.179  14.541 -0.1122  1.7092 -1.3577
14366TIP3    H264514   5.121   0.205  14.551  0.0512  0.3103  0.4434
14367TIP3   OH264515   4.970   3.109   2.916 -0.2818 -0.3966  0.0604
14367TIP3    H164516   4.992   3.181   2.976  0.3863 -0.1308 -0.4992
14367TIP3    H264517   5.048   3.053   2.916  0.4884  0.5700 -1.9637
14368TIP3   OH264518   0.393   2.688   5.917 -0.3041 -0.5764 -0.2173
14368TIP3    H164519   0.349   2.648   5.842 -0.8455 -3.1811  1.3714
14368TIP3    H264520   0.331   2.753   5.950 -1.2295 -1.3498 -0.4105
14369TIP3   OH264521   5.900   4.231   0.466 -0.0106 -0.6737  0.9253
14369TIP3    H164522   5.918   4.296   0.534 -1.2682 -1.8374  2.4687
14369TIP3    H264523   5.812   4.253   0.435  0.4345 -0.3358 -0.1514
14370TIP3   OH264524   2.696   6.277   1.230  0.7203 -0.4285  0.4025
14370TIP3    H164525   2.758   6.236   1.169  1.4048  0.1836  0.6799
14370TIP3    H264526   2.739   6.358   1.258 -0.3793  0.2169  0.2871
14371TIP3   OH264527   3.453   2.037  15.288  0.3051  0.1236  0.7736
14371TIP3    H164528   3.359   2.051  15.281  0.0393 -1.4830  0.8090
14371TIP3    H264529   3.470   2.033  15.383  0.5108  0.8899  0.7822
14372TIP3   OH264530   4.443   1.783   0.862  0.2177  0.0926  0.1640
14372TIP3    H164531   4.511   1.716   0.865 -0.2187 -0.3112  1.3992
14372TIP3    H264532   4.386   1.764   0.936 -2.0565 -0.4239 -1.5855
14373TIP3   OH264533   6.626   4.045  15.594  0.3992 -0.1582 -0.2087
14373TIP3    H164534   6.580   3.986  15.534 -1.6090 -0.2091  1.2415
14373TIP3    H264535   6.621   4.000  15.679  1.4965  0.7442  0.3508
14374TIP3   OH264536   1.257   3.788  17.168 -0.3860 -0.3887  0.2971
14374TIP3    H164537   1.293   3.701  17.185 -1.9495 -1.2659 -0.6279
14374TIP3    H264538   1.199   3.805  17.242  1.0939  0.5899  1.2791
14375TIP3   OH264539   1.237   1.194   3.201  0.3225 -0.1090 -0.1643
14375TIP3    H164540   1.248   1.107   3.162 -0.4032 -0.5621  0.6333
14375TIP3    H264541   1.221   1.251   3.125  0.7540 -0.6700 -0.6922
14376TIP3   OH264542   1.118   6.228   4.658 -0.0325  0.1179 -0.4458
14376TIP3    H164543   1.142   6.318   4.638 -3.5913  0.7179 -3.1537
14376TIP3    H264544   1.195   6.176   4.635  1.5811  2.3026 -0.2358
14377TIP3   OH264545   0.279   0.506   2.460  0.5346 -0.7350 -0.1581
14377TIP3    H164546   0.366   0.467   2.457  0.4884 -0.7939 -1.2660
14377TIP3    H264547   0.266   0.541   2.372  0.0552  0.6448  0.4468
14378TIP3   OH264548   0.738   2.982  15.860  0.1103 -0.2321  0.6414
14378TIP3    H164549   0.664   2.953  15.807  0.4135 -0.0501  0.1102
14378TIP3    H264550   0.700   3.041  15.925 -0.3309 -0.8201  0.9245
14379TIP3   OH264551   5.145   1.932  12.364  0.4892 -0.4085 -0.5109
14379TIP3    H164552   5.101   1.970  12.440 -2.0301  1.3718 -2.6703
14379TIP3    H264553   5.234   1.968  12.368  0.4555 -0.4209  1.5717
14380TIP3   OH264554   3.628   0.116  11.312  0.0839  0.3867  0.4117
14380TIP3    H164555   3.533   0.103  11.315 -0.0611  1.4402  0.6590
14380TIP3    H264556   3.655   0.077  11.228 -0.8958  2.0315 -0.7245
14381TIP3   OH264557   1.748   4.585   3.974  0.0456 -0.0959  0.0029
14381TIP3    H164558   1.760   4.576   4.068 -0.1957  2.4057  0.3309
14381TIP3    H264559   1.829   4.549   3.937  0.8449  0.3507  1.2479
14382TIP3   OH264560   3.670   6.421  11.301 -0.6900  0.7195  0.6991
14382TIP3    H164561   3.717   6.358  11.247 -0.7598  0.7456  0.6064
14382TIP3    H264562   3.706   6.410  11.389 -0.9765  0.2782  0.7611
14383TIP3   OH264563   1.741   4.099   6.691 -0.4286  0.4015 -0.2451
14383TIP3    H164564   1.758   4.011   6.658  1.5105  1.3753 -2.1006
14383TIP3    H264565   1.684   4.139   6.624 -0.0767  1.0143 -0.1902
14384TIP3   OH264566   5.874   4.838  11.276  0.2454 -0.5057 -0.5883
14384TIP3    H164567   5.833   4.886  11.204  1.2898  0.1585 -0.7675
14384TIP3    H264568   5.966   4.866  11.274  0.0822  0.4726  1.7251
14385TIP3   OH264569   0.517   5.675  14.289  0.4779  0.2695 -0.7266
14385TIP3    H164570   0.579   5.605  14.307  0.6550  0.5126 -0.3472
14385TIP3    H264571   0.431   5.636  14.303  0.5891  0.2406 -0.0543
14386TIP3   OH264572   5.717   4.888   1.012 -0.3288 -0.6208  0.4797
14386TIP3    H164573   5.638   4.942   1.017 -1.3495 -2.0336  0.4406
14386TIP3    H264574   5.765   4.922   0.936 -1.9127 -0.9731 -0.7381
14387TIP3   OH264575   0.767   5.109  12.510  0.0943  0.5775 -0.5468
14387TIP3    H164576   0.744   5.017  12.526  0.1381  0.6717  0.0882
14387TIP3    H264577   0.684   5.151  12.488  0.3892 -0.0862 -3.3272
14388TIP3   OH264578   3.364   6.384  11.635  0.2818  0.4059  0.1042
14388TIP3    H164579   3.335   6.313  11.692 -0.9261  1.1890  0.4998
14388TIP3    H264580   3.451   6.407  11.667 -0.2392  0.6123  1.4401
14389TIP3   OH264581   3.041   6.687   0.018 -0.1303  0.7499  0.5421
14389TIP3    H164582   2.971   6.722  -0.038 -0.2566 -0.3140  0.0090
14389TIP3    H264583   3.058   6.757   0.082 -2.2124  0.7418  1.1726
14390TIP3   OH264584   0.096   6.086  13.100 -0.3926 -0.2150  1.0105
14390TIP3    H164585   0.053   6.004  13.124  1.3648 -1.3681  0.4049
14390TIP3    H264586   0.190   6.066  13.101  0.0467  1.4903 -0.2284
14391TIP3   OH264587   4.140   3.903  14.526 -0.3816  0.2362  0.1567
14391TIP3    H164588   4.160   3.923  14.434 -0.7776  0.0021  0.0160
14391TIP3    H264589   4.051   3.869  14.524  0.1234 -1.1610  0.4384
14392TIP3   OH264590   4.377   4.717   4.798  0.1847  0.3241 -0.4083
14392TIP3    H164591   4.462   4.743   4.761  1.0729 -0.2986  1.1221
14392TIP3    H264592   4.365   4.775   4.873 -0.2266 -0.3095  0.0208
14393TIP3   OH264593   5.453   0.929  14.546  0.5223  0.2381 -0.2244
14393TIP3    H164594   5.385   0.899  14.486  1.4445 -2.1440 -0.2034
14393TIP3    H264595   5.408   0.940  14.630 -0.2962  1.1278 -0.7691
14394TIP3   OH264596   2.707   0.619   4.637 -0.3153  0.3843 -0.5273
14394TIP3    H164597   2.727   0.703   4.594  0.3222 -0.0255 -1.0412
14394TIP3    H264598   2.622   0.634   4.678  0.0385  1.4642 -0.1466
14395TIP3   OH264599   0.690   2.999  13.941 -0.1689 -0.1862 -0.1741
14395TIP3    H164600   0.769   2.946  13.940  1.5857  2.2434  0.8087
14395TIP3    H264601   0.660   3.000  13.850  0.8789 -1.1923 -0.5474
14396TIP3   OH264602   4.278   1.119  14.508  0.2867  0.2992  0.5949
14396TIP3    H164603   4.253   1.036  14.549 -1.1521  0.5231  0.2278
14396TIP3    H264604   4.214   1.131  14.438  1.7198  0.7219 -0.6900
14397TIP3   OH264605   0.640   4.976   5.528  0.4477  0.2809 -0.4914
14397TIP3    H164606   0.696   4.914   5.482  0.7519  0.6335 -0.6050
14397TIP3    H264607   0.677   5.062   5.507  1.0783  0.4131  1.0279
14398TIP3   OH264608   4.179   2.563  10.853  0.7722 -0.1684 -0.8647
14398TIP3    H164609   4.125   2.497  10.809  1.1268  0.6067 -2.5369
14398TIP3    H264610   4.242   2.512  10.903 -1.6782 -1.1336  1.5370
14399TIP3   OH264611   5.808   1.879  12.186  0.4107  0.5363 -0.4393
14399TIP3    H164612   5.804   1.819  12.261 -1.0694 -0.4173 -1.2332
14399TIP3    H264613   5.772   1.961  12.220 -0.1902  0.1325 -0.0781
14400TIP3   OH264614   2.206   2.611  16.141 -0.3652  0.3388 -0.9176
14400TIP3    H164615   2.199   2.571  16.227 -2.7569 -1.4663 -1.8129
14400TIP3    H264616   2.299   2.608  16.120 -0.0614 -1.9099  0.4281
14401TIP3   OH264617   6.601   5.487  15.287  0.1676  0.3861 -0.2225
14401TIP3    H164618   6.584   5.437  15.367  0.0180  0.4437 -0.2190
14401TIP3    H264619   6.517   5.528  15.266  0.1680  0.2537 -0.4891
14402TIP3   OH264620   1.236   4.685   4.992 -0.1210 -0.2555 -0.4417
14402TIP3    H164621   1.214   4.751   5.058 -1.6001 -1.3331  0.1908
14402TIP3    H264622   1.300   4.628   5.036  0.2891  0.0858 -0.5911
14403TIP3   OH264623   6.347   3.424   2.021 -0.2470  0.5676  0.1907
14403TIP3    H164624   6.433   3.459   2.046  0.5893 -0.8972 -0.5272
14403TIP3    H264625   6.367   3.354   1.959 -2.0415  1.1366 -1.0942
14404TIP3   OH264626   6.345   2.198  12.366  0.0752 -0.0242 -0.3553
14404TIP3    H164627   6.290   2.276  12.373  0.3979  0.1328  0.6090
14404TIP3    H264628   6.286   2.129  12.336 -0.5041  0.2948  0.0375
14405TIP3   OH264629   5.639   0.607  13.934  0.1443 -0.3335  0.5345
14405TIP3    H164630   5.685   0.629  14.015 -0.1124  0.9885  0.3335
14405TIP3    H264631   5.708   0.601  13.868  0.1970  0.1242  0.5448
14406TIP3   OH264632   5.615   6.417  15.126  0.3231  0.1461  0.2697
14406TIP3    H164633   5.671   6.461  15.062  0.2754 -1.4713 -0.9404
14406TIP3    H264634   5.616   6.325  15.099 -2.0319 -0.1000  0.8561
14407TIP3   OH264635   5.169   0.366  13.182 -0.4789 -0.3495 -0.2912
14407TIP3    H164636   5.140   0.309  13.110 -2.2056  0.2376 -0.1048
14407TIP3    H264637   5.225   0.431  13.139  0.6899 -1.5634 -0.6640
14408TIP3   OH264638   3.674   4.100  17.102  0.2438 -0.0186 -0.1571
14408TIP3    H164639   3.658   4.193  17.114 -3.5609 -0.6376  0.8798
14408TIP3    H264640   3.636   4.080  17.016  2.3614 -0.4541 -1.0657
14409TIP3   OH264641   0.283   1.776   3.019 -0.6712 -0.0122  0.3393
14409TIP3    H164642   0.240   1.724   2.950  0.5578  0.4603 -0.8157
14409TIP3    H264643   0.310   1.711   3.084  1.8696 -1.0951 -1.6075
14410TIP3   OH264644   1.100   3.224   6.323  0.3980  0.1863 -0.2851
14410TIP3    H164645   1.116   3.318   6.328 -2.0029  0.6138  3.4517
14410TIP3    H264646   1.015   3.216   6.280  0.1622 -0.1899  0.2439
14411TIP3   OH264647   5.383   2.441  16.399 -0.3232  0.6602  0.5324
14411TIP3    H164648   5.346   2.455  16.312  1.3278  0.5906 -0.2141
14411TIP3    H264649   5.477   2.435  16.385  0.3727  3.8332  2.6908
14412TIP3   OH264650   4.060   0.813  14.096  0.2571 -0.0238  0.0937
14412TIP3    H164651   4.001   0.839  14.026 -0.5413 -0.9841  0.3994
14412TIP3    H264652   4.046   0.719  14.107  0.6780  0.0246  1.2459
14413TIP3   OH264653   0.523   1.974   0.907  0.1168 -0.1558 -0.1017
14413TIP3    H164654   0.549   1.940   0.821  1.3843  0.7662 -0.1198
14413TIP3    H264655   0.606   1.978   0.956 -0.7061 -1.5853  1.5142
14414TIP3   OH264656   5.375   1.332   2.398 -0.0545 -0.0266 -0.1395
14414TIP3    H164657   5.387   1.357   2.306 -0.3022  2.3301  0.3860
14414TIP3    H264658   5.460   1.296   2.424  0.2316 -0.0933 -1.1206
14415TIP3   OH264659   4.238   4.143   5.064  0.6394  0.6688 -0.0434
14415TIP3    H164660   4.168   4.119   5.126  0.3363  0.1099 -0.5834
14415TIP3    H264661   4.193   4.193   4.996  0.6301 -0.2390 -0.7265
14416TIP3   OH264662   5.458   5.115   5.873  0.1211 -0.0596  0.0171
14416TIP3    H164663   5.512   5.065   5.934 -0.5839 -0.3081  0.4446
14416TIP3    H264664   5.383   5.143   5.925 -0.4585 -0.2211 -0.7232
14417TIP3   OH264665   4.845   4.169  13.161 -0.2680  0.1367  0.7173
14417TIP3    H164666   4.772   4.170  13.100 -1.1255 -2.3207  1.5821
14417TIP3    H264667   4.922   4.149  13.108 -0.4086  1.4608 -0.0134
14418TIP3   OH264668   1.904   5.199   4.125 -0.2391  0.0807  0.2028
14418TIP3    H164669   1.957   5.181   4.047  0.9478  2.1473  0.4471
14418TIP3    H264670   1.826   5.144   4.115  0.6777 -0.9756 -1.5669
14419TIP3   OH264671   2.613   5.306  16.876  0.3531  0.5409  0.2272
14419TIP3    H164672   2.557   5.368  16.921  0.1187  1.4536 -1.2681
14419TIP3    H264673   2.697   5.351  16.867  0.6733  0.0180  0.5375
14420TIP3   OH264674   5.079   4.327  11.028 -0.5131 -0.2698 -0.0925
14420TIP3    H164675   5.123   4.246  11.052  0.1092  0.5854  1.8652
14420TIP3    H264676   5.121   4.354  10.946 -1.1908 -2.2077 -1.1394
14421TIP3   OH264677   2.075   1.098   2.418 -0.1781  0.5902  0.0182
14421TIP3    H164678   1.982   1.097   2.395 -0.0858  3.1066 -0.7783
14421TIP3    H264679   2.106   1.182   2.386  2.1278  0.3146  1.3417
14422TIP3   OH264680   5.092   1.852  11.279  0.2147  0.3335  0.7025
14422TIP3    H164681   5.160   1.903  11.235  1.8117 -1.3211  1.1132
14422TIP3    H264682   5.060   1.792  11.212  0.7809 -0.4040  1.0747
14423TIP3   OH264683   3.232   5.135   4.363 -0.3135 -0.0042  0.3541
14423TIP3    H164684   3.147   5.145   4.405  0.2780 -0.1122  1.6205
14423TIP3    H264685   3.234   5.044   4.333 -0.5564 -0.0624  0.5159
14424TIP3   OH264686   3.457   5.244  17.391  0.0673  0.0881  0.2474
14424TIP3    H164687   3.471   5.339  17.381 -0.9714  0.1807 -0.5589
14424TIP3    H264688   3.527   5.204  17.341 -1.5361  0.5090 -2.5444
14425TIP3   OH264689   3.001   2.778  12.516  0.0702 -0.7142 -0.2378
14425TIP3    H164690   2.931   2.755  12.578 -0.1213 -0.1403 -0.2387
14425TIP3    H264691   3.073   2.718  12.538  0.4841  0.3093  1.3939
14426TIP3   OH264692   4.361   5.118  13.824  0.2595 -0.0696 -0.0237
14426TIP3    H164693   4.277   5.132  13.781 -0.3150 -0.6618  0.8697
14426TIP3    H264694   4.388   5.030  13.797  1.0705  0.4763 -1.0617
14427TIP3   OH264695   1.019   6.323  13.564 -0.4011  0.1639 -0.0339
14427TIP3    H164696   1.083   6.339  13.634 -0.1309 -1.5139  0.1247
14427TIP3    H264697   0.975   6.408  13.553  2.3217  1.6138 -0.6589
14428TIP3   OH264698   4.156   4.497   4.406 -0.3558 -0.0178  0.0557
14428TIP3    H164699   4.147   4.495   4.502 -0.5824 -0.2738  0.0298
14428TIP3    H264700   4.192   4.584   4.388 -2.2265  0.8512  0.2269
14429TIP3   OH264701   3.978   6.691   5.142 -0.1688 -0.7563  0.2371
14429TIP3    H164702   4.033   6.767   5.123  1.3287 -1.7673  0.3497
14429TIP3    H264703   3.994   6.672   5.234 -1.5693 -0.4177  0.5661
14430TIP3   OH264704   0.365   3.412  11.502 -0.3002 -0.1221  0.1685
14430TIP3    H164705   0.359   3.427  11.407 -0.5465  0.6582  0.2932
14430TIP3    H264706   0.277   3.430  11.534  0.1978  1.4040  0.7636
14431TIP3   OH264707   2.224   0.599   0.647  0.7464 -0.2853 -0.0894
14431TIP3    H164708   2.252   0.510   0.668  1.2748 -0.2495 -0.6305
14431TIP3    H264709   2.130   0.600   0.666  1.1158 -0.3351  1.9957
14432TIP3   OH264710   2.005   3.031  16.328 -0.2639  0.1226 -0.1643
14432TIP3    H164711   2.009   2.941  16.295 -1.7204 -0.1919  0.4434
14432TIP3    H264712   2.029   3.085  16.252  1.8454 -0.7958 -0.2070
14433TIP3   OH264713   6.583   4.221  11.866 -0.5231 -0.3945 -0.5211
14433TIP3    H164714   6.522   4.148  11.875  0.3259 -1.0036  0.5601
14433TIP3    H264715   6.638   4.197  11.791 -3.6388  1.7390 -3.8044
14434TIP3   OH264716   3.049   4.258  13.298 -0.1811  0.4634  0.1612
14434TIP3    H164717   3.126   4.262  13.241 -0.3973  0.4199 -0.1364
14434TIP3    H264718   3.050   4.341  13.346 -0.1641  0.6280 -0.1232
14435TIP3   OH264719   4.781   1.847  13.029  0.0996  0.6107  0.1602
14435TIP3    H164720   4.831   1.843  12.947  0.8367  1.0982  0.5752
14435TIP3    H264721   4.797   1.763  13.071  0.9127  0.9196  0.4807
14436TIP3   OH264722   0.982   5.704  15.227 -0.1101  0.2170 -0.3616
14436TIP3    H164723   0.992   5.725  15.320 -1.2064  0.9416 -0.3814
14436TIP3    H264724   0.903   5.650  15.224  0.7727 -1.1060 -0.7213
14437TIP3   OH264725   4.187   2.209  12.442 -0.1868  0.4103  0.4762
14437TIP3    H164726   4.231   2.124  12.451 -1.9351 -0.5714  0.2667
14437TIP3    H264727   4.122   2.195  12.373 -0.4655  1.9572  0.3879
14438TIP3   OH264728   0.863   4.015  15.958  0.1672 -0.3223 -0.8016
14438TIP3    H164729   0.958   4.001  15.953  0.3350  0.7714 -0.8747
14438TIP3    H264730   0.826   3.926  15.964  1.3054 -0.7238  1.1241
14439TIP3   OH264731   1.227   4.417   3.157 -0.0663 -0.8322  0.2483
14439TIP3    H164732   1.322   4.420   3.149  0.4940 -4.0852  3.4302
14439TIP3    H264733   1.205   4.497   3.205  1.0614 -0.2958 -0.0803
14440TIP3   OH264734   1.946   5.106  16.055  0.1292 -0.4876 -0.3657
14440TIP3    H164735   1.859   5.080  16.022 -0.6989  0.1560  1.2249
14440TIP3    H264736   1.928   5.177  16.116  1.7694 -0.5513  0.2188
14441TIP3   OH264737   4.924   6.270   1.954 -0.5250  0.2662  0.2894
14441TIP3    H164738   4.909   6.364   1.957 -0.5114  0.3227 -0.8957
14441TIP3    H264739   4.842   6.234   1.920  0.6515  0.2422 -2.8547
14442TIP3   OH264740   3.784   6.024  15.907 -0.5313 -0.0771  0.5775
14442TIP3    H164741   3.692   6.003  15.922 -0.3192 -0.4148  1.4596
14442TIP3    H264742   3.794   6.114  15.938 -0.4057 -0.2925  1.1723
14443TIP3   OH264743   0.868   1.057  15.001 -0.7842 -0.1864 -0.0636
14443TIP3    H164744   0.933   0.987  15.008 -0.1213  0.2320 -1.5339
14443TIP3    H264745   0.889   1.117  15.073  1.1278  0.4376 -1.0754
14444TIP3   OH264746   6.309   4.831  11.653  0.6088  0.0273  0.1822
14444TIP3    H164747   6.274   4.896  11.714  0.5617 -0.0055  0.1900
14444TIP3    H264748   6.404   4.840  11.660  0.6084 -0.2636  0.5624
14445TIP3   OH264749   5.957   3.936  14.012 -0.4916 -0.1282  0.3646
14445TIP3    H164750   6.001   3.852  13.994  0.6971  0.7274 -0.9035
14445TIP3    H264751   5.912   3.957  13.930  0.9848  1.4856 -0.0877
14446TIP3   OH264752   6.516   3.047  11.743  0.1912  0.0560  0.4346
14446TIP3    H164753   6.601   3.019  11.709 -1.0140 -1.1811 -1.8212
14446TIP3    H264754   6.521   3.032  11.837  2.8864  1.2831  0.5691
14447TIP3   OH264755   1.501   1.435  15.486  0.5721 -0.9805 -0.3504
14447TIP3    H164756   1.428   1.378  15.506 -0.9988  0.9554 -0.2376
14447TIP3    H264757   1.572   1.376  15.461 -0.2941 -3.0356  1.6860
14448TIP3   OH264758   4.237   1.204   1.137 -0.1548  0.1897  0.2986
14448TIP3    H164759   4.146   1.175   1.141 -0.2914  0.7145  1.1684
14448TIP3    H264760   4.257   1.207   1.044 -0.7272 -0.8509  0.1257
14449TIP3   OH264761   2.604   5.683  11.189  0.1640 -0.6375  0.2113
14449TIP3    H164762   2.594   5.756  11.128  0.7634  0.1913  1.0820
14449TIP3    H264763   2.614   5.606  11.133 -0.3003 -0.0333 -0.7209
14450TIP3   OH264764   4.203   3.317  13.824  0.1982 -0.1515 -0.1511
14450TIP3    H164765   4.277   3.375  13.841 -1.9633  3.1137 -1.1072
14450TIP3    H264766   4.213   3.292  13.732  0.0239  0.4283 -0.3293
14451TIP3   OH264767   4.209   4.693   5.309  0.7175 -0.4298 -0.2368
14451TIP3    H164768   4.258   4.612   5.322  1.8012  0.2109 -0.2353
14451TIP3    H264769   4.273   4.762   5.325  0.0625  0.4199 -1.2227
14452TIP3   OH264770   4.745   3.292   4.518  0.2204 -0.6866  0.6148
14452TIP3    H164771   4.772   3.258   4.433 -0.2029  2.6678 -1.0100
14452TIP3    H264772   4.819   3.345   4.548 -0.2206 -0.6089  1.6223
14453TIP3   OH264773   5.472   3.387   0.216 -0.0829 -0.7169  0.0680
14453TIP3    H164774   5.440   3.407   0.304 -0.1928  0.0986 -0.1484
14453TIP3    H264775   5.403   3.332   0.177 -0.5081 -0.2302  0.1336
14454TIP3   OH264776   1.483   4.664  13.396 -0.1811 -0.0600 -0.6505
14454TIP3    H164777   1.573   4.688  13.370 -0.5656 -0.8599 -2.9371
14454TIP3    H264778   1.492   4.634  13.487  2.0646 -1.0598 -1.1214
14455TIP3   OH264779   2.438   4.268  15.771 -0.2395  0.3943  0.2457
14455TIP3    H164780   2.379   4.282  15.845 -1.6904 -1.6526 -0.4227
14455TIP3    H264781   2.453   4.173  15.771  1.7407  0.6645 -0.6253
14456TIP3   OH264782   4.577   4.822  14.544 -0.4101  0.2878 -0.0973
14456TIP3    H164783   4.539   4.883  14.607  2.0380 -0.4055  2.2439
14456TIP3    H264784   4.606   4.748  14.597  4.1903  0.7897 -1.4218
14457TIP3   OH264785   4.051   3.828   5.949  0.1267 -0.3196 -0.2612
14457TIP3    H164786   4.047   3.795   6.039  1.0524 -1.5495 -0.6576
14457TIP3    H264787   3.963   3.811   5.914  0.9510 -3.9639 -0.9572
14458TIP3   OH264788   1.195   0.744  11.891 -0.2460  0.1437 -0.0264
14458TIP3    H164789   1.246   0.729  11.971  0.2191  3.1060  0.3718
14458TIP3    H264790   1.106   0.718  11.913  0.1297 -0.2830  1.0306
14459TIP3   OH264791   4.523   3.158   3.417  0.1015  0.0757 -0.2032
14459TIP3    H164792   4.566   3.088   3.368  0.0230  0.3307 -0.6397
14459TIP3    H264793   4.437   3.168   3.375 -0.4384 -0.5081  0.7296
14460TIP3   OH264794   6.386   3.129   2.031 -0.1199 -0.0588  0.0054
14460TIP3    H164795   6.313   3.144   2.090  0.0965  0.3184  0.1828
14460TIP3    H264796   6.351   3.150   1.944 -0.7211 -1.5468 -0.1423
14461TIP3   OH264797   2.968   5.949  16.886  0.7857 -0.5476  0.5096
14461TIP3    H164798   2.916   5.869  16.873  0.8544 -0.6237  0.6944
14461TIP3    H264799   3.017   5.959  16.805  0.2579 -0.3067  0.2144
14462TIP3   OH264800   5.397   5.872   0.588 -0.1019 -0.0435  0.0687
14462TIP3    H164801   5.434   5.902   0.505  0.6408  0.7023  0.6497
14462TIP3    H264802   5.310   5.839   0.566  0.5317 -0.9430 -1.1850
14463TIP3   OH264803   5.514   6.361   6.070  0.3625 -0.2000  0.2371
14463TIP3    H164804   5.562   6.413   6.006  1.2584  0.6555  1.5379
14463TIP3    H264805   5.525   6.409   6.152  0.6476 -2.0887  1.3575
14464TIP3   OH264806   3.678   1.187  11.599 -0.6763  0.2951 -0.2455
14464TIP3    H164807   3.701   1.119  11.662  0.8573  1.3152  0.3429
14464TIP3    H264808   3.750   1.187  11.536 -1.3368  0.4580 -1.0075
14465TIP3   OH264809   3.117   2.131  12.938 -0.0882 -0.8208  0.2094
14465TIP3    H164810   3.179   2.125  12.865 -0.6220  1.2002 -0.4488
14465TIP3    H264811   3.156   2.195  12.998 -0.5941 -1.0228  0.7693
14466TIP3   OH264812   3.265   2.820  13.965 -0.0360 -0.0049  0.7461
14466TIP3    H164813   3.192   2.837  14.024 -0.8906 -1.8295  0.2490
14466TIP3    H264814   3.340   2.862  14.008 -0.5821 -1.4118  3.2294
14467TIP3   OH264815   4.357   0.533  14.070 -0.5645 -1.0644  0.1345
14467TIP3    H164816   4.317   0.516  13.984  1.2015 -0.8401 -0.7810
14467TIP3    H264817   4.393   0.448  14.096  0.0806 -0.8442 -0.0094
14468TIP3   OH264818   0.074   5.152   0.106 -0.0955 -0.3731 -0.6918
14468TIP3    H164819  -0.021   5.158   0.112  0.0972  1.8379  1.2000
14468TIP3    H264820   0.101   5.232   0.061  0.9239 -0.4666 -0.2754
14469TIP3   OH264821   6.560   0.049  17.284 -0.0558 -0.0524  0.1616
14469TIP3    H164822   6.479   0.052  17.334  0.4477 -1.1327  1.0914
14469TIP3    H264823   6.537   0.083  17.198 -0.9218  2.0000  1.1222
14470TIP3   OH264824   1.828   5.013   3.459 -0.1605 -0.2819 -0.8991
14470TIP3    H164825   1.886   5.076   3.501 -1.4958  0.2676  0.2327
14470TIP3    H264826   1.848   4.929   3.501  0.7989 -0.4011 -1.5657
14471TIP3   OH264827   5.498   1.136  15.075  0.5733  0.6079  0.1621
14471TIP3    H164828   5.563   1.068  15.058  1.1850  0.2576  3.1944
14471TIP3    H264829   5.548   1.207  15.115 -0.5234  1.4680  0.0357
14472TIP3   OH264830   0.080   2.590   3.989 -0.7032  0.9510 -0.4419
14472TIP3    H164831   0.075   2.613   3.896  0.6620  0.2301 -0.7328
14472TIP3    H264832   0.037   2.504   3.994 -0.3573  0.7699 -0.5110
14473TIP3   OH264833   5.042   5.816  13.122 -0.2983  0.8546  0.1222
14473TIP3    H164834   5.097   5.738  13.137 -2.4534 -0.9604 -0.8813
14473TIP3    H264835   5.105   5.887  13.110  1.8576 -1.0742 -0.8279
14474TIP3   OH264836   5.524   3.874   5.346  0.2204 -0.0146  0.4248
14474TIP3    H164837   5.601   3.826   5.375  0.5520  0.3462  0.1578
14474TIP3    H264838   5.452   3.838   5.397  0.5338 -0.5002  0.5257
14475TIP3   OH264839   4.392   6.376   5.076 -0.5863  0.2264 -0.2380
14475TIP3    H164840   4.440   6.339   5.002  0.4602 -0.4062  0.7158
14475TIP3    H264841   4.366   6.299   5.127 -0.7448  0.6822  0.3751
14476TIP3   OH264842   0.563   1.829  17.379  0.5920 -0.3209 -0.0802
14476TIP3    H164843   0.484   1.880  17.397  2.0332  1.2420  2.4864
14476TIP3    H264844   0.609   1.879  17.311  0.9584  0.7001  0.8817
14477TIP3   OH264845   3.205   2.108   4.514  0.5276  0.4782  0.2145
14477TIP3    H164846   3.261   2.154   4.577  2.2912 -0.1820 -0.8125
14477TIP3    H264847   3.177   2.028   4.561  2.8075 -0.6141 -0.1764
14478TIP3   OH264848   4.730   3.030  11.826 -0.1898 -0.4993 -0.2270
14478TIP3    H164849   4.667   3.096  11.797 -1.0188 -1.4689 -0.7244
14478TIP3    H264850   4.686   2.988  11.900 -0.2000 -1.2747 -0.6620
14479TIP3   OH264851   4.030   0.914  12.553 -0.1291 -0.5218  0.2073
14479TIP3    H164852   3.956   0.962  12.516 -0.8861 -1.0713  0.9828
14479TIP3    H264853   4.100   0.979  12.558 -0.1367 -0.3173 -1.7326
14480TIP3   OH264854   0.484   5.920   1.663 -0.0303  0.1895 -0.3452
14480TIP3    H164855   0.553   5.976   1.698 -0.6673  1.6545 -1.3199
14480TIP3    H264856   0.404   5.955   1.702 -0.2945 -1.2241  0.4436
14481TIP3   OH264857   5.138   1.224   0.681 -0.2651 -0.4209  0.3067
14481TIP3    H164858   5.173   1.136   0.695  0.0339 -0.0976  1.7273
14481TIP3    H264859   5.083   1.241   0.757 -1.2918  0.1782 -0.5378
14482TIP3   OH264860   3.053   3.567   1.519 -0.0918 -0.3915 -0.4821
14482TIP3    H164861   3.124   3.529   1.571  0.3677  1.2200  0.1435
14482TIP3    H264862   3.020   3.494   1.467  1.7676 -1.2745 -0.5134
14483TIP3   OH264863   5.937   2.218   1.714 -0.3567 -0.6013  1.0563
14483TIP3    H164864   5.946   2.309   1.686 -0.4933 -0.4492  1.5042
14483TIP3    H264865   6.011   2.204   1.774  0.7359 -1.3236 -0.3811
14484TIP3   OH264866   6.723   5.590   0.029 -0.1006 -0.4113  1.1896
14484TIP3    H164867   6.811   5.557   0.012  0.1700  0.7156  0.1973
14484TIP3    H264868   6.665   5.518   0.005  0.4476 -0.1194 -1.2865
14485TIP3   OH264869   2.356   4.540   5.458  0.5532  0.1476  0.4683
14485TIP3    H164870   2.436   4.593   5.459  0.6895  0.0894 -1.6633
14485TIP3    H264871   2.349   4.510   5.367 -1.2608 -0.8463  0.8886
14486TIP3   OH264872   3.162   6.163  11.728  0.1274  0.2726 -0.6769
14486TIP3    H164873   3.121   6.132  11.647 -0.3776  0.1518 -0.3795
14486TIP3    H264874   3.243   6.114  11.734 -1.2395 -1.9904  0.4579
14487TIP3   OH264875   0.540   6.251   4.286  0.3125 -0.6630  0.3306
14487TIP3    H164876   0.604   6.302   4.236 -1.1896 -0.1377 -1.1462
14487TIP3    H264877   0.586   6.171   4.311  1.7323 -0.0051 -0.1249
14488TIP3   OH264878   0.929   1.430   1.468  0.0738 -0.7197  0.3046
14488TIP3    H164879   0.946   1.398   1.557 -0.0288 -1.8920 -0.0800
14488TIP3    H264880   0.932   1.351   1.414 -0.8631 -0.1477 -0.5954
14489TIP3   OH264881   1.074   1.547  11.729  0.4488 -0.0591 -0.0602
14489TIP3    H164882   1.098   1.461  11.694 -1.4981 -0.2231 -1.1507
14489TIP3    H264883   1.011   1.528  11.799  1.5203  0.4368  1.0840
14490TIP3   OH264884   5.245   4.306   1.084 -0.1042  0.6362 -0.1706
14490TIP3    H164885   5.294   4.284   1.163  1.7087  0.8478 -1.1833
14490TIP3    H264886   5.154   4.287   1.106  0.5699 -1.1266  1.3235
14491TIP3   OH264887   4.999   1.594  11.446  0.4436  0.5435 -0.1623
14491TIP3    H164888   4.992   1.636  11.360 -0.1351  0.5205 -0.1366
14491TIP3    H264889   5.043   1.511  11.429 -1.1863 -0.2479 -0.7345
14492TIP3   OH264890   5.864   3.494  14.249 -0.0414  0.2423  0.2607
14492TIP3    H164891   5.851   3.400  14.236 -2.0544  0.5679 -0.4038
14492TIP3    H264892   5.839   3.534  14.166  0.8174  1.3862  0.5203
14493TIP3   OH264893   0.992   3.729   0.221  0.2186  1.2322 -0.2644
14493TIP3    H164894   1.052   3.753   0.291 -0.4635 -0.5235  0.9928
14493TIP3    H264895   0.976   3.636   0.233 -3.5548  1.7722  0.1497
14494TIP3   OH264896   6.377   6.209   5.690  0.0245 -0.1981 -0.2100
14494TIP3    H164897   6.343   6.283   5.640 -0.1684 -0.3855 -0.3620
14494TIP3    H264898   6.472   6.214   5.680  0.0576  0.4076  0.3252
14495TIP3   OH264899   0.570   2.588  16.180  0.9615 -0.1012 -0.4699
14495TIP3    H164900   0.536   2.667  16.138 -1.5808 -1.1226 -0.4914
14495TIP3    H264901   0.605   2.535  16.108  1.0820  0.2414 -0.6665
14496TIP3   OH264902   5.149   5.343   5.742 -0.4617  0.1842  0.1382
14496TIP3    H164903   5.148   5.257   5.700 -0.6969  0.4753 -0.4632
14496TIP3    H264904   5.233   5.347   5.787  0.5558  0.5150 -1.6953
14497TIP3   OH264905   6.628   2.944   0.017  0.4196  0.1050 -0.0971
14497TIP3    H164906   6.613   2.936  -0.077  0.2375 -0.9333  0.0103
14497TIP3    H264907   6.711   2.991   0.025  1.8634 -2.1697 -0.8323
14498TIP3   OH264908   4.739   6.350  17.123  0.2139 -0.0238  0.3981
14498TIP3    H164909   4.785   6.426  17.158  0.5668  0.1627 -0.4567
14498TIP3    H264910   4.675   6.328  17.191 -1.1729  2.1591 -0.1172
14499TIP3   OH264911   2.068   1.635  15.594 -0.1448  0.1192 -0.2273
14499TIP3    H164912   2.067   1.565  15.659 -0.1070 -0.1177 -0.4741
14499TIP3    H264913   2.105   1.710  15.639  0.9043 -0.3497 -0.2711
14500TIP3   OH264914   2.620   2.457   5.825 -0.1197 -0.0965  0.1429
14500TIP3    H164915   2.597   2.522   5.759 -0.2359 -0.8458 -0.5731
14500TIP3    H264916   2.673   2.392   5.778  1.3503  0.2875  1.1994
14501TIP3   OH264917   0.843   1.600  11.031  0.4640  0.6284  0.0772
14501TIP3    H164918   0.906   1.637  10.968 -0.9849  0.5645 -1.4851
14501TIP3    H264919   0.809   1.522  10.986 -1.1317  0.9801  0.6286
14502TIP3   OH264920   3.904   0.372  14.362  0.0070  0.1406  0.0804
14502TIP3    H164921   3.908   0.424  14.282 -0.2767 -0.1221 -0.1077
14502TIP3    H264922   3.880   0.284  14.332  0.5613 -0.1214  0.3834
14503TIP3   OH264923   6.702   4.094   0.062 -0.4031 -0.1550  0.4688
14503TIP3    H164924   6.643   4.020   0.077 -1.8982  1.1064  1.0234
14503TIP3    H264925   6.743   4.109   0.147  0.6223 -0.9082  0.1298
14504TIP3   OH264926   5.591   2.807   4.123 -0.4331 -0.1046  0.6755
14504TIP3    H164927   5.557   2.743   4.060 -1.1981  0.2105  0.7640
14504TIP3    H264928   5.562   2.892   4.090  0.4888  0.2020  0.6191
14505TIP3   OH264929   6.345   0.369  12.915  0.0385 -0.6239  0.4196
14505TIP3    H164930   6.371   0.334  13.001 -1.2271  0.7800  1.4241
14505TIP3    H264931   6.336   0.463  12.929 -0.2858 -0.3725 -1.2457
14506TIP3   OH264932   0.643   1.249  14.760  0.0645  0.1238 -0.2597
14506TIP3    H164933   0.658   1.161  14.725  0.4331 -0.7881  2.0221
14506TIP3    H264934   0.566   1.239  14.816 -0.6566  1.5755 -0.9541
14507TIP3   OH264935   5.901   3.600   6.586  0.4343 -0.8218  0.4281
14507TIP3    H164936   5.898   3.610   6.491  1.2598  1.2750  0.5553
14507TIP3    H264937   5.994   3.588   6.606  0.6079  1.1690  1.0821
14508TIP3   OH264938   1.718   5.832  12.491  0.2908 -0.0303  0.2901
14508TIP3    H164939   1.646   5.769  12.486  0.9736 -0.7796 -0.4038
14508TIP3    H264940   1.676   5.914  12.517 -0.6697 -0.6772  0.8821
14509TIP3   OH264941   0.921   1.622   4.087 -0.1899 -0.0435  0.1608
14509TIP3    H164942   0.938   1.529   4.072  1.3960  0.2111  0.2770
14509TIP3    H264943   0.881   1.625   4.175 -0.9658 -0.6630 -0.1543
14510TIP3   OH264944   6.140   6.717  15.622  0.6476  0.6505  0.3282
14510TIP3    H164945   6.191   6.758  15.692  0.6335  2.4159 -0.6395
14510TIP3    H264946   6.073   6.666  15.668  1.2772  0.9166  1.5921
14511TIP3   OH264947   5.937   0.170  14.384  0.0617  0.1684  0.0672
14511TIP3    H164948   5.931   0.103  14.452 -1.3215  0.6371  0.4342
14511TIP3    H264949   5.895   0.130  14.308 -1.5801  0.9109  0.5501
14512TIP3   OH264950   0.265   6.626   4.225  0.0017  0.4259 -0.6250
14512TIP3    H164951   0.255   6.682   4.302  1.0393  1.1125 -0.9725
14512TIP3    H264952   0.267   6.537   4.260  1.5211  0.7797  0.2621
14513TIP3   OH264953   5.211   5.334  14.774  0.2958  0.6775  0.0407
14513TIP3    H164954   5.171   5.304  14.693  0.9529  0.3225 -0.1622
14513TIP3    H264955   5.305   5.323  14.760  0.3577 -0.9854  1.4529
14514TIP3   OH264956   3.537   2.806  14.580 -0.0192 -0.8548 -0.0496
14514TIP3    H164957   3.582   2.724  14.560 -0.2633 -1.0570  0.2230
14514TIP3    H264958   3.454   2.779  14.618 -0.1922 -0.4795 -0.1564
14515TIP3   OH264959   4.218   0.591   4.798  0.4243 -0.5752 -0.7421
14515TIP3    H164960   4.267   0.535   4.859 -0.1067 -1.0421 -0.7356
14515TIP3    H264961   4.141   0.539   4.776 -0.7459  0.6957  0.2711
14516TIP3   OH264962   3.328   4.030   2.298 -0.2627  0.2796  0.3764
14516TIP3    H164963   3.423   4.022   2.310 -0.2813 -1.0171 -0.1847
14516TIP3    H264964   3.291   3.974   2.366 -0.5213 -1.5072 -1.1515
14517TIP3   OH264965   3.159   4.922   1.096  0.2550  0.2876 -0.4662
14517TIP3    H164966   3.100   4.849   1.113  0.7493  0.1146  0.6023
14517TIP3    H264967   3.182   4.913   1.004  0.1163 -0.7616 -0.4118
14518TIP3   OH264968   4.964   5.060   0.604 -0.2622 -0.1279  0.0557
14518TIP3    H164969   4.920   5.010   0.671  0.6190 -0.9228  0.0652
14518TIP3    H264970   5.024   5.118   0.652  0.8850 -1.1948 -0.0325
14519TIP3   OH264971   5.547   6.486  12.269  0.4640  0.1531 -0.1985
14519TIP3    H164972   5.474   6.509  12.211  0.7586 -0.0442 -0.6489
14519TIP3    H264973   5.531   6.538  12.348  0.0227  0.3742 -0.4253
14520TIP3   OH264974   4.726   6.732  14.001 -0.0830 -0.1469 -0.0947
14520TIP3    H164975   4.760   6.697  14.084  1.5203 -0.8280 -1.0098
14520TIP3    H264976   4.759   6.822  13.998  0.3555 -0.3116 -0.2621
14521TIP3   OH264977   5.789   5.011   2.699  0.4876  0.0471  0.0219
14521TIP3    H164978   5.835   4.953   2.761  5.0512 -1.2348 -3.9568
14521TIP3    H264979   5.734   4.952   2.648  0.5325  0.2291 -0.2354
14522TIP3   OH264980   2.956   0.632   4.428  0.5377  0.3405  0.0608
14522TIP3    H164981   2.954   0.682   4.510  0.7105 -0.3393  0.4880
14522TIP3    H264982   3.023   0.566   4.443 -2.6804 -2.9806  1.2709
14523TIP3   OH264983   5.464   6.091   1.554 -0.6199  0.1695  0.1141
14523TIP3    H164984   5.468   6.082   1.649 -2.8089  2.0490  0.4691
14523TIP3    H264985   5.371   6.101   1.535 -0.0876  1.7119 -2.0108
14524TIP3   OH264986   1.613   3.008   6.049 -0.5831 -0.1909 -0.0929
14524TIP3    H164987   1.615   2.988   6.143 -0.4632  1.4454  0.2748
14524TIP3    H264988   1.649   2.929   6.008  0.6334 -0.4401  1.3288
14525TIP3   OH264989   1.465   6.567  17.220 -0.4095 -0.1298  0.4142
14525TIP3    H164990   1.427   6.648  17.187  0.0299 -0.2379 -0.3779
14525TIP3    H264991   1.542   6.552  17.165 -2.1629 -2.7088 -1.6047
14526TIP3   OH264992   0.595   4.012   1.726  0.0427 -0.7765  0.5779
14526TIP3    H164993   0.625   3.935   1.677  1.4392  1.1530 -1.8385
14526TIP3    H264994   0.509   4.032   1.689  0.1347 -0.5831  0.4680
14527TIP3   OH264995   4.633   1.390   0.200 -0.0147  0.0706  0.3976
14527TIP3    H164996   4.616   1.296   0.204 -0.1491  0.0872  0.1909
14527TIP3    H264997   4.568   1.424   0.139  1.6128 -0.0717 -1.5099
14528TIP3   OH264998   3.964   5.034   5.865  0.4277 -0.8258  0.1004
14528TIP3    H164999   4.042   5.054   5.813 -0.9615  0.3527 -1.6497
14528TIP3    H265000   3.912   4.976   5.808  0.7429 -3.0577  1.9281
14529TIP3   OH265001   6.132   0.019   3.328  0.2203 -1.0367 -0.0446
14529TIP3    H165002   6.134   0.060   3.415  1.5602 -0.3457 -0.3645
14529TIP3    H265003   6.225   0.011   3.304 -0.1050 -2.0826 -1.0193
14530TIP3   OH265004   4.834   2.321  14.611 -0.2620 -0.1575  0.4460
14530TIP3    H165005   4.747   2.335  14.648  0.0127 -1.9139  1.9327
14530TIP3    H265006   4.895   2.356  14.676  0.1718 -1.0811  0.5649
14531TIP3   OH265007   0.013   1.922  11.997  0.1565 -0.2221 -0.3647
14531TIP3    H165008  -0.022   1.999  12.043 -0.4849  1.9170 -4.0347
14531TIP3    H265009   0.098   1.907  12.037  0.1730  2.2061  0.7014
14532TIP3   OH265010   6.350   0.369   2.588 -0.3184  0.0127 -0.0469
14532TIP3    H165011   6.350   0.369   2.492 -1.6111 -1.5900 -0.0989
14532TIP3    H265012   6.439   0.394   2.612 -0.1766  1.1980 -1.6417
14533TIP3   OH265013   0.777   2.839  11.532 -0.2092 -0.6187 -0.5098
14533TIP3    H165014   0.797   2.905  11.599 -1.5790 -0.0163 -0.6430
14533TIP3    H265015   0.855   2.836  11.477  0.1450  0.3977 -0.0905
14534TIP3   OH265016   5.538   0.150   4.701  0.5029 -0.2707  0.2863
14534TIP3    H165017   5.591   0.117   4.629 -0.4473  0.4641 -0.7789
14534TIP3    H265018   5.557   0.243   4.704 -0.5390 -0.0485  0.0558
14535TIP3   OH265019   2.759   1.122  13.314  0.7329 -0.2007 -0.1113
14535TIP3    H165020   2.800   1.137  13.399 -1.7833 -1.6871  1.4995
14535TIP3    H265021   2.717   1.205  13.292 -0.2810 -0.3448  1.1479
14536TIP3   OH265022   6.691   5.798  11.631  0.1354 -0.1292  0.4440
14536TIP3    H165023   6.732   5.762  11.553 -1.0178 -1.8904  0.5909
14536TIP3    H265024   6.733   5.751  11.703 -0.6383 -0.4117  0.7148
14537TIP3   OH265025   6.732   0.076   6.280  0.4347 -0.0544  0.2498
14537TIP3    H165026   6.690   0.155   6.245  1.5048  1.4919  2.2078
14537TIP3    H265027   6.698   0.069   6.369 -0.7734 -2.7444 -0.3357
14538TIP3   OH265028   1.816   1.740   3.389 -0.1577 -0.0159 -0.1055
14538TIP3    H165029   1.822   1.683   3.313 -1.2879 -1.4337  0.8173
14538TIP3    H265030   1.903   1.737   3.429 -0.2908 -1.3761  0.1094
14539TIP3   OH265031   3.384   3.845  16.242  0.6716  0.0878 -0.3965
14539TIP3    H165032   3.381   3.760  16.286  0.2547  0.9295  1.2600
14539TIP3    H265033   3.335   3.904  16.299  2.8772  1.9893 -0.3327
14540TIP3   OH265034   2.802   4.740   3.767  0.4543  0.4324 -0.2715
14540TIP3    H165035   2.879   4.685   3.782 -0.1399 -0.0837  1.0842
14540TIP3    H265036   2.789   4.739   3.672  1.1187 -0.8685 -0.3679
14541TIP3   OH265037   4.153   1.938  17.387 -0.1384 -1.3990  0.5424
14541TIP3    H165038   4.127   1.889  17.310  0.5020 -0.1526 -0.5213
14541TIP3    H265039   4.092   1.912  17.455 -1.0793 -2.1083 -0.5486
14542TIP3   OH265040   6.118   4.963  11.255  0.5052 -0.1946 -0.2005
14542TIP3    H165041   6.143   5.041  11.205  1.8840  0.5529  1.5677
14542TIP3    H265042   6.183   4.956  11.324  0.9780 -3.4657 -0.7848
14543TIP3   OH265043   0.197   1.764  12.628  0.2078 -0.4595 -0.6347
14543TIP3    H165044   0.110   1.751  12.665  0.0521 -0.7759 -1.1140
14543TIP3    H265045   0.222   1.679  12.593  1.6007 -0.9598  1.3762
14544TIP3   OH265046   3.119   4.375  16.685 -0.2747  0.0388  0.4443
14544TIP3    H165047   3.095   4.399  16.775 -0.1984  2.0538 -0.0485
14544TIP3    H265048   3.063   4.299  16.666 -1.7367  0.7934  1.5129
14545TIP3   OH265049   4.663   4.002  16.956  0.1775 -0.3251 -0.2491
14545TIP3    H165050   4.608   4.079  16.939 -0.6726 -0.3132  2.1550
14545TIP3    H265051   4.750   4.028  16.925 -0.4990  0.8489 -1.2761
14546TIP3   OH265052   2.547   2.959   3.361  0.5133  0.5303 -0.9824
14546TIP3    H165053   2.519   3.050   3.368  1.5370  0.7798  0.4412
14546TIP3    H265054   2.610   2.948   3.433  0.5542 -1.2446 -1.2419
14547TIP3   OH265055   5.416   2.401  14.208  0.2421 -0.3530  0.0741
14547TIP3    H165056   5.459   2.317  14.196 -2.3540 -1.7934  0.2760
14547TIP3    H265057   5.394   2.430  14.120  2.6607  1.0839 -0.1628
14548TIP3   OH265058   6.077   2.801   5.819 -0.0361 -0.0100 -0.1279
14548TIP3    H165059   6.094   2.892   5.842 -2.0927  0.4689 -0.2894
14548TIP3    H265060   6.156   2.773   5.772  0.2146  2.0300 -1.0238
14549TIP3   OH265061   0.052   2.308  11.206  0.2104  0.6206  0.8472
14549TIP3    H165062   0.129   2.349  11.167  1.3464 -1.4174  0.7718
14549TIP3    H265063   0.028   2.238  11.145 -0.6412  0.1460  1.6917
14550TIP3   OH265064   4.628   1.216   0.737  0.2884 -0.4790 -0.5073
14550TIP3    H165065   4.690   1.289   0.739  0.3341 -0.4187  3.4996
14550TIP3    H265066   4.562   1.239   0.802 -1.8969 -2.2990 -1.9305
14551TIP3   OH265067   2.745   0.465   0.480 -0.1259 -0.0612 -0.1846
14551TIP3    H165068   2.680   0.505   0.423 -0.3759 -1.0422 -0.6020
14551TIP3    H265069   2.709   0.473   0.568 -0.9285 -0.8141 -0.4380
14552TIP3   OH265070   1.321   3.419   4.956  0.4031  0.1741  0.5372
14552TIP3    H165071   1.325   3.509   4.987  0.6701  0.6643 -0.8849
14552TIP3    H265072   1.400   3.407   4.904  1.3008 -1.4721  2.1771
14553TIP3   OH265073   2.368   4.288   3.416 -0.4661  0.0539  0.0232
14553TIP3    H165074   2.424   4.240   3.356 -1.0646  0.2360 -0.7073
14553TIP3    H265075   2.279   4.265   3.389 -0.7699 -0.8675  1.6680
14554TIP3   OH265076   2.484   4.444  13.348 -0.1762  0.4528 -0.4980
14554TIP3    H165077   2.481   4.353  13.379 -0.0783  0.7328  0.3744
14554TIP3    H265078   2.546   4.443  13.275  1.2331  0.1226  0.6441
14555TIP3   OH265079   6.044   1.134  13.931  0.3065 -0.1439 -0.4149
14555TIP3    H165080   6.027   1.045  13.900 -2.0960  0.9213 -2.6114
14555TIP3    H265081   6.136   1.135  13.955  1.4416 -2.2480 -4.0097
14556TIP3   OH265082   0.367   3.357  15.792  0.0306 -0.0435  0.2954
14556TIP3    H165083   0.387   3.412  15.867 -0.3907  0.1951  0.2373
14556TIP3    H265084   0.281   3.320  15.812 -0.9655  1.4881 -0.8925
14557TIP3   OH265085   5.455   0.312  11.612  0.4348  0.1341  0.9603
14557TIP3    H165086   5.468   0.269  11.527 -0.7753  0.0721  0.7844
14557TIP3    H265087   5.489   0.249  11.676 -0.2903 -0.6325  0.6269
14558TIP3   OH265088   3.853   6.017  13.220  0.2571 -0.8571 -0.2693
14558TIP3    H165089   3.864   5.942  13.162  2.4665 -1.2259  0.5223
14558TIP3    H265090   3.941   6.034  13.253 -0.9659 -1.3577  3.7761
14559TIP3   OH265091   0.805   5.938   4.660  0.5290 -0.3854 -0.0093
14559TIP3    H165092   0.807   6.033   4.669  2.3248 -0.5684  2.4115
14559TIP3    H265093   0.737   5.921   4.595  1.4370  2.6278 -1.9390
14560TIP3   OH265094   4.942   3.315   3.615 -0.5035  0.2669  0.0632
14560TIP3    H165095   5.024   3.270   3.636 -1.0188 -0.0669  1.4414
14560TIP3    H265096   4.957   3.352   3.528  0.0456 -2.3102 -1.0117
14561TIP3   OH265097   3.889   2.295  15.194 -0.0687 -0.1000  0.4173
14561TIP3    H165098   3.969   2.347  15.181  0.2411 -0.4328  0.9535
14561TIP3    H265099   3.842   2.341  15.263 -0.4855  0.2552 -0.0962
14562TIP3   OH265100   4.107   1.307  15.775 -0.1713  0.5135 -0.0425
14562TIP3    H165101   4.063   1.229  15.741 -2.2115  0.7022  1.8552
14562TIP3    H265102   4.070   1.379  15.724  0.1479  0.4072 -0.4208
14563TIP3   OH265103   3.078   0.534   5.124 -0.0795  0.4404  0.2508
14563TIP3    H165104   2.986   0.510   5.124  0.1745 -0.6168  1.3563
14563TIP3    H265105   3.111   0.501   5.207  1.0785  1.6640  0.3050
14564TIP3   OH265106   5.727   0.778   1.270  0.0713 -0.0803  0.4600
14564TIP3    H165107   5.678   0.855   1.300 -2.1794 -0.4413 -1.8414
14564TIP3    H265108   5.665   0.705   1.280  0.1258 -0.6187 -2.2844
14565TIP3   OH265109   6.428   4.977   0.426 -0.0788 -0.2737  0.3263
14565TIP3    H165110   6.511   4.977   0.473  0.0487  1.1197  0.1385
14565TIP3    H265111   6.448   4.942   0.340  0.5529  1.0478 -0.0825
14566TIP3   OH265112   2.866   4.849  13.904  0.1633 -0.0971 -0.1860
14566TIP3    H165113   2.800   4.803  13.852 -1.0260 -0.0911  1.2397
14566TIP3    H265114   2.943   4.853  13.847 -1.2450  0.4837 -2.1828
14567TIP3   OH265115   4.380   3.115   0.007 -0.1000 -0.3354 -0.5650
14567TIP3    H165116   4.333   3.191  -0.029  0.6270 -0.3152 -1.5278
14567TIP3    H265117   4.439   3.089  -0.064  0.4012 -1.1583  0.1477
14568TIP3   OH265118   0.200   3.296   4.017 -0.6576 -0.4613  0.1241
14568TIP3    H165119   0.242   3.375   3.983 -0.4228 -0.8633 -0.5236
14568TIP3    H265120   0.270   3.249   4.063 -0.6757 -0.5515  0.0588
14569TIP3   OH265121   3.818   0.787  16.611  0.5358 -0.3849  0.1544
14569TIP3    H165122   3.872   0.864  16.594  0.5274 -0.7262 -1.6158
14569TIP3    H265123   3.731   0.822  16.630  0.7913  0.0704  0.5140
14570TIP3   OH265124   2.367   3.141  16.300  0.3616  0.0349  0.0170
14570TIP3    H165125   2.366   3.054  16.261  1.9241  0.2927 -0.6754
14570TIP3    H265126   2.319   3.196  16.237 -0.1777 -0.2140  0.2056
14571TIP3   OH265127   1.576   2.117   6.060 -0.3009 -0.4077  0.1451
14571TIP3    H165128   1.571   2.178   6.134  0.3337 -0.8934  0.6033
14571TIP3    H265129   1.653   2.063   6.078  0.0543 -0.3259 -1.0438
14572TIP3   OH265130   6.407   3.050   0.166  0.5104  0.1933  0.1931
14572TIP3    H165131   6.364   3.092   0.092  2.0244 -1.7409 -1.9703
14572TIP3    H265132   6.497   3.034   0.136  0.8184 -1.9022  1.9172
14573TIP3   OH265133   6.113   2.012   5.960  0.3673  0.1722 -0.0409
14573TIP3    H165134   6.205   2.031   5.942  0.8689 -1.9955 -0.0139
14573TIP3    H265135   6.108   2.010   6.056  0.6830 -1.2997 -0.0382
14574TIP3   OH265136   2.889   6.547  15.346  0.1449  0.3717 -0.6422
14574TIP3    H165137   2.932   6.579  15.268  0.6851  0.2067 -0.4174
14574TIP3    H265138   2.900   6.452  15.342  2.0076  0.4782  0.6621
14575TIP3   OH265139   3.963   5.532  12.521  0.4374  0.0164 -0.2134
14575TIP3    H165140   3.912   5.463  12.478  0.5396  0.1768 -0.5930
14575TIP3    H265141   4.009   5.576  12.449  0.9752 -0.0181  0.1097
14576TIP3   OH265142   0.401   1.071  10.713 -0.2128 -0.4593  0.4744
14576TIP3    H165143   0.377   0.998  10.770  0.2830 -1.5197 -0.6174
14576TIP3    H265144   0.320   1.096  10.669  0.1156 -2.4922 -1.4808
14577TIP3   OH265145   4.335   6.415   5.535  0.0221  0.1972  0.5865
14577TIP3    H165146   4.383   6.494   5.511 -1.3856  0.7086 -0.6779
14577TIP3    H265147   4.312   6.373   5.452  0.4661 -1.4025  1.2209
14578TIP3   OH265148   4.553   6.145   4.589 -0.5423  0.1923  0.2324
14578TIP3    H165149   4.472   6.128   4.541 -0.7424 -0.4780  0.7789
14578TIP3    H265150   4.622   6.104   4.536 -0.9901 -2.2813  1.4044
14579TIP3   OH265151   2.171   0.583  15.929  0.2193 -0.6335 -0.2842
14579TIP3    H165152   2.121   0.630  15.862  1.8903  1.1368 -0.3755
14579TIP3    H265153   2.242   0.541  15.880  0.2611 -1.0666  0.1386
14580TIP3   OH265154   3.713   1.732  12.612 -0.4098 -0.2804 -0.3700
14580TIP3    H165155   3.738   1.643  12.634  0.5368 -0.0385 -0.3948
14580TIP3    H265156   3.730   1.782  12.693  0.6346  0.1512 -0.8335
14581TIP3   OH265157   3.642   0.889   0.208 -0.0792 -1.1574 -0.5518
14581TIP3    H165158   3.700   0.871   0.283 -0.8432 -0.5307  0.2001
14581TIP3    H265159   3.558   0.851   0.233 -0.4122 -0.7097 -0.9810
14582TIP3   OH265160   4.805   6.168   2.970 -0.3258 -0.1058 -0.5235
14582TIP3    H165161   4.798   6.077   2.941  1.6734 -0.2448 -0.7334
14582TIP3    H265162   4.717   6.191   3.000 -1.3139 -1.5129 -2.1489
14583TIP3   OH265163   6.268   2.539  11.982 -0.1615 -0.7073 -0.4404
14583TIP3    H165164   6.180   2.550  11.944 -0.2927 -1.9080 -0.5168
14583TIP3    H265165   6.326   2.584  11.921 -0.7952  0.7372 -0.0055
14584TIP3   OH265166   0.556   5.577   5.206 -0.8973 -0.5148 -0.2777
14584TIP3    H165167   0.607   5.513   5.256  1.3033  1.4544  0.1582
14584TIP3    H265168   0.603   5.585   5.123 -2.1061 -0.6263 -1.0011
14585TIP3   OH265169   0.214   0.375  13.555 -0.4333 -0.0792 -0.1697
14585TIP3    H165170   0.296   0.327  13.548 -0.4866 -0.1946 -0.0200
14585TIP3    H265171   0.148   0.307  13.572 -0.8025 -0.1772 -1.8101
14586TIP3   OH265172   0.301   3.308   5.072 -0.4788  0.4307 -0.7228
14586TIP3    H165173   0.315   3.284   4.980  0.6200 -0.7354 -0.2741
14586TIP3    H265174   0.290   3.224   5.117 -3.6141  1.0468 -0.1364
14587TIP3   OH265175   5.355   4.894   0.902 -0.2726 -0.2274 -0.0021
14587TIP3    H165176   5.274   4.940   0.926  0.0493  0.4900 -0.2792
14587TIP3    H265177   5.325   4.810   0.868 -0.8310 -0.5455  1.1980
14588TIP3   OH265178   6.159   1.349   4.708 -0.2062 -0.3106 -0.4877
14588TIP3    H165179   6.140   1.268   4.660 -1.6573 -0.8740  0.9546
14588TIP3    H265180   6.241   1.331   4.754  0.1085 -0.5104 -1.1195
14589TIP3   OH265181   2.397   0.238   4.341 -0.3358  0.4185 -0.4635
14589TIP3    H165182   2.419   0.313   4.397  1.4398  0.1250 -0.7326
14589TIP3    H265183   2.355   0.176   4.400  0.6373  0.5119  0.3503
14590TIP3   OH265184   1.634   5.760   1.785  0.0444 -0.1044  0.1712
14590TIP3    H165185   1.666   5.821   1.719 -0.3372  1.7304  1.5975
14590TIP3    H265186   1.693   5.771   1.859  0.8056 -2.5358  0.0284
14591TIP3   OH265187   2.358   5.445  12.908  0.2041 -0.1268 -0.3791
14591TIP3    H165188   2.264   5.433  12.919  0.0224  0.6735 -0.9688
14591TIP3    H265189   2.379   5.521  12.963  0.2889  0.4067 -1.1351
14592TIP3   OH265190   4.832   1.241   2.277  0.0313 -0.0006  0.0823
14592TIP3    H165191   4.764   1.179   2.305  1.9433 -2.0976  0.3556
14592TIP3    H265192   4.827   1.312   2.341 -0.9140 -0.8518  0.9965
14593TIP3   OH265193   3.975   0.773   0.593 -0.2969 -0.1591  0.2871
14593TIP3    H165194   3.966   0.683   0.624 -2.3149 -0.7077 -1.6468
14593TIP3    H265195   4.020   0.765   0.509 -1.0117  0.5770 -0.1760
14594TIP3   OH265196   0.402   3.303   0.563  0.7707 -0.1952 -0.0426
14594TIP3    H165197   0.446   3.223   0.593 -1.2826 -1.1917  0.4311
14594TIP3    H265198   0.361   3.278   0.480  0.8541  0.6441 -0.3435
14595TIP3   OH265199   2.289   2.823  15.125  0.0330  0.5166  0.5436
14595TIP3    H165200   2.372   2.782  15.148  1.1375  0.6775 -2.7098
14595TIP3    H265201   2.230   2.749  15.106 -0.1063  0.4184  1.3336
14596TIP3   OH265202   0.851   1.283  12.958  0.0567 -0.1162  0.1449
14596TIP3    H165203   0.865   1.300  13.051 -0.8768  0.1897  0.2397
14596TIP3    H265204   0.934   1.304  12.917 -0.1599  1.8583  0.6368
14597TIP3   OH265205   5.738   2.786   1.894 -0.3282 -0.3197 -0.7411
14597TIP3    H165206   5.804   2.718   1.903  2.1897  1.8679 -1.5517
14597TIP3    H265207   5.732   2.825   1.981  0.0918  0.0331 -0.8691
14598TIP3   OH265208   1.043   5.966   4.827 -0.2450  0.3768 -0.4216
14598TIP3    H165209   0.975   5.959   4.759 -0.4132  0.6846 -0.2859
14598TIP3    H265210   1.118   5.921   4.789 -0.5190  0.0477 -0.5817
14599TIP3   OH265211   1.236   6.198  13.427  0.2165 -0.1288  0.1035
14599TIP3    H165212   1.164   6.252  13.460  0.7918  0.1052  1.0119
14599TIP3    H265213   1.218   6.111  13.463 -0.7293 -0.5987 -1.3866
14600TIP3   OH265214   6.550   6.009  13.283  0.1135 -0.3752  0.0640
14600TIP3    H165215   6.513   5.951  13.217  0.9839  1.1810 -1.9086
14600TIP3    H265216   6.605   5.952  13.337  0.8417 -1.4666 -1.7154
14601TIP3   OH265217   5.701   4.840   0.039 -0.1704 -0.4790  0.2542
14601TIP3    H165218   5.660   4.924   0.020 -0.8813 -0.8493  0.1027
14601TIP3    H265219   5.773   4.833  -0.023  1.1313  0.8674  1.5079
14602TIP3   OH265220   3.696   6.533  15.709  0.1228  0.1072 -0.6839
14602TIP3    H165221   3.707   6.476  15.784 -0.7872 -1.1996 -1.4929
14602TIP3    H265222   3.609   6.571  15.721  0.6217  1.1476 -0.2805
14603TIP3   OH265223   6.009   3.072   2.693 -0.2549  0.0625 -0.1845
14603TIP3    H165224   6.068   3.046   2.623  0.7674  0.8580  0.3645
14603TIP3    H265225   5.981   3.161   2.671 -1.0775 -0.2241 -0.3262
14604TIP3   OH265226   5.288   6.026  12.476  0.0774  0.4080 -0.2356
14604TIP3    H165227   5.217   6.002  12.416 -0.5125  0.7442  0.3099
14604TIP3    H265228   5.305   6.118  12.456  2.5275 -0.4010 -2.5200
14605TIP3   OH265229   1.650   3.245  11.092  0.0062  0.2376 -0.1010
14605TIP3    H165230   1.651   3.211  11.002 -1.6328  2.2500 -0.9903
14605TIP3    H265231   1.703   3.325  11.087  1.3325 -0.5391  1.1764
14606TIP3   OH265232   3.713   3.210   2.810  0.0679  0.0493  0.3014
14606TIP3    H165233   3.662   3.272   2.758  0.4193 -0.1281 -0.2674
14606TIP3    H265234   3.662   3.197   2.889 -0.3476  0.5319  0.1167
14607TIP3   OH265235   5.945   1.239  15.326  0.2292 -0.7334  0.0009
14607TIP3    H165236   5.921   1.255  15.417 -0.8420  2.9271 -0.7585
14607TIP3    H265237   6.031   1.280  15.316 -1.0286  1.8514 -1.2503
14608TIP3   OH265238   4.845   5.831  17.291 -0.1296  0.0611  0.0732
14608TIP3    H165239   4.796   5.887  17.231 -0.2889  0.8165  0.9020
14608TIP3    H265240   4.849   5.880  17.373  1.4316 -0.2811  0.2279
14609TIP3   OH265241   1.910   0.186  17.120  0.7471 -0.0961 -0.2763
14609TIP3    H165242   1.974   0.202  17.051  0.5896 -0.1150 -0.4264
14609TIP3    H265243   1.959   0.138  17.187  1.0037  0.2738 -0.1949
14610TIP3   OH265244   1.830   3.667  12.121 -0.4289 -0.0976 -0.0883
14610TIP3    H165245   1.763   3.687  12.055 -2.5380 -2.7098  1.0591
14610TIP3    H265246   1.911   3.660  12.071 -1.4183  0.7322 -1.9409
14611TIP3   OH265247   3.328   4.396  13.157  0.1482 -0.8652  0.5471
14611TIP3    H165248   3.358   4.474  13.110 -0.1810 -0.6410  0.6985
14611TIP3    H265249   3.295   4.430  13.240  0.7408 -1.2638  0.9434
14612TIP3   OH265250   1.256   5.928   2.316  0.0475 -0.2126  0.2293
14612TIP3    H165251   1.201   5.901   2.389 -1.5107 -0.0115 -0.8129
14612TIP3    H265252   1.201   5.914   2.239  0.5226  2.3321 -0.6680
14613TIP3   OH265253   5.126   0.642   5.624  0.5868 -0.0532  0.5261
14613TIP3    H165254   5.189   0.706   5.590 -2.5999  2.0800 -2.1457
14613TIP3    H265255   5.125   0.573   5.558 -0.5242  0.4894 -0.0663
14614TIP3   OH265256   5.418   0.663  10.733 -0.7176  0.1935 -0.3468
14614TIP3    H165257   5.408   0.586  10.790 -1.3741  0.4368 -0.1247
14614TIP3    H265258   5.443   0.734  10.793 -0.0518  0.1461 -0.5596
14615TIP3   OH265259   1.395   5.956   1.067 -0.0724 -0.2615 -0.1602
14615TIP3    H165260   1.490   5.941   1.065  0.2885  1.7648 -0.6990
14615TIP3    H265261   1.361   5.898   0.999  0.9956  0.1125 -1.0621
14616TIP3   OH265262   0.922   0.478   0.738 -0.1815 -0.1363 -0.4002
14616TIP3    H165263   0.889   0.454   0.825 -0.5929 -1.0316 -0.7922
14616TIP3    H265264   0.856   0.536   0.702  0.4256  0.9893  0.2285
14617TIP3   OH265265   2.818   4.475  15.932 -0.4526 -0.1051 -0.3589
14617TIP3    H165266   2.801   4.437  16.019  0.0730 -0.5114 -0.4279
14617TIP3    H265267   2.913   4.487  15.930 -0.2697 -1.4030 -1.3944
14618TIP3   OH265268   2.191   2.930  17.260  0.6342 -0.3570  0.2679
14618TIP3    H165269   2.138   2.914  17.338 -0.2215  0.8456 -0.0463
14618TIP3    H265270   2.198   3.025  17.255  2.9643 -0.4688  0.3661
14619TIP3   OH265271   0.168   4.096  15.633  0.8493  0.0594  0.4267
14619TIP3    H165272   0.116   4.153  15.690 -2.0393  0.5568 -2.4072
14619TIP3    H265273   0.108   4.026  15.608  3.0561 -2.0076  0.5597
14620TIP3   OH265274   3.142   1.137  16.685  0.1285  0.3572  0.2511
14620TIP3    H165275   3.106   1.086  16.612 -3.3486  1.8888  0.6707
14620TIP3    H265276   3.140   1.228  16.653  0.0083  0.8845  1.6991
14621TIP3   OH265277   6.088   1.907   0.590  0.2878 -0.0632  0.2922
14621TIP3    H165278   6.130   1.829   0.626 -1.7415 -1.7523 -0.7556
14621TIP3    H265279   6.000   1.906   0.627 -0.0704  1.2137 -0.4673
14622TIP3   OH265280   1.724   3.846   4.928 -0.3179  0.1305  0.5145
14622TIP3    H165281   1.743   3.856   5.022 -1.1138  0.7213  0.6183
14622TIP3    H265282   1.666   3.919   4.907 -1.4653 -0.9183 -0.0756
14623TIP3   OH265283   4.898   2.739  17.136 -0.5728 -0.5405 -0.5358
14623TIP3    H165284   4.858   2.777  17.058 -0.9385 -2.2748 -1.2369
14623TIP3    H265285   4.828   2.688  17.177 -0.1981 -0.2122  0.5597
14624TIP3   OH265286   2.037   5.847   1.047 -0.6921  0.2400 -0.3942
14624TIP3    H165287   2.022   5.938   1.020  0.3896  0.3444 -0.6906
14624TIP3    H265288   1.961   5.825   1.101 -2.1083  0.5627 -2.1701
14625TIP3   OH265289   6.634   4.060  13.015 -0.0500 -0.3499 -0.1637
14625TIP3    H165290   6.658   3.978  13.059 -0.9271 -0.1579  0.7017
14625TIP3    H265291   6.541   4.049  12.994  0.5471 -0.9198 -3.0798
14626TIP3   OH265292   3.531   4.056  17.383 -0.3688 -0.2134 -0.0103
14626TIP3    H165293   3.472   3.995  17.339  0.0894 -0.2587 -0.5715
14626TIP3    H265294   3.573   4.105  17.312  0.5726 -0.4711  0.3547
14627TIP3   OH265295   0.350   4.034   4.761 -0.1805 -0.4527  0.1594
14627TIP3    H165296   0.322   4.099   4.826 -1.3408  1.1317 -1.8023
14627TIP3    H265297   0.430   4.070   4.724 -1.6638  0.7527 -2.0394
14628TIP3   OH265298   3.248   3.190  13.803 -0.4261 -0.1679 -0.4195
14628TIP3    H165299   3.240   3.096  13.815 -1.6092 -0.1378 -0.8204
14628TIP3    H265300   3.236   3.227  13.890  2.3142 -0.4483  0.1818
14629TIP3   OH265301   2.637   1.358  15.907  0.6454  0.1538  0.1698
14629TIP3    H165302   2.697   1.346  15.834  0.1774 -1.1803 -0.0253
14629TIP3    H265303   2.676   1.307  15.979  1.2461  1.6766  0.9578
14630TIP3   OH265304   5.782   4.426   1.665 -0.1185  0.3348  0.4029
14630TIP3    H165305   5.784   4.359   1.734 -1.1711 -1.4614 -1.2235
14630TIP3    H265306   5.873   4.431   1.634 -0.1464 -0.8538  0.0891
14631TIP3   OH265307   2.687   5.881  14.948  0.2301 -0.1761  0.0980
14631TIP3    H165308   2.636   5.903  14.870 -0.7682 -0.8421  0.5422
14631TIP3    H265309   2.629   5.901  15.021  0.4892 -1.2194  0.6067
14632TIP3   OH265310   3.386   1.867  12.743  0.5659 -0.0639  0.2943
14632TIP3    H165311   3.380   1.772  12.740 -4.2842  0.0181 -0.5782
14632TIP3    H265312   3.411   1.893  12.654 -2.2425 -0.5716 -0.7321
14633TIP3   OH265313   3.404   0.188  13.611 -0.2506  0.1866  0.4777
14633TIP3    H165314   3.498   0.168  13.610 -0.3164 -0.1249  0.6166
14633TIP3    H265315   3.391   0.242  13.533  0.0515  0.2650  0.4784
14634TIP3   OH265316   3.282   6.193   4.982  0.4811 -0.7494 -0.3737
14634TIP3    H165317   3.241   6.108   4.965  1.0015 -0.9672 -0.5605
14634TIP3    H265318   3.297   6.230   4.895 -1.2698  0.2972 -0.2879
14635TIP3   OH265319   2.217   1.258  13.918  0.2714  0.2934 -0.2366
14635TIP3    H165320   2.126   1.285  13.905 -0.4418  0.2523  3.6395
14635TIP3    H265321   2.216   1.163  13.902 -0.7622  0.0373  1.1398
14636TIP3   OH265322   4.127   1.998  13.576 -0.6867  0.6447  0.2708
14636TIP3    H165323   4.133   2.052  13.654 -1.5770 -0.9657  1.5124
14636TIP3    H265324   4.160   2.054  13.505  0.7667  1.9230  1.8811
14637TIP3   OH265325   5.042   1.309  12.417 -0.0621  0.1780 -0.3543
14637TIP3    H165326   5.027   1.375  12.350  0.4743  1.2363  0.5319
14637TIP3    H265327   5.136   1.297  12.418  0.1222  1.3725  1.2645
14638TIP3   OH265328   2.602   3.313  13.705 -0.5153 -0.0361 -0.2669
14638TIP3    H165329   2.610   3.409  13.704 -0.7450 -0.0036  0.4467
14638TIP3    H265330   2.623   3.288  13.795 -0.5305 -0.6522 -0.4304
14639TIP3   OH265331   4.781   5.075   1.845 -0.3060 -0.2574  0.2569
14639TIP3    H165332   4.850   5.024   1.804 -0.2582  1.8308 -2.5364
14639TIP3    H265333   4.705   5.064   1.788 -0.7227  1.5261  0.4058
14640TIP3   OH265334   4.319   0.399  12.427 -0.4080 -0.4442 -0.3682
14640TIP3    H165335   4.230   0.364  12.437  0.1473 -1.5189  1.2559
14640TIP3    H265336   4.337   0.392  12.333 -2.1876  0.2378 -0.8107
14641TIP3   OH265337   5.583   1.892   2.614  1.1211 -0.2326  0.0065
14641TIP3    H165338   5.523   1.842   2.669 -2.1876  0.9854 -2.1711
14641TIP3    H265339   5.608   1.968   2.667 -1.0111  0.3043  0.3185
14642TIP3   OH265340   4.776   3.622  12.759 -0.3068  0.0049 -0.3727
14642TIP3    H165341   4.784   3.649  12.851 -1.0785  1.6221 -0.7451
14642TIP3    H265342   4.834   3.682  12.712 -2.5027  1.5071 -1.2983
14643TIP3   OH265343   3.110   6.236   1.470  0.4492 -0.0943  0.3516
14643TIP3    H165344   3.119   6.309   1.409 -1.0659  0.3605  0.6217
14643TIP3    H265345   3.082   6.162   1.416  3.7482 -1.0665 -0.2285
14644TIP3   OH265346   0.919   5.174  11.568 -0.5312 -0.0554  0.1997
14644TIP3    H165347   0.942   5.151  11.478 -1.5408 -0.0184 -0.0736
14644TIP3    H265348   0.992   5.140  11.620  0.6654  0.9607 -0.7194
14645TIP3   OH265349   5.812   4.211   1.845 -0.1858  0.5090  0.2424
14645TIP3    H165350   5.902   4.194   1.871  0.0859  0.6908 -0.5388
14645TIP3    H265351   5.776   4.124   1.825 -0.2732  0.4100  0.8016
14646TIP3   OH265352   3.789   0.720   4.718 -0.2717  0.0206 -0.0711
14646TIP3    H165353   3.714   0.712   4.660 -0.5782  0.7353  0.2098
14646TIP3    H265354   3.811   0.813   4.715 -0.8963  0.2509  1.6874
14647TIP3   OH265355   5.856   1.687   4.969 -0.0733 -0.1203  0.2491
14647TIP3    H165356   5.889   1.642   5.046 -1.1736 -0.1156  0.7394
14647TIP3    H265357   5.863   1.780   4.991 -2.4489 -0.1186  1.2967
14648TIP3   OH265358   3.687   1.509   1.511 -0.2169  0.4482  0.6314
14648TIP3    H165359   3.637   1.527   1.591  0.0928  1.5786  0.5818
14648TIP3    H265360   3.651   1.570   1.446  1.2789  1.3796  0.6304
14649TIP3   OH265361   0.555   1.836  12.189  0.2832 -0.2307 -0.2120
14649TIP3    H165362   0.572   1.877  12.104 -1.9500 -0.8637 -1.0246
14649TIP3    H265363   0.548   1.743  12.170 -0.2875 -0.3775  0.6664
14650TIP3   OH265364   0.281   5.120   5.723 -0.9542 -0.2569 -0.4685
14650TIP3    H165365   0.328   5.062   5.663 -0.0843  0.1799 -0.2332
14650TIP3    H265366   0.317   5.207   5.705 -0.6753 -0.1238  0.6837
14651TIP3   OH265367   3.574   1.775   2.471  0.2003 -0.2184 -0.0466
14651TIP3    H165368   3.640   1.722   2.427 -1.0138 -1.7179 -0.1616
14651TIP3    H265369   3.546   1.839   2.406 -1.8419 -2.6352 -1.7325
14652TIP3   OH265370   1.947   3.712   3.878  0.4068  0.1860 -0.2202
14652TIP3    H165371   1.860   3.734   3.843  1.0356 -0.0255 -2.0165
14652TIP3    H265372   1.930   3.646   3.945 -0.8860  0.7800  0.0672
14653TIP3   OH265373   1.214   5.503   1.861  0.2031  0.1965 -0.0698
14653TIP3    H165374   1.291   5.545   1.822  0.2672 -1.8243 -2.2797
14653TIP3    H265375   1.144   5.518   1.798 -0.2825 -1.1246  0.1282
14654TIP3   OH265376   1.673   2.812   4.036 -0.5222  0.7751  0.1570
14654TIP3    H165377   1.729   2.790   4.111 -0.9200  4.2745  1.6722
14654TIP3    H265378   1.620   2.733   4.023  0.1171 -0.2918  3.0656
14655TIP3   OH265379   1.894   5.500   3.983 -0.4372  0.1775  0.0184
14655TIP3    H165380   1.810   5.524   3.944 -0.7097  1.3727  1.2661
14655TIP3    H265381   1.873   5.427   4.042 -0.9061  1.3152  1.3365
14656TIP3   OH265382   0.946   0.957   0.033  0.1839 -0.1468  0.0357
14656TIP3    H165383   0.902   0.967  -0.052  1.1765  1.4057 -0.3316
14656TIP3    H265384   0.988   0.871   0.028  0.5054  0.0576 -1.1947
14657TIP3   OH265385   4.316   4.631  12.153  0.0290  0.6016 -0.4390
14657TIP3    H165386   4.404   4.603  12.124  0.0225  0.2235 -0.0979
14657TIP3    H265387   4.284   4.557  12.205  0.0293  1.2672  0.5228
14658TIP3   OH265388   6.573   6.295  13.746 -0.0779  0.0775 -0.5230
14658TIP3    H165389   6.633   6.230  13.708  0.4594  0.3421 -0.1517
14658TIP3    H265390   6.545   6.256  13.829 -0.6058 -0.1476 -0.8079
14659TIP3   OH265391   2.190   4.738  13.448  0.0815 -0.1671  0.0698
14659TIP3    H165392   2.189   4.643  13.448  0.4892 -0.1906 -1.3398
14659TIP3    H265393   2.106   4.764  13.485  0.5776 -1.0454  1.9168
14660TIP3   OH265394   4.282   6.131   4.998 -0.0918 -0.3947  0.4767
14660TIP3    H165395   4.262   6.067   4.930  1.2251 -0.7582  0.4042
14660TIP3    H265396   4.199   6.145   5.043 -0.2362 -2.8848  1.1211
14661TIP3   OH265397   2.171   4.379   1.247 -0.3428  0.2574  0.5680
14661TIP3    H165398   2.189   4.362   1.155  0.8559  0.1391  0.8055
14661TIP3    H265399   2.103   4.316   1.271 -0.4740  0.1140 -0.1568
14662TIP3   OH265400   1.331   1.026   6.099  0.1529 -0.2979 -0.1134
14662TIP3    H165401   1.419   0.995   6.078  1.3580  1.6631  1.6547
14662TIP3    H265402   1.302   0.970   6.172  0.9292  0.5332  0.8508
14663TIP3   OH265403   5.739   3.822   3.765 -0.2134 -0.1278  0.5360
14663TIP3    H165404   5.659   3.784   3.729 -1.6612  2.8987  0.2451
14663TIP3    H265405   5.773   3.754   3.823 -2.0552 -2.1579 -0.5712
14664TIP3   OH265406   2.968   6.324   4.153  0.0734 -0.1097 -0.0570
14664TIP3    H165407   2.892   6.376   4.178 -1.3783 -1.4302 -1.4389
14664TIP3    H265408   2.995   6.280   4.233 -1.0258 -0.0880  0.3362
14665TIP3   OH265409   0.244   4.646   6.074  0.5256  0.2149 -0.1942
14665TIP3    H165410   0.251   4.735   6.039  2.1512 -0.0872 -0.7781
14665TIP3    H265411   0.309   4.643   6.144  0.0855 -0.3420  0.1896
14666TIP3   OH265412   2.411   0.905   6.348  0.6263  0.1177 -0.0709
14666TIP3    H165413   2.375   0.818   6.369  0.7916  0.0577 -0.0351
14666TIP3    H265414   2.357   0.935   6.274 -1.2865  1.1922  1.6561
14667TIP3   OH265415   2.362   1.464   4.527 -0.3685 -0.4075 -0.3082
14667TIP3    H165416   2.354   1.519   4.606 -0.1275 -0.2923 -0.3657
14667TIP3    H265417   2.381   1.377   4.561 -0.5039 -0.4061 -0.2278
14668TIP3   OH265418   0.168   5.257  11.945 -0.5644 -0.1352  0.2683
14668TIP3    H165419   0.219   5.325  11.902 -2.8588  1.3401 -0.3239
14668TIP3    H265420   0.166   5.185  11.882 -2.6208  1.4280 -1.6311
14669TIP3   OH265421   3.770   5.464  15.912 -0.0114 -0.4166  0.0396
14669TIP3    H165422   3.822   5.517  15.852  0.0685 -1.5079 -0.8807
14669TIP3    H265423   3.771   5.376  15.874  1.7238 -1.6608  2.6383
14670TIP3   OH265424   5.492   3.033  10.719 -0.0972  0.0351 -0.4872
14670TIP3    H165425   5.468   2.992  10.802 -1.8242  2.9135  0.5936
14670TIP3    H265426   5.432   2.995  10.654 -0.1984 -0.6817  0.0198
14671TIP3   OH265427   3.843   6.705  14.951  0.6452  0.3627  0.7914
14671TIP3    H165428   3.822   6.798  14.957 -0.0763  0.2672 -0.0054
14671TIP3    H265429   3.771   6.660  14.995  0.1632  0.1251 -0.1968
14672TIP3   OH265430   6.054   1.944  16.635 -0.4951 -0.6378  0.0999
14672TIP3    H165431   6.097   1.921  16.552  2.3550  0.0504  1.2353
14672TIP3    H265432   6.040   2.039  16.629  0.9677 -0.3403  0.8477
14673TIP3   OH265433   6.107   0.143  11.857  0.3678  0.1759 -0.4407
14673TIP3    H165434   6.190   0.122  11.814 -0.0345 -1.5052 -0.4654
14673TIP3    H265435   6.040   0.099  11.804 -0.4249  0.5605  0.2174
14674TIP3   OH265436   4.720   1.815  12.370 -0.4210 -0.7678  0.5344
14674TIP3    H165437   4.710   1.733  12.321 -0.0278 -1.0881  0.9750
14674TIP3    H265438   4.795   1.799  12.428 -0.7869 -0.3418  1.1321
14675TIP3   OH265439   3.210   4.649  16.856 -0.2114 -0.3116 -0.2158
14675TIP3    H165440   3.253   4.639  16.771  0.4375 -1.9029  0.2602
14675TIP3    H265441   3.149   4.576  16.861 -1.4447  0.6918  0.0367
14676TIP3   OH265442   4.897   5.833  16.200  0.1803  0.2788 -0.5005
14676TIP3    H165443   4.938   5.864  16.282 -1.5436  0.1508  0.4573
14676TIP3    H265444   4.839   5.763  16.228 -0.9577  0.6926 -1.7504
14677TIP3   OH265445   3.734   5.489   3.048  0.1898 -0.7470 -0.1047
14677TIP3    H165446   3.704   5.439   2.973  0.0790 -0.8307 -0.0055
14677TIP3    H265447   3.700   5.442   3.124 -0.8076  0.0361 -0.0385
14678TIP3   OH265448   6.586   4.993   5.862  0.1704  0.5999 -0.1354
14678TIP3    H165449   6.514   5.028   5.913  0.1309 -2.5669  2.2828
14678TIP3    H265450   6.545   4.932   5.801  0.6981 -0.6714  0.7532
14679TIP3   OH265451   1.741   4.193   2.982  0.0046  0.4437 -0.0526
14679TIP3    H165452   1.652   4.196   2.946  0.5815  0.6326 -1.5476
14679TIP3    H265453   1.729   4.173   3.075 -1.5073 -1.5787 -0.6060
14680TIP3   OH265454   5.117   5.279  17.163 -0.2965 -0.7671  0.2931
14680TIP3    H165455   5.081   5.269  17.075 -0.3936 -0.7073  0.3264
14680TIP3    H265456   5.205   5.314  17.149 -0.9581  0.9659  0.2918
14681TIP3   OH265457   1.977   4.975   4.431 -0.3485  0.2068 -0.5056
14681TIP3    H165458   1.949   5.036   4.363  1.3503  0.9698 -0.5567
14681TIP3    H265459   2.028   4.909   4.385  0.6710  0.6344 -0.0296
14682TIP3   OH265460   0.185   6.181   2.489  0.2394 -0.3215  0.7019
14682TIP3    H165461   0.144   6.194   2.575 -2.5942 -1.4465 -0.3395
14682TIP3    H265462   0.205   6.087   2.486  0.2882 -0.2958  0.1414
14683TIP3   OH265463   6.335   1.546   2.555  0.0690 -0.2420 -0.0009
14683TIP3    H165464   6.270   1.603   2.516  0.6851 -0.3656 -1.2413
14683TIP3    H265465   6.285   1.486   2.611 -0.6742  0.8499  0.5388
14684TIP3   OH265466   3.932   6.638  11.966  0.2270  0.3460  0.7650
14684TIP3    H165467   4.021   6.634  11.932  0.4084  1.5229  1.0414
14684TIP3    H265468   3.943   6.635  12.062  0.0857  1.6634  0.8443
14685TIP3   OH265469   0.485   6.692   4.456  0.3660 -0.0951  0.2243
14685TIP3    H165470   0.428   6.615   4.458 -0.7978  0.6313 -1.8038
14685TIP3    H265471   0.555   6.668   4.394  0.3419  0.2409  0.0645
14686TIP3   OH265472   5.919   5.901   4.622  0.3510  0.2287  0.2712
14686TIP3    H165473   5.996   5.858   4.658  0.1238 -0.4473 -0.0396
14686TIP3    H265474   5.953   5.979   4.579  0.5807  1.3835  2.4194
14687TIP3   OH265475   3.769   4.936   2.117 -0.2761  0.2208 -0.2894
14687TIP3    H165476   3.797   4.948   2.027  1.0843 -0.5048  0.0043
14687TIP3    H265477   3.720   5.015   2.138  0.1412  0.7846 -1.3851
14688TIP3   OH265478   0.608   4.124   4.780 -0.2015  0.1606 -0.7818
14688TIP3    H165479   0.681   4.063   4.787  0.9113  1.5751  0.5884
14688TIP3    H265480   0.580   4.139   4.870 -1.2957  0.7037 -1.1849
14689TIP3   OH265481   3.902   0.205   5.345 -0.8298  0.5716  0.3288
14689TIP3    H165482   3.861   0.291   5.338  0.6172  1.2245 -0.5934
14689TIP3    H265483   3.958   0.198   5.268  1.4457  0.1273  1.9097
14690TIP3   OH265484   1.848   3.809   5.376 -0.2542  0.5221 -0.0876
14690TIP3    H165485   1.763   3.766   5.381  0.9756 -1.9605  1.5756
14690TIP3    H265486   1.846   3.873   5.448 -0.2993 -0.4242  0.7748
14691TIP3   OH265487   0.168   2.930   5.478  0.7243  0.1523  0.0473
14691TIP3    H165488   0.109   3.003   5.458  1.5447  0.9536  0.4894
14691TIP3    H265489   0.192   2.943   5.570  0.3785 -1.0529  0.3285
14692TIP3   OH265490   6.318   4.727  16.037  0.3552  0.5710 -0.5995
14692TIP3    H165491   6.249   4.662  16.052  1.1238 -0.2594 -0.6027
14692TIP3    H265492   6.322   4.776  16.119  0.4415 -0.0388 -0.2308
14693TIP3   OH265493   1.394   1.372  14.522  0.3185  0.0455 -0.1661
14693TIP3    H165494   1.462   1.306  14.520 -0.4237 -0.7985  1.0742
14693TIP3    H265495   1.330   1.339  14.585 -0.1244  1.8899  0.4162
14694TIP3   OH265496   5.989   5.501   4.237  0.2301  0.0254  1.0868
14694TIP3    H165497   5.917   5.450   4.201  0.9628 -0.8150  0.7718
14694TIP3    H265498   5.958   5.531   4.322 -0.5092 -0.2785  0.9259
14695TIP3   OH265499   6.627   1.991  16.493  0.1277  0.4823 -0.3397
14695TIP3    H165500   6.665   2.050  16.428  1.6710  0.2395  0.2931
14695TIP3    H265501   6.545   1.960  16.453 -0.1341  2.1245 -1.1660
14696TIP3   OH265502   4.391   0.633  14.626  0.1162  0.4044 -0.6877
14696TIP3    H165503   4.369   0.660  14.715 -0.0410 -0.3982 -0.4746
14696TIP3    H265504   4.472   0.584  14.635  0.8780  1.5453 -1.1909
14697TIP3   OH265505   6.079   4.182   1.976  0.1316  0.0198 -0.3369
14697TIP3    H165506   6.164   4.226   1.985  0.1462 -0.3723  2.1809
14697TIP3    H265507   6.100   4.090   1.960  0.2603 -0.2786  1.3538
14698TIP3   OH265508   5.551   6.512   1.994  0.2276 -0.1954  0.1970
14698TIP3    H165509   5.486   6.496   1.925 -0.8561 -0.9773  1.3503
14698TIP3    H265510   5.535   6.442   2.058  2.4526 -0.6120  0.3689
14699TIP3   OH265511   2.035   2.966   5.824  0.1086 -0.1700  0.0613
14699TIP3    H165512   2.053   2.995   5.735  2.7251  0.3295  0.6676
14699TIP3    H265513   1.982   3.035   5.862  0.1850  0.3086 -0.6930
14700TIP3   OH265514   4.124   5.812   1.030 -0.2514 -0.2911  0.2026
14700TIP3    H165515   4.188   5.781   0.966 -0.8871 -0.1129 -0.5332
14700TIP3    H265516   4.148   5.903   1.045  0.0275 -0.3915  0.3891
14701TIP3   OH265517   6.270   3.130  16.582  0.5740  0.1640 -0.3614
14701TIP3    H165518   6.227   3.210  16.613 -1.5885 -0.5561 -1.3207
14701TIP3    H265519   6.274   3.073  16.659  0.9475  0.7026  0.0210
14702TIP3   OH265520   2.191   2.283  16.184  0.1388  0.1064  0.0382
14702TIP3    H165521   2.266   2.285  16.126 -0.1856 -1.5014 -0.5037
14702TIP3    H265522   2.228   2.291  16.272  0.8878  0.0184 -0.2600
14703TIP3   OH265523   1.508   5.129  15.797 -0.0748  1.1086 -1.4630
14703TIP3    H165524   1.475   5.169  15.717 -0.4774  2.5312 -0.6248
14703TIP3    H265525   1.548   5.201  15.846  1.2320  0.0528 -0.9030
14704TIP3   OH265526   2.307   5.485   5.834  0.0505  0.1979  0.1846
14704TIP3    H165527   2.271   5.442   5.912 -0.1173  0.8118  0.4524
14704TIP3    H265528   2.373   5.424   5.801  3.2533  1.6747  3.2314
14705TIP3   OH265529   2.756   2.921   0.762  0.1404 -0.0466 -0.0405
14705TIP3    H165530   2.756   3.006   0.807 -0.6753 -0.8182  1.5011
14705TIP3    H265531   2.694   2.868   0.812  0.8015 -1.6297 -0.8442
14706TIP3   OH265532   5.126   5.655  13.464 -0.0012  0.0201 -0.0594
14706TIP3    H165533   5.064   5.685  13.398 -0.0666  0.0516  0.0160
14706TIP3    H265534   5.127   5.725  13.529 -0.3327 -0.2487  0.2369
14707TIP3   OH265535   1.100   2.696  15.018  0.5001 -0.1881 -0.1866
14707TIP3    H165536   1.128   2.720  14.930  0.7211  0.2729  0.0054
14707TIP3    H265537   1.181   2.681  15.066  0.3853 -0.1958  0.0068
14708TIP3   OH265538   3.469   6.025   2.118  0.5515 -0.3783  0.2659
14708TIP3    H165539   3.503   5.955   2.063  0.8145  0.6720 -0.9656
14708TIP3    H265540   3.374   6.023   2.104  0.4596 -1.0298  0.9219
14709TIP3   OH265541   0.580   0.209   3.474 -0.0546  0.9079 -0.5961
14709TIP3    H165542   0.592   0.189   3.567 -2.5054 -1.3401 -0.6590
14709TIP3    H265543   0.522   0.285   3.474 -0.4955  0.5741 -0.2847
14710TIP3   OH265544   3.251   4.967  16.543  0.1917  0.1072  0.0563
14710TIP3    H165545   3.339   5.005  16.535 -0.2502  0.9747 -0.8101
14710TIP3    H265546   3.209   4.985  16.459 -1.6051  1.6818  1.2197
14711TIP3   OH265547   3.431   6.228   0.657 -0.2289 -0.6596 -0.3270
14711TIP3    H165548   3.508   6.188   0.697 -0.0948 -0.0358  0.0375
14711TIP3    H265549   3.462   6.263   0.573  0.6657  2.4080  1.1689
14712TIP3   OH265550   5.846   0.710  12.871  0.2746  0.7131 -0.2420
14712TIP3    H165551   5.922   0.702  12.929  0.9671  0.6616 -1.1537
14712TIP3    H265552   5.785   0.766  12.920 -0.6167 -1.9730  2.0474
14713TIP3   OH265553   3.439   4.621  13.863  0.3984 -0.2855 -0.2125
14713TIP3    H165554   3.409   4.588  13.947 -1.6106 -0.6386 -1.0163
14713TIP3    H265555   3.460   4.713  13.879  1.0936 -0.6161  0.8847
14714TIP3   OH265556   5.683   3.394   3.867 -0.2735  0.3895 -0.4592
14714TIP3    H165557   5.754   3.334   3.892 -0.1487  0.8896  0.4465
14714TIP3    H265558   5.696   3.410   3.774 -0.3572 -1.0441 -0.7523
14715TIP3   OH265559   0.626   1.833  14.863 -0.1285 -0.3705 -0.2786
14715TIP3    H165560   0.598   1.742  14.871 -1.1560  0.0588  1.2552
14715TIP3    H265561   0.636   1.846  14.768 -2.2463 -1.4206 -0.7087
14716TIP3   OH265562   6.662   4.695  12.832  0.0268  0.0883  0.1626
14716TIP3    H165563   6.752   4.723  12.816  0.4962 -0.9495  0.8776
14716TIP3    H265564   6.623   4.689  12.745  0.7438  0.2321 -0.1762
14717TIP3   OH265565   2.115   0.352  17.392  0.3829 -0.4781  0.8482
14717TIP3    H165566   2.105   0.343  17.486  1.9801 -0.5500  1.0493
14717TIP3    H265567   2.150   0.268  17.363 -0.8054 -0.7245  0.0533
14718TIP3   OH265568   6.592   1.167   1.627  0.4240 -0.2286 -0.1928
14718TIP3    H165569   6.535   1.109   1.576  1.0901 -0.0905 -1.1023
14718TIP3    H265570   6.679   1.153   1.592  1.0669 -0.8015  1.5090
14719TIP3   OH265571   2.350   3.127  14.846 -0.3294 -0.0875 -0.0802
14719TIP3    H165572   2.270   3.083  14.873  0.1787 -1.0359 -0.0722
14719TIP3    H265573   2.334   3.220  14.865 -1.2728 -0.3116  0.2689
14720TIP3   OH265574   3.176   6.165   4.402 -0.5809  0.4332 -0.0857
14720TIP3    H165575   3.169   6.215   4.484 -1.0120  0.1512  0.0557
14720TIP3    H265576   3.268   6.174   4.376 -0.4075  0.4180  0.5001
14721TIP3   OH265577   1.571   2.217  16.215  0.0894  0.1788  0.2507
14721TIP3    H165578   1.499   2.155  16.225 -2.0354  2.0044 -2.4142
14721TIP3    H265579   1.631   2.175  16.154  0.4864 -0.6390  1.1694
14722TIP3   OH265580   6.635   2.426   0.585  0.4076  0.2017  0.0397
14722TIP3    H165581   6.586   2.466   0.513  1.3790  1.3432 -0.0222
14722TIP3    H265582   6.620   2.332   0.575  0.7107  0.3096 -1.8177
14723TIP3   OH265583   0.693   0.551   6.936  0.2966 -0.0871  0.6396
14723TIP3    H165584   0.680   0.491   6.862 -1.8923 -1.7442  2.2178
14723TIP3    H265585   0.654   0.633   6.907 -0.2434 -0.6168 -0.1784
14724TIP3   OH265586   3.427   1.200  17.299 -0.2974  0.2302  0.4126
14724TIP3    H165587   3.513   1.190  17.259  0.0382  1.4109  0.8005
14724TIP3    H265588   3.376   1.250  17.236  0.2997  2.2896  1.4855
14725TIP3   OH265589   1.016   2.433   1.666 -0.5999 -0.1013 -0.1168
14725TIP3    H165590   1.060   2.442   1.750  1.1320 -0.7658 -0.9110
14725TIP3    H265591   0.924   2.452   1.685  0.0793  2.0096  1.4766
14726TIP3   OH265592   0.015   0.219  12.401  0.2039  0.0361  0.2320
14726TIP3    H165593   0.001   0.130  12.371 -2.6896 -0.4080  2.4247
14726TIP3    H265594   0.050   0.210  12.490  0.5865  1.1149  0.2138
14727TIP3   OH265595   4.146   5.942  16.952 -0.4689  0.1779  0.3464
14727TIP3    H165596   4.064   5.992  16.947 -1.3990 -0.8437  3.3201
14727TIP3    H265597   4.123   5.855  16.920 -0.4687 -0.0148  0.8660
14728TIP3   OH265598   4.881   0.723  14.728  0.3078 -0.2143 -0.0269
14728TIP3    H165599   4.929   0.766  14.798 -0.2205 -0.4478  0.4843
14728TIP3    H265600   4.862   0.793  14.666  1.0271 -0.0606 -0.0864
14729TIP3   OH265601   4.892   0.098  16.318  0.2682 -0.1848 -0.2490
14729TIP3    H165602   4.923   0.162  16.382  0.5158  0.1829 -0.7295
14729TIP3    H265603   4.800   0.120  16.305  0.2825 -0.0967 -0.2051
14730TIP3   OH265604   3.666   2.705   5.784 -0.2797  0.1328  0.5527
14730TIP3    H165605   3.744   2.684   5.835  0.1192  1.5335  0.5771
14730TIP3    H265606   3.688   2.681   5.695  0.5615  1.3365  0.4064
14731TIP3   OH265607   4.332   2.010   4.194 -0.2171  0.0258 -0.1430
14731TIP3    H165608   4.348   2.100   4.225 -0.4675 -0.2871  0.9568
14731TIP3    H265609   4.290   1.967   4.269 -1.6356 -0.5524 -1.2339
14732TIP3   OH265610   4.644   0.954   4.939 -0.7620 -0.3836 -0.3504
14732TIP3    H165611   4.616   1.032   4.890 -1.1274 -0.0745  0.3256
14732TIP3    H265612   4.577   0.944   5.007  0.9835  0.6687  1.6188
14733TIP3   OH265613   6.141   3.163  12.405 -0.4093 -0.4367  0.2278
14733TIP3    H165614   6.103   3.251  12.397 -2.0355 -1.1983 -1.2418
14733TIP3    H265615   6.065   3.105  12.412  0.5346 -1.9051 -1.0729
14734TIP3   OH265616   1.833   0.857  15.187  0.3777 -0.2549 -0.2774
14734TIP3    H165617   1.843   0.887  15.278 -0.9322  1.3013 -0.5888
14734TIP3    H265618   1.909   0.892  15.141  0.0619  0.6154 -0.1500
14735TIP3   OH265619   3.341   3.129  15.639 -0.5080 -0.3634  0.8418
14735TIP3    H165620   3.430   3.111  15.608 -1.1719 -1.3776 -0.5937
14735TIP3    H265621   3.318   3.051  15.690 -1.3788 -1.1894 -0.7379
14736TIP3   OH265622   0.838   3.170   2.195 -0.3056  0.5031  0.2926
14736TIP3    H165623   0.929   3.175   2.224 -0.4133  2.3425  0.4361
14736TIP3    H265624   0.824   3.249   2.144 -1.4151 -0.4930 -1.0373
14737TIP3   OH265625   6.180   5.803   0.918  0.2517 -0.0134 -0.0010
14737TIP3    H165626   6.239   5.826   0.847  0.3105  0.0114  0.0556
14737TIP3    H265627   6.220   5.728   0.961 -0.6454 -1.1287 -1.0551
14738TIP3   OH265628   1.292   5.521  12.883 -0.0791 -0.0091 -0.4600
14738TIP3    H165629   1.201   5.495  12.875  0.1335 -0.6461 -0.8785
14738TIP3    H265630   1.303   5.541  12.976 -0.0627 -2.2459  0.0817
14739TIP3   OH265631   1.973   0.444   2.594 -0.6383 -0.2322 -0.5103
14739TIP3    H165632   2.059   0.404   2.603 -0.5867 -0.1234 -0.5149
14739TIP3    H265633   1.991   0.538   2.594 -0.7930 -0.1995 -0.1020
14740TIP3   OH265634   2.672   3.192   4.054 -0.1943 -0.3255  0.4966
14740TIP3    H165635   2.745   3.136   4.025 -0.5573 -0.3686 -0.3587
14740TIP3    H265636   2.684   3.274   4.006 -0.3552 -0.1012  0.8349
14741TIP3   OH265637   1.257   5.801  13.837 -0.0154 -0.0038  0.1170
14741TIP3    H165638   1.197   5.727  13.846  0.2345 -0.3194 -0.7270
14741TIP3    H265639   1.340   5.768  13.871  0.1951 -0.2523 -0.6135
14742TIP3   OH265640   3.268   2.424   0.114 -0.0875 -0.5388 -0.3663
14742TIP3    H165641   3.304   2.412   0.026 -1.8868  1.9513 -1.5835
14742TIP3    H265642   3.281   2.517   0.132  0.0282 -0.9562  1.9494
14743TIP3   OH265643   2.729   1.467   2.851 -0.4289 -0.3044 -0.0890
14743TIP3    H165644   2.764   1.411   2.782 -1.1502 -0.0272 -0.6893
14743TIP3    H265645   2.784   1.447   2.927  0.0418 -0.9990 -0.5899
14744TIP3   OH265646   5.546   6.539   3.695 -0.2558 -0.0352  0.1446
14744TIP3    H165647   5.610   6.596   3.652 -0.1661 -1.9183 -2.5121
14744TIP3    H265648   5.476   6.528   3.630 -1.9689 -0.2184  1.9241
14745TIP3   OH265649   5.970   6.650  17.266 -0.5882  0.1668  0.0407
14745TIP3    H165650   5.954   6.562  17.231  1.5280 -0.1789 -0.2048
14745TIP3    H265651   5.935   6.646  17.355 -2.7223 -0.1086 -0.7590
14746TIP3   OH265652   6.609   3.110   0.811 -0.3767 -0.6422 -1.0758
14746TIP3    H165653   6.655   3.039   0.855 -0.5470  1.7033  3.5326
14746TIP3    H265654   6.679   3.168   0.780 -0.2115 -0.2482  0.0146
14747TIP3   OH265655   1.741   0.350   4.585  0.1875 -0.2668 -0.0737
14747TIP3    H165656   1.702   0.263   4.595  0.1187 -0.2421 -0.1255
14747TIP3    H265657   1.835   0.333   4.581  0.2180 -0.2772  0.5980
14748TIP3   OH265658   0.923   3.297   2.600 -0.6262 -0.3308  0.0231
14748TIP3    H165659   0.990   3.321   2.664  0.2767  1.3893 -1.4476
14748TIP3    H265660   0.939   3.205   2.581  0.8037 -0.1665  0.3342
14749TIP3   OH265661   2.521   4.418   6.545 -0.1569 -0.1767  0.0734
14749TIP3    H165662   2.547   4.410   6.454 -0.4792  0.9262 -0.1314
14749TIP3    H265663   2.543   4.334   6.584  0.1407 -0.5985 -0.9780
14750TIP3   OH265664   2.793   0.244  15.592 -0.2970  0.2987  0.0740
14750TIP3    H165665   2.868   0.249  15.651 -0.9283  0.8404  0.8480
14750TIP3    H265666   2.792   0.153  15.562  0.4514  0.1974  0.3319
14751TIP3   OH265667   4.730   0.350  12.202 -0.5122  0.2086 -0.4087
14751TIP3    H165668   4.673   0.360  12.278 -3.9260  0.5410 -2.7505
14751TIP3    H265669   4.784   0.429  12.201  0.0394 -0.0716  1.8882
14752TIP3   OH265670   6.597   1.518   4.716  0.0674 -0.3044 -0.3351
14752TIP3    H165671   6.559   1.450   4.661 -0.1503 -0.6790  0.2653
14752TIP3    H265672   6.545   1.596   4.696 -1.1609 -0.8421  0.5739
14753TIP3   OH265673   0.338   3.220  15.172 -0.1362  0.4029 -0.0597
14753TIP3    H165674   0.305   3.196  15.259 -2.6958  1.5220 -0.6280
14753TIP3    H265675   0.372   3.309  15.184  1.8237 -0.3504  0.2833
14754TIP3   OH265676   0.371   6.540   3.162 -0.0084  0.2807 -0.0597
14754TIP3    H165677   0.450   6.587   3.134  0.3728 -0.0750  0.3975
14754TIP3    H265678   0.402   6.451   3.181 -0.7487 -0.2217 -1.1069
14755TIP3   OH265679   2.709   2.312   1.855  0.3996 -0.3426  0.5794
14755TIP3    H165680   2.725   2.248   1.785 -0.2755  0.4396 -0.3215
14755TIP3    H265681   2.710   2.261   1.935 -1.8460 -1.8023 -0.2343
14756TIP3   OH265682   5.101   5.405  16.060  0.4596  0.0868 -0.4284
14756TIP3    H165683   5.131   5.342  16.125 -1.3324 -0.2533  0.1236
14756TIP3    H265684   5.116   5.490  16.101 -0.0758 -0.1062  0.1928
14757TIP3   OH265685   4.957   6.561  12.126 -0.1934  0.1763 -0.1470
14757TIP3    H165686   5.006   6.557  12.044 -0.2013  0.1011 -0.1485
14757TIP3    H265687   4.865   6.564  12.098 -0.1733  0.7600 -0.1530
14758TIP3   OH265688   0.244   2.789  11.224  0.1712 -0.8248 -0.1264
14758TIP3    H165689   0.276   2.737  11.298 -0.3420 -0.6518  0.2243
14758TIP3    H265690   0.322   2.808  11.173  1.0891  1.6886  2.0198
14759TIP3   OH265691   5.577   4.939  14.124  0.0728  0.7553 -0.1406
14759TIP3    H165692   5.584   4.862  14.180  2.0873  0.7267 -0.3825
14759TIP3    H265693   5.544   4.905  14.040 -0.9253  0.4772  0.3548
14760TIP3   OH265694   6.235   1.692   3.814 -1.1921  0.0242 -0.2164
14760TIP3    H165695   6.146   1.710   3.786 -0.6281 -2.3799 -4.3488
14760TIP3    H265696   6.286   1.767   3.785 -1.3393 -0.3689 -1.5524
14761TIP3   OH265697   1.411   2.775   6.470  0.3869  0.0508 -0.6923
14761TIP3    H165698   1.385   2.867   6.473 -0.0427 -0.0977  1.8048
14761TIP3    H265699   1.493   2.775   6.419  0.5421  1.8515 -0.4952
14762TIP3   OH265700   1.091   0.600  16.935  0.3287  0.2491  0.1667
14762TIP3    H165701   1.132   0.514  16.943  0.0556  0.1257  0.2718
14762TIP3    H265702   1.156   0.661  16.969  0.2539  0.0108  0.7538
14763TIP3   OH265703   1.009   4.775   4.486 -0.6236  0.1462 -0.2628
14763TIP3    H165704   0.971   4.694   4.451  4.3078 -2.9588  0.5951
14763TIP3    H265705   1.018   4.759   4.580  1.5212  1.1096 -0.2418
14764TIP3   OH265706   1.423   4.015  15.175 -0.6306 -0.5950 -0.5055
14764TIP3    H165707   1.344   4.043  15.128 -0.7708 -0.3683 -0.1448
14764TIP3    H265708   1.494   4.028  15.113 -0.7683  0.0380 -0.5371
14765TIP3   OH265709   6.328   4.554  13.201 -0.0822  0.0797 -0.2474
14765TIP3    H165710   6.393   4.617  13.170 -0.3721  1.0903  1.1016
14765TIP3    H265711   6.378   4.489  13.250 -0.1445  1.7974  2.3012
14766TIP3   OH265712   6.157   4.282  15.753 -0.3378 -0.3068  0.3797
14766TIP3    H165713   6.084   4.257  15.697 -0.0831  1.3370 -0.7673
14766TIP3    H265714   6.117   4.341  15.818 -0.4117 -1.2458  1.2166
14767TIP3   OH265715   4.406   3.030   2.494  0.0549  0.5782 -0.5005
14767TIP3    H165716   4.401   2.966   2.565  0.4902  1.8714  0.7604
14767TIP3    H265717   4.425   2.979   2.416  1.6565 -0.7216  0.6741
14768TIP3   OH265718   0.149   2.312  13.430  0.4681 -0.3432 -0.3498
14768TIP3    H165719   0.110   2.310  13.342  0.0237  0.5572 -0.1853
14768TIP3    H265720   0.135   2.224  13.465 -1.9523  0.0992 -0.0749
14769TIP3   OH265721   6.304   4.679  14.896 -0.2539 -0.7004  0.0527
14769TIP3    H165722   6.244   4.680  14.822 -1.1984 -1.0430  0.7998
14769TIP3    H265723   6.356   4.599  14.884 -0.9115 -1.1484  0.1542
14770TIP3   OH265724   5.222   0.406  16.627 -0.0664 -0.5299  0.1301
14770TIP3    H165725   5.273   0.477  16.587 -1.6668  1.2784  1.1586
14770TIP3    H265726   5.208   0.344  16.556  0.7798  0.5177 -0.9916
14771TIP3   OH265727   0.284   1.597  15.732  0.2287 -0.2470  0.3479
14771TIP3    H165728   0.314   1.633  15.816 -3.0687 -1.5814  2.3053
14771TIP3    H265729   0.223   1.663  15.699 -0.3199 -0.7908  0.2617
14772TIP3   OH265730   2.632   3.372   2.259  0.1872  0.5455  0.0985
14772TIP3    H165731   2.596   3.398   2.175  0.1313  0.7550  0.1854
14772TIP3    H265732   2.595   3.434   2.322 -0.2978 -0.0240  0.3828
14773TIP3   OH265733   6.514   5.151  15.779 -0.7957 -0.5029 -0.4883
14773TIP3    H165734   6.574   5.144  15.705 -0.1860  0.0410 -0.0506
14773TIP3    H265735   6.442   5.205  15.747 -0.2062  0.3047 -0.4876
14774TIP3   OH265736   6.492   4.085   3.213  0.0813  0.0955 -0.3678
14774TIP3    H165737   6.498   4.100   3.307 -1.0082  3.2098 -0.6981
14774TIP3    H265738   6.551   4.149   3.173  0.8158 -1.4070 -1.8438
14775TIP3   OH265739   5.796   3.406   5.405 -0.6887  0.5247  0.5553
14775TIP3    H165740   5.758   3.327   5.367 -2.3081  0.9593  1.1667
14775TIP3    H265741   5.881   3.416   5.361 -1.8881  0.3151 -2.0221
14776TIP3   OH265742   5.272   2.231  16.623 -0.4530  0.3390  0.6287
14776TIP3    H165743   5.288   2.311  16.573 -0.1119 -0.5604 -0.7567
14776TIP3    H265744   5.358   2.207  16.657 -0.2673 -0.2440 -0.2294
14777TIP3   OH265745   3.815   4.529   7.031 -0.3546  0.1578 -0.6244
14777TIP3    H165746   3.813   4.598   6.964 -0.4583 -0.2916 -1.0844
14777TIP3    H265747   3.885   4.470   7.003  0.2348  0.4558  0.1621
14778TIP3   OH265748   3.247   4.651   2.227 -0.4511 -0.1495 -0.3256
14778TIP3    H165749   3.328   4.650   2.279 -0.7965 -3.1317  0.3217
14778TIP3    H265750   3.190   4.711   2.275  1.0492  1.3960 -0.3526
14779TIP3   OH265751   0.667   0.686   4.720  0.9779  0.0810  0.4925
14779TIP3    H165752   0.600   0.723   4.662 -1.1473 -0.6636  2.3159
14779TIP3    H265753   0.749   0.724   4.689 -0.5472  3.0733 -0.3387
14780TIP3   OH265754   1.839   1.258  15.042 -0.0097  0.6879  0.3659
14780TIP3    H165755   1.816   1.215  14.959 -1.1671  1.7974  0.0804
14780TIP3    H265756   1.758   1.298  15.071  0.4320  0.4676  1.9730
14781TIP3   OH265757   2.614   0.796  11.309  0.4358 -0.4463  0.7371
14781TIP3    H165758   2.555   0.853  11.358 -0.2543 -0.7748  0.2877
14781TIP3    H265759   2.701   0.831  11.329  0.4276 -1.9386  4.0700
14782TIP3   OH265760   6.342   3.009   4.945  0.1307  0.0521 -0.6684
14782TIP3    H165761   6.327   3.098   4.977  0.8112 -0.9717  2.8199
14782TIP3    H265762   6.422   3.016   4.892  1.0434  1.2911  0.7963
14783TIP3   OH265763   5.563   6.208   5.324 -0.2723 -0.0380 -0.3517
14783TIP3    H165764   5.503   6.145   5.365 -0.4784  0.1315 -0.3930
14783TIP3    H265765   5.634   6.154   5.291 -0.7198 -0.3129 -0.8758
14784TIP3   OH265766   0.036   3.858   2.413 -0.4917 -0.4202  1.1326
14784TIP3    H165767   0.016   3.878   2.321 -1.6720 -1.6977  1.0797
14784TIP3    H265768   0.128   3.831   2.413 -0.6302 -0.9302  0.2230
14785TIP3   OH265769   3.152   5.174  13.141 -0.1297 -0.0162 -0.0121
14785TIP3    H165770   3.079   5.118  13.114 -0.2036  0.2250 -0.3300
14785TIP3    H265771   3.127   5.206  13.227 -0.8953  0.8927 -0.5536
14786TIP3   OH265772   2.070   0.073   6.179 -0.0805 -0.2013 -0.5117
14786TIP3    H165773   2.133   0.099   6.247  0.3871  2.2176 -1.7482
14786TIP3    H265774   1.998   0.135   6.188 -1.6701 -2.0184 -0.0756
14787TIP3   OH265775   2.904   4.424   3.926  0.3270 -0.1001 -0.5364
14787TIP3    H165776   2.894   4.419   4.021  1.8637 -1.7758 -0.4036
14787TIP3    H265777   2.815   4.421   3.893 -0.3612  2.1233  0.8341
14788TIP3   OH265778   5.510   0.035   1.945 -0.4212  0.5833 -0.2818
14788TIP3    H165779   5.458   0.026   2.025  1.0190  0.9753  0.7316
14788TIP3    H265780   5.569  -0.041   1.945 -0.1461  0.7901 -0.7676
14789TIP3   OH265781   3.461   6.527  13.460  0.5764 -0.7876  0.6646
14789TIP3    H165782   3.445   6.474  13.538  1.3646 -0.2409  1.2106
14789TIP3    H265783   3.541   6.576  13.480 -0.8339  1.6182  0.7121
14790TIP3   OH265784   1.239   4.664  13.611 -0.7924 -0.2044  0.7886
14790TIP3    H165785   1.260   4.577  13.646  2.1390  0.5767  1.3112
14790TIP3    H265786   1.319   4.691  13.565 -0.8328  2.9579  2.2667
14791TIP3   OH265787   4.020   6.309   2.502 -0.8010  0.3109 -0.1820
14791TIP3    H165788   3.965   6.292   2.578 -0.8747  1.4613  0.0439
14791TIP3    H265789   4.051   6.398   2.515  0.8224 -0.1848 -0.4959
14792TIP3   OH265790   0.625   4.128  16.772 -0.2953 -0.4541  0.5944
14792TIP3    H165791   0.689   4.198  16.785 -0.0444 -0.4913 -0.3802
14792TIP3    H265792   0.557   4.146  16.837  0.8953 -0.6614  1.9560
14793TIP3   OH265793   4.079   2.535   2.339 -0.6532  0.3911 -0.2855
14793TIP3    H165794   4.153   2.596   2.346 -0.1925 -0.0292 -1.2534
14793TIP3    H265795   4.119   2.452   2.311 -1.1959 -0.5226  1.5169
14794TIP3   OH265796   2.074   1.213  11.493 -0.9641 -0.3227 -0.2422
14794TIP3    H165797   2.007   1.247  11.552 -1.7588 -0.9033 -0.7950
14794TIP3    H265798   2.025   1.176  11.420 -0.2799 -4.2791  1.1045
14795TIP3   OH265799   4.289   2.933   1.667 -0.3593  0.3346  0.1499
14795TIP3    H165800   4.360   2.930   1.604  0.6577  1.8838  1.1531
14795TIP3    H265801   4.305   3.013   1.717 -1.8452 -0.1862  1.5339
14796TIP3   OH265802   5.453   5.380  16.382 -0.4832 -0.4847 -0.4599
14796TIP3    H165803   5.487   5.333  16.458 -2.7344 -0.8426  0.3901
14796TIP3    H265804   5.423   5.464  16.418  0.3593  0.2106 -1.3524
14797TIP3   OH265805   5.908   0.648  12.313  0.3907  0.3983 -0.1713
14797TIP3    H165806   5.821   0.665  12.278  0.5594  0.8248 -0.3956
14797TIP3    H265807   5.925   0.556  12.292  0.2174  0.4650 -0.6152
14798TIP3   OH265808   2.211   2.420   2.275 -0.3719  0.1783  0.2094
14798TIP3    H165809   2.177   2.364   2.205  0.2501 -0.8137  0.6805
14798TIP3    H265810   2.153   2.403   2.349 -1.1099  1.3247 -0.0730
14799TIP3   OH265811   4.096   0.271  15.013 -0.0228 -0.2883 -0.4281
14799TIP3    H165812   4.156   0.325  15.065 -0.3131 -0.0432 -0.3461
14799TIP3    H265813   4.048   0.220  15.078  0.0766 -0.4619 -0.4919
14800TIP3   OH265814   2.422   4.909  16.996  0.2437  0.1914  0.6814
14800TIP3    H165815   2.401   4.850  17.068  0.4846 -0.5630  0.1461
14800TIP3    H265816   2.351   4.894  16.932 -0.4293  1.4596  1.1012
14801TIP3   OH265817   1.880   2.860  10.861  0.4436 -0.0175 -0.1649
14801TIP3    H165818   1.874   2.806  10.783 -2.0465  1.0254 -0.7835
14801TIP3    H265819   1.973   2.882  10.868  1.3089 -3.0246 -0.7411
14802TIP3   OH265820   5.294   6.651   1.692  0.2939  0.6443 -0.1344
14802TIP3    H165821   5.207   6.621   1.667 -0.4049  2.3381  0.1886
14802TIP3    H265822   5.347   6.571   1.694 -0.8285 -0.2100 -1.9875
14803TIP3   OH265823   5.503   2.766  16.186 -1.0144  0.1584 -0.1679
14803TIP3    H165824   5.426   2.751  16.240  0.3315 -1.7977  1.3627
14803TIP3    H265825   5.485   2.720  16.104 -0.0176 -3.9136  1.6575
14804TIP3   OH265826   3.366   6.090  17.111 -0.0199  0.2799 -1.0087
14804TIP3    H165827   3.325   6.017  17.064 -0.7031  1.0484 -1.6585
14804TIP3    H265828   3.352   6.071  17.203  0.4953 -0.7925 -1.1464
14805TIP3   OH265829   1.180   0.712  12.517  0.1297 -0.1884  0.1615
14805TIP3    H165830   1.256   0.658  12.541 -0.3997 -0.4133  1.3964
14805TIP3    H265831   1.112   0.649  12.494 -0.0009 -0.0011  0.0292
14806TIP3   OH265832   5.383   3.903   1.404 -0.0514 -0.2413  0.4718
14806TIP3    H165833   5.332   3.826   1.377  0.0771  0.5221 -2.1455
14806TIP3    H265834   5.473   3.881   1.381 -0.0213  0.6757 -0.3257
14807TIP3   OH265835   5.999   2.768   3.995 -0.3954  0.4068  0.0680
14807TIP3    H165836   5.935   2.781   4.065 -1.7427  0.1380 -1.0428
14807TIP3    H265837   6.082   2.795   4.032 -0.5862 -2.0453  2.5972
14808TIP3   OH265838   4.657   5.761  14.515  0.7038 -0.1958  0.0674
14808TIP3    H165839   4.699   5.698  14.457 -0.1670 -0.5656 -0.1651
14808TIP3    H265840   4.580   5.715  14.549 -0.3147  0.9763 -0.6291
14809TIP3   OH265841   2.161   3.554  12.651  0.1309  0.1251  0.3472
14809TIP3    H165842   2.241   3.599  12.680  2.0182 -1.3996 -2.0979
14809TIP3    H265843   2.177   3.534  12.559 -2.9693 -0.6104 -0.1415
14810TIP3   OH265844   4.103   5.681  12.308 -0.4297 -0.4204  0.6600
14810TIP3    H165845   4.190   5.651  12.332  1.3353  1.8263 -2.1363
14810TIP3    H265846   4.107   5.776  12.317 -1.6641 -0.0299 -1.9046
14811TIP3   OH265847   3.552   5.386   4.627 -0.0653 -0.1014  0.3216
14811TIP3    H165848   3.533   5.336   4.706 -0.9284  1.2330  1.0158
14811TIP3    H265849   3.542   5.324   4.555 -1.9711 -0.7329  1.0753
14812TIP3   OH265850   4.027   5.132  15.090 -0.1997 -0.2491 -0.2013
14812TIP3    H165851   3.986   5.067  15.033  0.0484  0.4890 -1.2465
14812TIP3    H265852   3.989   5.215  15.062  1.4749  0.3709 -0.7531
14813TIP3   OH265853   2.203   0.243  16.272 -0.0016  0.1797 -0.0010
14813TIP3    H165854   2.144   0.214  16.202 -0.7824  1.2264  0.2066
14813TIP3    H265855   2.145   0.276  16.340  0.7913  3.2763 -0.6698
14814TIP3   OH265856   6.525   5.850  16.419  0.2539  0.1838  0.7797
14814TIP3    H165857   6.606   5.802  16.430 -0.5951 -1.7502 -0.7396
14814TIP3    H265858   6.545   5.939  16.448  2.5904 -0.4792  1.3824
14815TIP3   OH265859   5.328   5.863  14.886  0.6694  0.2003 -0.5463
14815TIP3    H165860   5.279   5.783  14.906  0.7624 -0.1504 -1.6597
14815TIP3    H265861   5.278   5.932  14.930 -0.8244 -0.1505 -1.5952
14816TIP3   OH265862   4.085   2.864  11.941  0.6128 -0.1352  0.2414
14816TIP3    H165863   4.113   2.788  11.889  1.6395  1.6312 -1.9165
14816TIP3    H265864   4.039   2.825  12.016  0.9129 -2.8731 -0.8694
14817TIP3   OH265865   2.410   3.581  11.429 -0.5316 -0.5334 -0.2876
14817TIP3    H165866   2.354   3.505  11.417 -0.0662 -0.9960  0.4347
14817TIP3    H265867   2.372   3.628  11.503 -1.0364  0.1486 -0.9651
14818TIP3   OH265868   4.233   4.486  13.265 -0.1780  0.4547  0.3487
14818TIP3    H165869   4.251   4.578  13.285 -0.9116  0.1785  2.5551
14818TIP3    H265870   4.156   4.489  13.207  0.4753  1.2435 -0.5084
14819TIP3   OH265871   0.982   0.209  11.136 -0.3177  0.4261  0.0512
14819TIP3    H165872   1.048   0.202  11.205 -0.1239 -1.4288 -0.2661
14819TIP3    H265873   0.903   0.171  11.175 -0.6876  0.9169 -0.2039
14820TIP3   OH265874   1.185   2.562   2.261  0.1723  0.3405 -0.0111
14820TIP3    H165875   1.155   2.652   2.270 -0.6017  0.1064 -0.1486
14820TIP3    H265876   1.175   2.525   2.349 -1.3691 -0.1495 -0.3571
14821TIP3   OH265877   4.292   1.650   2.645  0.0501 -0.2515 -0.1365
14821TIP3    H165878   4.358   1.657   2.575  1.4669  1.2573  1.2633
14821TIP3    H265879   4.239   1.729   2.635  1.0527  0.6344  1.1998
14822TIP3   OH265880   5.001   0.651   2.179  0.3047 -0.1559 -0.0881
14822TIP3    H165881   5.038   0.739   2.173 -0.2321 -0.0144 -2.1394
14822TIP3    H265882   5.077   0.595   2.197  0.7241  0.6522  0.7735
14823TIP3   OH265883   5.828   2.242  13.730 -0.6418  0.3618  0.3732
14823TIP3    H165884   5.803   2.194  13.809 -0.4547 -0.2866  0.0466
14823TIP3    H265885   5.758   2.306  13.717 -1.2082 -0.2337  0.4718
14824TIP3   OH265886   4.336   6.654  15.429  0.1303 -0.6100 -0.6449
14824TIP3    H165887   4.253   6.608  15.441 -0.2478 -0.3359 -2.0490
14824TIP3    H265888   4.311   6.746  15.417  0.6690 -0.4662 -0.7081
14825TIP3   OH265889   6.387   6.270  13.959 -0.2642  0.1200  0.4882
14825TIP3    H165890   6.298   6.238  13.940 -0.4279  0.0894  1.2896
14825TIP3    H265891   6.379   6.317  14.042  0.8135 -1.4887  1.5723
14826TIP3   OH265892   1.339   0.638  10.503  0.2330  0.7311  0.1664
14826TIP3    H165893   1.407   0.571  10.502 -0.6419 -0.2556 -2.3608
14826TIP3    H265894   1.270   0.601  10.559 -0.2634 -0.5759 -1.2419
14827TIP3   OH265895   0.754   5.935   0.016 -0.9168  0.2002  0.1590
14827TIP3    H165896   0.715   5.989  -0.053 -1.7839  0.0815  0.5452
14827TIP3    H265897   0.679   5.906   0.069 -0.2123  0.8249  1.5351
14828TIP3   OH265898   3.117   5.035   1.862 -0.3154  0.4196 -0.3623
14828TIP3    H165899   3.149   5.125   1.872 -0.2421  0.3138  0.3651
14828TIP3    H265900   3.197   4.982   1.858 -0.3697  0.2725  0.3459
14829TIP3   OH265901   6.713   5.589  14.265 -0.6246 -0.3425 -0.2912
14829TIP3    H165902   6.726   5.641  14.186 -0.4559  1.1744  0.7049
14829TIP3    H265903   6.802   5.568  14.294 -0.6896 -1.1904 -0.6645
14830TIP3   OH265904   2.111   5.437  15.396 -0.7912 -0.5076 -0.0189
14830TIP3    H165905   2.169   5.362  15.382  1.0536  1.1827 -2.2316
14830TIP3    H265906   2.140   5.474  15.480  0.6333 -0.3601 -0.5381
14831TIP3   OH265907   0.740   1.522   1.052  0.3127  0.0386  0.0160
14831TIP3    H165908   0.781   1.437   1.036 -0.5969 -0.8120  1.9188
14831TIP3    H265909   0.804   1.585   1.020  0.2718 -1.3298 -3.0984
14832TIP3   OH265910   0.742   4.037  14.319  0.4068  0.3123 -0.3706
14832TIP3    H165911   0.751   4.094  14.243 -0.9950  1.9187  0.6065
14832TIP3    H265912   0.832   4.012  14.341  0.9708  1.3034 -1.4509
14833TIP3   OH265913   5.705   4.870   4.151 -0.0247 -0.5427 -0.0815
14833TIP3    H165914   5.779   4.847   4.208  0.9303 -0.7009 -1.3303
14833TIP3    H265915   5.673   4.786   4.118 -0.7307 -0.4680  0.3901
14834TIP3   OH265916   3.438   6.670  11.455  0.0260 -0.2265 -0.1879
14834TIP3    H165917   3.364   6.689  11.398 -0.4165 -0.3838  0.3219
14834TIP3    H265918   3.483   6.598  11.412 -0.9053 -1.0532  0.1719
14835TIP3   OH265919   0.126   5.395  11.253 -0.4046 -0.2292 -0.6428
14835TIP3    H165920   0.128   5.338  11.330 -2.6306 -0.2603 -0.5653
14835TIP3    H265921   0.064   5.353  11.193  0.7389  0.1770 -2.1867
14836TIP3   OH265922   5.258   6.526  13.305  0.9801  0.1818 -0.0436
14836TIP3    H165923   5.193   6.524  13.375  1.0183 -0.4836 -0.0202
14836TIP3    H265924   5.331   6.576  13.341  0.8654  0.1233  0.2731
14837TIP3   OH265925   3.020   4.765   1.839 -0.5207  0.0032  0.3076
14837TIP3    H165926   2.996   4.839   1.783  0.5503 -0.9325 -1.4968
14837TIP3    H265927   3.112   4.781   1.861 -0.9460  0.3850  1.9023
14838TIP3   OH265928   4.313   2.946  16.576 -0.0695 -0.0198 -0.3972
14838TIP3    H165929   4.366   2.967  16.653  0.3360  1.3291 -1.0146
14838TIP3    H265930   4.376   2.924  16.508 -0.4100 -0.7104 -0.5044
14839TIP3   OH265931   3.355   6.057  12.847  0.5689  0.1896  0.2915
14839TIP3    H165932   3.425   6.119  12.826 -1.1024  1.3086 -2.5951
14839TIP3    H265933   3.331   6.018  12.763 -1.0486 -1.5157  1.4601
14840TIP3   OH265934   1.208   0.497  12.908 -0.3085 -0.6224  0.0728
14840TIP3    H165935   1.158   0.449  12.843 -2.7659  0.4811  1.0496
14840TIP3    H265936   1.183   0.588  12.896  0.8164 -0.1325  1.1875
14841TIP3   OH265937   4.298   5.013  15.281  0.4603 -0.3306 -0.7695
14841TIP3    H165938   4.369   4.988  15.221  0.3149 -0.9586 -0.6929
14841TIP3    H265939   4.229   5.048  15.225  0.1625 -1.2917 -1.0205
14842TIP3   OH265940   6.541   4.734   5.683 -0.3591 -0.4194  0.6792
14842TIP3    H165941   6.493   4.740   5.600  0.5754  0.7201  0.1875
14842TIP3    H265942   6.491   4.672   5.735  0.1773 -2.8286 -1.4952
14843TIP3   OH265943   1.115   3.292  15.251  0.2815  0.5148  0.3650
14843TIP3    H165944   1.087   3.310  15.341 -0.9338  0.3776  0.0186
14843TIP3    H265945   1.157   3.206  15.256  2.6616  1.6120  1.2816
14844TIP3   OH265946   2.666   4.886   0.306 -0.3623 -0.0778  0.1843
14844TIP3    H165947   2.631   4.902   0.218 -0.3436  0.1337  0.2132
14844TIP3    H265948   2.599   4.923   0.364  0.8231  2.2262  0.2001
14845TIP3   OH265949   1.549   1.976   5.089 -0.1736  0.2760 -0.1332
14845TIP3    H165950   1.500   1.982   5.171  2.0523 -1.2886  1.4185
14845TIP3    H265951   1.482   1.960   5.023 -1.9106 -0.1355  1.6264
14846TIP3   OH265952   0.476   0.925  15.890 -0.2692  0.2147  0.2913
14846TIP3    H165953   0.527   0.951  15.814  1.8265 -0.0095  1.5411
14846TIP3    H265954   0.480   1.001  15.948 -0.1779 -0.3085  0.9817
14847TIP3   OH265955   2.832   2.546  16.222 -0.3008  0.5447  0.1798
14847TIP3    H165956   2.855   2.621  16.167  1.3410  0.1047  0.2108
14847TIP3    H265957   2.851   2.469  16.168  3.4896  0.0021  1.9288
14848TIP3   OH265958   4.315   3.515   1.858  0.1323 -0.0539 -0.0339
14848TIP3    H165959   4.252   3.576   1.896  0.5283 -0.4835  1.3631
14848TIP3    H265960   4.368   3.486   1.932  1.5527 -0.2113 -1.0662
14849TIP3   OH265961   4.965   5.048  13.393  0.2324 -0.0089 -0.1727
14849TIP3    H165962   5.032   4.993  13.353 -0.6076 -1.9474  0.9162
14849TIP3    H265963   4.988   5.051  13.486 -0.5738  0.2164  0.0323
14850TIP3   OH265964   4.880   0.662   5.422  0.5013  0.2482 -0.3777
14850TIP3    H165965   4.860   0.600   5.492 -0.7444  0.1071 -0.8132
14850TIP3    H265966   4.965   0.699   5.445  0.6887 -0.7017  0.5458
14851TIP3   OH265967   5.587   5.288   4.761 -0.6731  0.3707  0.1641
14851TIP3    H165968   5.608   5.306   4.669 -2.7258 -1.0116 -0.6719
14851TIP3    H265969   5.493   5.268   4.760 -0.7949  0.5209  2.6200
14852TIP3   OH265970   5.049   3.295   1.183 -0.0931 -0.8170  0.1316
14852TIP3    H165971   5.040   3.336   1.097  1.8434 -1.5768 -0.4884
14852TIP3    H265972   5.108   3.221   1.168 -1.7399 -2.5143  1.6405
14853TIP3   OH265973   4.001   4.456   5.562 -0.2697  1.0990  0.0736
14853TIP3    H165974   3.998   4.376   5.510 -0.1174  1.0692  0.1088
14853TIP3    H265975   3.930   4.511   5.527 -0.0869  1.1319 -0.2492
14854TIP3   OH265976   2.930   1.011   4.490  0.2894 -0.1203  0.6921
14854TIP3    H165977   2.943   1.043   4.401 -1.8269  0.4099  0.5195
14854TIP3    H265978   3.014   1.025   4.533  1.6316 -1.1382 -1.4095
14855TIP3   OH265979   6.188   0.516   2.767 -0.1427  0.3213 -0.5400
14855TIP3    H165980   6.212   0.489   2.856 -0.1930  0.6350 -0.4294
14855TIP3    H265981   6.216   0.444   2.711 -0.2695  0.0451 -0.2483
14856TIP3   OH265982   1.560   2.000   3.822  0.5370  0.1889  0.1181
14856TIP3    H165983   1.490   2.043   3.872 -1.9466  0.5679 -3.2878
14856TIP3    H265984   1.620   2.071   3.799 -0.0611  0.6340 -0.1005
14857TIP3   OH265985   3.815   1.985  12.832  0.4074  0.0043  0.3322
14857TIP3    H165986   3.780   2.071  12.854  0.4800  0.6745 -1.9385
14857TIP3    H265987   3.767   1.924  12.889  0.4258  1.5124  2.0469
14858TIP3   OH265988   5.206   4.705   3.735  0.3226  0.6213  0.1177
14858TIP3    H165989   5.279   4.658   3.696  0.7008  0.5361  0.9210
14858TIP3    H265990   5.168   4.755   3.662  1.0787  0.5446 -0.3355
14859TIP3   OH265991   2.291   3.901   2.435 -0.4955  0.0185  0.1772
14859TIP3    H165992   2.249   3.928   2.353 -0.0768  0.5483  0.1311
14859TIP3    H265993   2.370   3.954   2.440 -1.0143  0.7066  1.4277
14860TIP3   OH265994   4.672   3.690   5.727  0.0138  0.0314 -0.0549
14860TIP3    H165995   4.651   3.621   5.789 -1.0387  0.2594 -0.1476
14860TIP3    H265996   4.593   3.700   5.674  0.3447  0.9274 -0.3981
14861TIP3   OH265997   2.026   0.790   6.203  0.0023  0.6911  0.1766
14861TIP3    H165998   2.028   0.800   6.298  1.3719  0.7272  0.1637
14861TIP3    H265999   2.006   0.877   6.170  0.6753  0.9331  0.4013
14862TIP3   OH266000   4.678   0.967  15.967 -0.0442  0.3427 -0.4171
14862TIP3    H166001   4.661   0.979  16.061 -0.2409 -1.6695 -0.1382
14862TIP3    H266002   4.681   1.055  15.931 -1.8602  1.1202  1.1645
14863TIP3   OH266003   5.995   3.705   0.137  0.2420  0.5267 -0.5817
14863TIP3    H166004   6.006   3.617   0.174 -1.1636  0.4185 -0.3578
14863TIP3    H266005   6.069   3.716   0.078  1.4564 -0.0772  0.7771
14864TIP3   OH266006   2.663   1.466  17.103 -0.1021 -0.2376  0.1145
14864TIP3    H166007   2.586   1.523  17.104 -1.5955 -2.0903 -1.1795
14864TIP3    H266008   2.667   1.430  17.191 -1.2482 -0.7610 -0.0350
14865TIP3   OH266009   4.425   1.510   4.084 -0.2538 -0.0241  0.3066
14865TIP3    H166010   4.342   1.543   4.116 -0.4258  0.1353 -0.2851
14865TIP3    H266011   4.436   1.551   3.998  0.0504 -0.6615  0.0293
14866TIP3   OH266012   5.201   1.658  12.100 -0.3768  0.1877  0.2343
14866TIP3    H166013   5.116   1.628  12.132 -0.3866 -1.3871 -1.1110
14866TIP3    H266014   5.186   1.677  12.007  0.6158  0.3814  0.1047
14867TIP3   OH266015   5.027   6.242   2.773 -0.0067  0.8428 -0.0593
14867TIP3    H166016   5.061   6.159   2.741  1.6932  0.3350  2.7417
14867TIP3    H266017   4.936   6.222   2.798  0.6229 -0.4900  1.3679
14868TIP3   OH266018   3.676   3.384   3.427 -0.0209 -0.3714  0.4007
14868TIP3    H166019   3.748   3.447   3.432  0.0032 -0.4090  0.5190
14868TIP3    H266020   3.675   3.357   3.335 -0.2226  0.0246  0.2811
14869TIP3   OH266021   1.744   3.181   0.282 -0.2619  0.4737  0.5540
14869TIP3    H166022   1.677   3.125   0.243 -0.5890  0.1623  1.5310
14869TIP3    H266023   1.790   3.123   0.344  2.0372  0.1894 -1.2578
14870TIP3   OH266024   5.845   3.758  15.324 -0.7364  0.4179 -0.6184
14870TIP3    H166025   5.895   3.739  15.404 -0.2194 -0.5990 -1.1589
14870TIP3    H266026   5.829   3.852  15.328 -0.3079  0.4666  0.4506
14871TIP3   OH266027   4.797   0.058  12.337  0.5019  0.0422 -0.0320
14871TIP3    H166028   4.784   0.096  12.250  0.5151  0.9030  0.3330
14871TIP3    H266029   4.857   0.118  12.381 -1.9078  1.4039  1.6738
14872TIP3   OH266030   6.121   5.064  12.603  0.7545 -0.2043 -0.1847
14872TIP3    H166031   6.109   5.038  12.694  3.5035 -0.3243  0.2251
14872TIP3    H266032   6.076   5.148  12.595 -1.3625 -1.1728  0.6360
14873TIP3   OH266033   1.334   6.511   1.739 -0.5034 -0.0679  0.0697
14873TIP3    H166034   1.357   6.421   1.715 -0.0566  0.5225 -1.8385
14873TIP3    H266035   1.412   6.562   1.718 -0.7694  0.7875  1.0944
14874TIP3   OH266036   3.684   5.795  13.450 -0.1879  0.3369 -0.4904
14874TIP3    H166037   3.744   5.743  13.503  1.0546 -0.0846 -2.2086
14874TIP3    H266038   3.740   5.857  13.404 -1.3992  1.7044 -0.2044
14875TIP3   OH266039   2.352   3.431  14.928 -0.3546 -0.6744 -0.4461
14875TIP3    H166040   2.357   3.492  15.001 -0.0138  0.2670 -1.2418
14875TIP3    H266041   2.443   3.408  14.910 -0.1863  1.1459 -2.2362
14876TIP3   OH266042   4.768   1.378   0.436 -0.5423  0.6071 -0.0333
14876TIP3    H166043   4.759   1.359   0.342 -1.2052  1.0754 -0.0705
14876TIP3    H266044   4.688   1.424   0.459 -0.9534 -0.6180  1.0652
14877TIP3   OH266045   6.538   0.393  13.363  0.6589  0.4513 -0.2492
14877TIP3    H166046   6.468   0.407  13.427 -0.1408  0.6533 -1.1429
14877TIP3    H266047   6.492   0.378  13.281  1.6897  2.0158 -1.1486
14878TIP3   OH266048   0.298   4.814  12.160 -0.4900  0.3112  0.8745
14878TIP3    H166049   0.255   4.729  12.143 -0.6194  0.2724  1.3993
14878TIP3    H266050   0.230   4.879  12.140 -0.2647  0.3098  0.0784
14879TIP3   OH266051   3.302   4.402  14.344  0.6564  0.5409  0.6778
14879TIP3    H166052   3.367   4.340  14.375  0.0022 -0.0858  0.8233
14879TIP3    H266053   3.271   4.445  14.424  0.7218  0.6685  0.6345
14880TIP3   OH266054   6.439   1.235   2.994 -0.3492 -0.1221 -0.0768
14880TIP3    H166055   6.468   1.226   2.904 -0.0890  1.1289 -0.1259
14880TIP3    H266056   6.369   1.170   3.003  0.8047 -1.5085 -0.6476
14881TIP3   OH266057   0.512   2.231   0.764  0.0886  0.0408  0.2594
14881TIP3    H166058   0.450   2.281   0.817  2.4599  1.9774  1.4361
14881TIP3    H266059   0.522   2.148   0.810 -1.9644 -0.5533 -0.2733
14882TIP3   OH266060   4.417   0.165   0.878  0.1722 -0.1965  0.1286
14882TIP3    H166061   4.447   0.245   0.834 -2.6795  0.4125 -0.9330
14882TIP3    H266062   4.425   0.097   0.811  1.4451 -0.5942  0.6500
14883TIP3   OH266063   2.033   2.616   0.459 -0.3537 -0.5634  0.6987
14883TIP3    H166064   1.989   2.616   0.544 -1.2016 -1.8239  0.2817
14883TIP3    H266065   1.966   2.647   0.397 -0.1951 -1.0132  0.2915
14884TIP3   OH266066   3.442   5.436  11.960  0.6067 -0.1433  0.4412
14884TIP3    H166067   3.423   5.365  11.898  0.4978  0.7791 -0.6180
14884TIP3    H266068   3.376   5.427  12.028 -2.0255  1.2824 -1.7068
14885TIP3   OH266069   0.589   5.448   1.469 -0.6731  0.6236 -0.3764
14885TIP3    H166070   0.548   5.382   1.525 -1.5602  1.7701  0.3635
14885TIP3    H266071   0.673   5.467   1.510 -0.6983  0.4262 -0.2341
14886TIP3   OH266072   0.167   4.573   4.139  0.3796 -0.2325 -0.2649
14886TIP3    H166073   0.239   4.518   4.106 -0.2091 -2.0694  1.3319
14886TIP3    H266074   0.138   4.622   4.062  1.8744 -1.1024 -1.4538
14887TIP3   OH266075   4.224   3.572  11.531 -0.1499 -0.2926 -0.1836
14887TIP3    H166076   4.192   3.513  11.463 -2.1243  0.2763  0.2081
14887TIP3    H266077   4.146   3.602  11.576  0.9681  1.0106  0.9756
14888TIP3   OH266078   5.702   0.962  13.763 -0.4682  0.4127  0.1098
14888TIP3    H166079   5.628   0.903  13.748  0.2752 -0.6118  0.3989
14888TIP3    H266080   5.746   0.926  13.840  0.9829  0.3378 -0.7259
14889TIP3   OH266081   2.965   1.312  15.113 -0.0709 -0.2155 -0.2767
14889TIP3    H166082   3.044   1.365  15.098 -1.1607  1.4856 -0.2815
14889TIP3    H266083   2.957   1.306  15.208 -0.3866  0.3250 -0.2679
14890TIP3   OH266084   3.104   0.123   5.613 -0.7624 -0.0192  0.0423
14890TIP3    H166085   3.126   0.174   5.691 -1.1571 -2.2674  1.7311
14890TIP3    H266086   3.179   0.066   5.600 -1.4347 -0.9062 -0.0904
14891TIP3   OH266087   6.598   4.798   1.679 -0.0956  0.5642 -0.0392
14891TIP3    H166088   6.559   4.768   1.760  1.4794  0.4130  0.6957
14891TIP3    H266089   6.679   4.842   1.706  0.5051  0.4288 -1.5227
14892TIP3   OH266090   2.841   5.098   3.754  0.6004  0.1934  0.4662
14892TIP3    H166091   2.748   5.113   3.768  1.3817  5.5331  2.3544
14892TIP3    H266092   2.876   5.081   3.841  1.6577  1.2852  0.2869
14893TIP3   OH266093   5.100   4.224  16.675  0.2216 -0.0468 -0.1277
14893TIP3    H166094   5.007   4.230  16.695  0.1544 -0.7365 -0.2069
14893TIP3    H266095   5.117   4.130  16.665  0.8386  0.0978 -0.5253
14894TIP3   OH266096   0.809   0.108   3.354 -0.3177  0.4614 -0.5315
14894TIP3    H166097   0.734   0.123   3.412 -0.1001  2.6111 -0.7532
14894TIP3    H266098   0.857   0.190   3.355  1.5114 -0.5534 -1.1951
14895TIP3   OH266099   5.667   3.676   6.205  0.5059 -0.0155  0.2876
14895TIP3    H166100   5.626   3.659   6.120  1.5687 -0.8637 -0.0853
14895TIP3    H266101   5.600   3.722   6.255  0.7501  3.0444 -1.9224
14896TIP3   OH266102   4.274   0.352   1.375 -0.4839 -0.1077 -0.1518
14896TIP3    H166103   4.367   0.331   1.363 -0.3589  0.0950  0.4270
14896TIP3    H266104   4.270   0.448   1.368 -0.5302 -0.0523  0.5619
14897TIP3   OH266105   4.159   5.816   4.530  0.1648  0.1920 -0.3132
14897TIP3    H166106   4.201   5.731   4.510  0.7217  0.9273 -2.6802
14897TIP3    H266107   4.069   5.806   4.499 -0.5912 -0.3635  1.9069
14898TIP3   OH266108   6.645   3.701   3.863  0.4700 -0.4755  0.3986
14898TIP3    H166109   6.674   3.652   3.786 -1.3752 -1.3658  0.2231
14898TIP3    H266110   6.674   3.648   3.937  0.4575 -0.6870  0.2550
14899TIP3   OH266111   2.062   6.158  16.897  0.5799 -0.0705  0.3570
14899TIP3    H166112   2.065   6.225  16.966 -1.0262  1.0930 -0.6455
14899TIP3    H266113   2.130   6.184  16.836 -1.0406  1.6349 -0.8245
14900TIP3   OH266114   0.498   6.303   1.564 -0.2006  0.2160 -0.4461
14900TIP3    H166115   0.520   6.284   1.473  1.1157  0.4840 -0.2009
14900TIP3    H266116   0.408   6.337   1.561  0.8105  3.0536 -2.0056
14901TIP3   OH266117   4.249   4.518   4.681  0.0362 -0.1462 -0.3194
14901TIP3    H166118   4.237   4.464   4.759  1.4507 -2.5410 -1.6499
14901TIP3    H266119   4.297   4.595   4.712  0.5127 -1.0078  1.1724
14902TIP3   OH266120   2.527   3.576   3.793 -0.1011 -0.2052  0.0817
14902TIP3    H166121   2.599   3.589   3.732 -0.4533  0.4897 -0.1973
14902TIP3    H266122   2.459   3.637   3.764 -0.9866 -1.1870  0.0641
14903TIP3   OH266123   2.429   5.298   4.046 -0.2242 -0.0639 -0.3061
14903TIP3    H166124   2.402   5.377   3.999 -0.1291 -0.6631 -1.4041
14903TIP3    H266125   2.465   5.241   3.978  0.8357 -0.5690  0.6548
14904TIP3   OH266126   3.868   0.107  16.911  0.5083  0.1165 -0.3131
14904TIP3    H166127   3.835   0.196  16.921  2.4852  0.8672 -0.1250
14904TIP3    H266128   3.835   0.060  16.987 -0.3122  0.7465 -0.2632
14905TIP3   OH266129   6.713   1.928  12.664  0.3011 -0.1303  0.4509
14905TIP3    H166130   6.647   1.990  12.634 -2.8841 -3.8075 -0.9994
14905TIP3    H266131   6.682   1.900  12.751  1.3549 -0.1180  0.8434
14906TIP3   OH266132   3.004   2.881   4.172 -0.6772  0.1289  0.3988
14906TIP3    H166133   3.095   2.851   4.168 -0.7131 -0.2584  1.9205
14906TIP3    H266134   2.952   2.803   4.154 -0.7223  0.4782 -1.0778
14907TIP3   OH266135   2.716   2.154   6.273 -0.4189  0.3049 -0.0330
14907TIP3    H166136   2.677   2.202   6.346 -0.0536  2.1394 -0.9619
14907TIP3    H266137   2.800   2.199   6.257  0.7253 -1.6937  0.0503
14908TIP3   OH266138   5.218   1.470   3.970  0.0114  0.4525 -0.2855
14908TIP3    H166139   5.274   1.502   3.900  0.7124  0.5887  0.3313
14908TIP3    H266140   5.247   1.381   3.986 -0.8620  0.0466 -0.8884
14909TIP3   OH266141   0.422   0.962   0.900  0.0972 -0.0245 -0.3435
14909TIP3    H166142   0.385   1.019   0.967  0.5744 -1.7307  1.4742
14909TIP3    H266143   0.510   0.998   0.884  0.1572  0.1384  0.3217
14910TIP3   OH266144   3.552   5.346   2.859 -0.0061 -0.6209 -0.0834
14910TIP3    H166145   3.480   5.374   2.802  0.4479  1.1893  0.1447
14910TIP3    H266146   3.582   5.264   2.821 -2.0751 -1.3573 -0.2659
14911TIP3   OH266147   0.130   6.288  13.353  0.9636  0.6057  0.1423
14911TIP3    H166148   0.036   6.297  13.363  1.1144  0.2218  2.4689
14911TIP3    H266149   0.141   6.205  13.307  0.1641  0.8373 -0.4797
14912TIP3   OH266150   0.687   1.708  15.224 -0.0837 -0.3061  0.6962
14912TIP3    H166151   0.730   1.720  15.309 -0.1268 -0.8504  0.7968
14912TIP3    H266152   0.626   1.782  15.217  2.2970  1.6869 -0.3618
14913TIP3   OH266153   0.712   2.961   2.093 -0.0792  0.2444  0.3617
14913TIP3    H166154   0.778   2.956   2.024 -1.5101 -0.1650 -1.0428
14913TIP3    H266155   0.736   3.039   2.143 -1.2387  3.1084 -3.1069
14914TIP3   OH266156   3.950   4.955  15.278  0.2752 -0.7062  0.0758
14914TIP3    H166157   3.857   4.937  15.292  0.1219 -0.8712 -1.0808
14914TIP3    H266158   3.952   5.020  15.208  0.9629  1.1474  1.7259
14915TIP3   OH266159   2.803   1.644   4.284  0.0061  0.0680 -0.4345
14915TIP3    H166160   2.741   1.679   4.220 -0.8664 -2.6474 -1.2088
14915TIP3    H266161   2.886   1.641   4.237 -0.3220 -0.6217 -0.9772
14916TIP3   OH266162   5.241   0.747   2.464 -0.0404 -0.2103 -0.2739
14916TIP3    H166163   5.309   0.712   2.407  0.9021  2.0025 -0.5922
14916TIP3    H266164   5.233   0.839   2.438 -0.5751  0.5120  2.2274
14917TIP3   OH266165   0.449   2.945  14.890 -0.5466  0.1835  0.0313
14917TIP3    H166166   0.509   2.944  14.815 -1.9966 -0.0338 -1.1714
14917TIP3    H266167   0.484   2.878  14.949  0.9510  0.7572 -0.1458
14918TIP3   OH266168   2.435   0.399   1.739  0.9835 -0.0165  0.2428
14918TIP3    H166169   2.503   0.447   1.787  0.8832 -0.5611  0.9564
14918TIP3    H266170   2.413   0.455   1.665  0.9534  0.9865  0.9918
14919TIP3   OH266171   2.082   3.868   5.229  0.2247 -0.1455 -0.3309
14919TIP3    H166172   2.100   3.956   5.264 -0.3902  0.2957 -1.0956
14919TIP3    H266173   1.992   3.850   5.255  0.0264 -0.1415 -1.0054
14920TIP3   OH266174   5.058   6.321   0.352 -0.3398 -0.4989 -0.7421
14920TIP3    H166175   5.149   6.345   0.368 -0.7975  0.0416  1.4944
14920TIP3    H266176   5.016   6.401   0.322 -0.6088  0.0566  0.9626
14921TIP3   OH266177   5.419   2.612  17.014 -0.4293 -0.3807 -0.2970
14921TIP3    H166178   5.389   2.673  16.947  0.6679  0.1858 -0.2875
14921TIP3    H266179   5.424   2.527  16.969  0.7429  0.0811 -1.0603
14922TIP3   OH266180   0.768   4.040   2.560  0.2975  0.6743 -0.0481
14922TIP3    H166181   0.721   4.014   2.481 -1.3500 -0.1437  1.1255
14922TIP3    H266182   0.794   4.130   2.544  1.0404  0.1614 -1.9670
14923TIP3   OH266183   5.963   5.700   5.775 -0.0040  1.0130 -0.3429
14923TIP3    H166184   6.040   5.732   5.730  2.7525  0.0704  3.2192
14923TIP3    H266185   5.929   5.630   5.719  1.3174  1.9010 -2.3260
14924TIP3   OH266186   3.855   2.541   5.345 -0.0320  0.1471 -0.7862
14924TIP3    H166187   3.834   2.449   5.331 -1.6817  0.8270 -3.9637
14924TIP3    H266188   3.787   2.573   5.403  0.8093 -0.6736  0.6993
14925TIP3   OH266189   3.141   1.670  12.551 -0.5033 -0.0036 -0.1809
14925TIP3    H166190   3.133   1.593  12.607 -5.2899 -0.0304 -0.5004
14925TIP3    H266191   3.191   1.640  12.475  1.4643 -1.4454  1.5813
14926TIP3   OH266192   0.209   4.035  14.487  0.2137  0.2823  0.0162
14926TIP3    H166193   0.232   4.128  14.491 -0.3555  0.4695 -0.7234
14926TIP3    H266194   0.140   4.031  14.421 -0.3836 -0.5463  0.6705
14927TIP3   OH266195   2.860   0.449   1.333  0.2716  0.0899  0.0548
14927TIP3    H166196   2.785   0.400   1.299  0.8925 -0.6756 -0.2350
14927TIP3    H266197   2.857   0.532   1.285 -2.7405  1.8691  2.8892
14928TIP3   OH266198   5.912   0.890  16.398 -0.4485 -0.1313 -0.4879
14928TIP3    H166199   5.977   0.830  16.363 -0.0293 -0.8704  1.4327
14928TIP3    H266200   5.879   0.846  16.476 -2.4948  0.7074 -0.8182
14929TIP3   OH266201   4.324   6.707   4.803  0.4453  0.1069 -0.0547
14929TIP3    H166202   4.306   6.660   4.885  1.5402  0.3844  0.3698
14929TIP3    H266203   4.375   6.646   4.751  3.6385  1.3665  1.2995
14930TIP3   OH266204   0.632   4.370   0.991 -0.1284 -0.3591  0.4977
14930TIP3    H166205   0.701   4.397   1.051 -0.1866  0.7940  0.0748
14930TIP3    H266206   0.551   4.383   1.040 -0.2408  1.4540 -0.0800
14931TIP3   OH266207   1.446   4.385  10.753  0.4312  0.5377 -0.2983
14931TIP3    H166208   1.380   4.333  10.799  0.9427 -0.7635 -0.9868
14931TIP3    H266209   1.433   4.474  10.786  1.6029 -0.4628  3.3037
14932TIP3   OH266210   5.250   4.358  16.480  0.0596  0.0493 -0.0602
14932TIP3    H166211   5.205   4.311  16.550  1.1315 -0.9072  0.0339
14932TIP3    H266212   5.182   4.410  16.437 -0.9056 -0.5393  0.7242
14933TIP3   OH266213   2.450   1.579  16.067 -0.3192  0.2090  0.1699
14933TIP3    H166214   2.517   1.645  16.084  0.7926 -0.9732  0.5218
14933TIP3    H266215   2.476   1.539  15.983 -2.0841  1.5101 -1.0806
14934TIP3   OH266216   6.148   2.376   5.639 -0.0890  0.3483 -0.4478
14934TIP3    H166217   6.068   2.429   5.637 -0.2511  0.1037 -0.5255
14934TIP3    H266218   6.216   2.436   5.667 -0.3823  0.4518  0.0597
14935TIP3   OH266219   2.251   4.325  11.434  0.1543 -0.3893 -0.6386
14935TIP3    H166220   2.217   4.272  11.361 -0.9442  0.3692 -0.6982
14935TIP3    H266221   2.247   4.415  11.402 -1.3391  0.0681  0.6978
14936TIP3   OH266222   2.918   4.701  15.530  0.2517 -0.5995 -0.5200
14936TIP3    H166223   2.918   4.734  15.440  0.2853  0.1421 -0.2625
14936TIP3    H266224   2.996   4.646  15.536  0.3552 -0.4949 -0.8897
14937TIP3   OH266225   2.025   0.323   3.292 -0.1544  0.2004 -0.1644
14937TIP3    H166226   2.072   0.271   3.227 -0.1540  0.4949 -0.3993
14937TIP3    H266227   1.986   0.395   3.243 -3.1650 -1.4829 -0.4457
14938TIP3   OH266228   6.374   4.043  12.922 -0.0355 -0.3237 -0.5382
14938TIP3    H166229   6.312   4.112  12.899  0.1172  0.0690  0.2151
14938TIP3    H266230   6.391   3.999  12.839  0.4513  1.0166 -1.1799
14939TIP3   OH266231   1.331   1.368  12.979  0.5265 -0.1451 -0.0638
14939TIP3    H166232   1.373   1.448  12.948  0.2018  0.4217  0.9023
14939TIP3    H266233   1.401   1.302  12.978  1.4621  0.7714  1.4746
14940TIP3   OH266234   6.263   6.291   4.776 -0.2855  0.1550 -0.0546
14940TIP3    H166235   6.258   6.267   4.684 -1.3172 -1.4755  0.3712
14940TIP3    H266236   6.299   6.213   4.819 -0.0018  0.8153  0.9504
14941TIP3   OH266237   1.677   6.634   4.475  0.0381 -0.1471 -0.4677
14941TIP3    H166238   1.727   6.578   4.415 -1.1798 -0.7089 -1.0037
14941TIP3    H266239   1.610   6.576   4.511 -0.7552  0.7739 -0.4196
14942TIP3   OH266240   3.261   5.925  12.341 -0.1541 -0.3390 -0.0021
14942TIP3    H166241   3.327   5.971  12.289 -0.1190 -1.4083 -0.9404
14942TIP3    H266242   3.189   5.908  12.280 -0.6480 -0.5320  0.6163
14943TIP3   OH266243   4.605   1.809  15.437 -0.0367  1.0213 -0.6138
14943TIP3    H166244   4.684   1.774  15.396  0.4416  1.7156 -0.2940
14943TIP3    H266245   4.625   1.814  15.530 -1.5261 -1.6489 -0.0405
14944TIP3   OH266246   0.705   6.588   3.643 -0.3649  0.1855  0.8822
14944TIP3    H166247   0.788   6.590   3.595 -0.1154 -0.6127  1.2743
14944TIP3    H266248   0.638   6.599   3.575  0.0402  0.3692  0.5074
14945TIP3   OH266249   2.821   4.067   4.524 -0.0640 -0.1722  0.1984
14945TIP3    H166250   2.833   3.988   4.577  2.2370 -1.7534 -2.3806
14945TIP3    H266251   2.779   4.036   4.444  0.1315  1.3767 -0.5397
14946TIP3   OH266252   4.249   4.542   2.501 -0.6487 -0.2292  0.1052
14946TIP3    H166253   4.191   4.590   2.560 -0.5605 -0.1659  0.1406
14946TIP3    H266254   4.215   4.560   2.413 -0.4904  0.0692  0.1036
14947TIP3   OH266255   4.190   0.967   3.079  0.0824  0.0074  0.2087
14947TIP3    H166256   4.153   0.883   3.106 -0.8404 -0.4466 -2.2171
14947TIP3    H266257   4.115   1.026   3.074  0.6087  0.7899  1.0558
14948TIP3   OH266258   0.706   0.705   0.878 -0.6784  0.9742  0.1425
14948TIP3    H166259   0.734   0.776   0.935 -2.1499  0.3082  1.7859
14948TIP3    H266260   0.686   0.747   0.794  1.5910  1.9637  0.0176
14949TIP3   OH266261   6.273   5.254   2.472  0.4416  0.1755 -0.2344
14949TIP3    H166262   6.270   5.165   2.437 -0.4699 -0.5536  1.6086
14949TIP3    H266263   6.355   5.257   2.522 -0.5551 -0.3615  1.4855
14950TIP3   OH266264   0.101   1.714   0.560  0.0864  0.0842 -0.2155
14950TIP3    H166265   0.075   1.682   0.474  0.1206  0.2624 -0.2934
14950TIP3    H266266   0.063   1.801   0.566 -0.0473  0.0121  0.0136
14951TIP3   OH266267   6.296   2.205   4.274  0.0598 -0.0829 -1.0663
14951TIP3    H166268   6.390   2.189   4.264 -0.3706 -1.6732 -3.5212
14951TIP3    H266269   6.274   2.264   4.202 -0.7401  0.8285 -0.1075
14952TIP3   OH266270   3.109   5.620  11.507  0.4182 -0.3679  0.2015
14952TIP3    H166271   3.014   5.611  11.508  0.2547 -0.1297 -3.1051
14952TIP3    H266272   3.128   5.677  11.582 -2.2146  0.8818  0.0565
14953TIP3   OH266273   3.533   6.208   5.082  0.3134 -0.6538  0.1956
14953TIP3    H166274   3.605   6.187   5.023 -0.8222  1.0857 -1.9768
14953TIP3    H266275   3.455   6.208   5.026 -0.8031  1.3085  1.6092
14954TIP3   OH266276   2.050   2.070   6.170 -0.0778 -0.1732 -0.0348
14954TIP3    H166277   1.997   2.024   6.234 -1.2292  0.2740 -0.6344
14954TIP3    H266278   1.996   2.143   6.141  0.8694  0.3134 -0.6683
14955TIP3   OH266279   5.981   3.260   1.903  0.0864  0.2978  0.0822
14955TIP3    H166280   5.984   3.279   1.809 -0.1482  1.6857  0.3350
14955TIP3    H266281   5.899   3.301   1.933  0.0889 -0.2508  0.8632
14956TIP3   OH266282   0.531   1.048  11.130  0.2484  0.0967 -0.0472
14956TIP3    H166283   0.497   1.037  11.219  0.5730  0.4617  0.1274
14956TIP3    H266284   0.539   0.960  11.096 -1.0931 -0.0040 -0.1828
14957TIP3   OH266285   5.888   2.400  15.864 -0.0292  0.5611 -0.1589
14957TIP3    H166286   5.937   2.345  15.803 -0.1631  1.3877 -1.0455
14957TIP3    H266287   5.901   2.489  15.831 -2.0170  0.8235 -0.3711
14958TIP3   OH266288   6.304   4.276  16.025 -0.0096  0.2176  0.5210
14958TIP3    H166289   6.284   4.315  16.110 -0.1250  1.0670  0.1110
14958TIP3    H266290   6.225   4.229  16.000 -0.4913  1.1530  0.2421
14959TIP3   OH266291   1.587   3.884   0.336 -0.3428 -0.4566 -0.8878
14959TIP3    H166292   1.548   3.954   0.390  1.0320 -0.8067  0.6485
14959TIP3    H266293   1.633   3.931   0.266 -0.9579  0.0840 -0.9391
14960TIP3   OH266294   4.223   6.424   1.042 -0.5476 -0.0046 -0.1353
14960TIP3    H166295   4.221   6.329   1.033 -0.9924  0.0922 -1.1371
14960TIP3    H266296   4.190   6.458   0.959  2.0804  1.0695 -0.8712
14961TIP3   OH266297   0.755   1.842  13.827  0.0678 -0.5630 -0.2595
14961TIP3    H166298   0.702   1.799  13.761  0.4553 -0.3953 -0.6857
14961TIP3    H266299   0.845   1.819  13.805  0.2395 -0.0396 -0.1329
14962TIP3   OH266300   1.082   4.455   1.219  0.1397  0.0842 -0.7021
14962TIP3    H166301   1.054   4.408   1.297 -1.2422  0.6762 -0.8119
14962TIP3    H266302   1.158   4.506   1.247  0.3432 -0.5655 -0.0492
14963TIP3   OH266303   0.946   3.731   1.410  0.0372 -0.4539  0.1067
14963TIP3    H166304   0.872   3.761   1.357  0.2080 -2.1610 -1.1945
14963TIP3    H266305   0.954   3.797   1.479 -2.4820 -0.0373  0.1055
14964TIP3   OH266306   5.073   4.368   3.755  0.7354 -0.2041  0.1108
14964TIP3    H166307   5.054   4.274   3.761  0.0532 -0.0728  0.1685
14964TIP3    H266308   5.103   4.392   3.843  1.7908 -0.5408 -0.1470
14965TIP3   OH266309   3.359   5.909   5.942 -0.1445 -0.4521  0.0432
14965TIP3    H166310   3.298   5.983   5.938 -0.0762 -0.4171 -0.4572
14965TIP3    H266311   3.305   5.835   5.971 -0.7799 -0.7552 -1.7360
14966TIP3   OH266312   1.885   0.075   2.667 -0.3734 -1.2786  0.1556
14966TIP3    H166313   1.946   0.054   2.596 -1.6885 -1.3342 -1.0140
14966TIP3    H266314   1.941   0.094   2.742  1.0823 -1.0378 -0.9410
14967TIP3   OH266315   0.131   5.020  11.792 -0.4160  0.3764  0.3504
14967TIP3    H166316   0.216   4.978  11.780 -1.1894 -1.0066 -0.5455
14967TIP3    H266317   0.072   4.949  11.818 -1.5759  1.0487 -0.3383
14968TIP3   OH266318   2.487   1.445   1.304  0.0312  0.1466 -0.5108
14968TIP3    H166319   2.455   1.360   1.334  0.8070 -0.3680 -1.0849
14968TIP3    H266320   2.415   1.505   1.322 -0.0584 -0.3813  1.0685
14969TIP3   OH266321   2.805   3.195   1.086  0.4787  0.0095 -0.1281
14969TIP3    H166322   2.729   3.149   1.051  0.4640 -0.4423  0.4938
14969TIP3    H266323   2.880   3.144   1.056  0.4412 -0.6998  0.9620
14970TIP3   OH266324   6.355   4.138   4.812  0.0245 -0.4127  0.6256
14970TIP3    H166325   6.419   4.159   4.880  2.2111 -1.2302 -1.0716
14970TIP3    H266326   6.358   4.042   4.804 -1.9131 -0.5416  0.9283
14971TIP3   OH266327   0.007   0.740   4.022 -0.3682  0.2546 -0.2037
14971TIP3    H166328   0.020   0.665   4.079  2.9080  2.2254  1.9900
14971TIP3    H266329   0.065   0.724   3.948  0.8510  0.8079  0.5895
14972TIP3   OH266330   5.690   0.371   4.226 -0.7802  0.1134 -0.6415
14972TIP3    H166331   5.744   0.372   4.147  0.1244 -1.9394 -0.1241
14972TIP3    H266332   5.629   0.444   4.215 -0.1595  0.3640 -2.8490
14973TIP3   OH266333   1.746   0.754   5.515 -0.4136  0.2346  0.0373
14973TIP3    H166334   1.778   0.691   5.579  0.9503 -0.3252 -1.1547
14973TIP3    H266335   1.752   0.708   5.431 -3.7525  0.3140 -0.3978
14974TIP3   OH266336   1.618   1.778   3.652  0.1086 -0.1970  0.1078
14974TIP3    H166337   1.713   1.770   3.642 -0.1751 -2.0119 -2.1507
14974TIP3    H266338   1.606   1.842   3.722  2.9790 -0.0100  0.5501
14975TIP3   OH266339   1.313   5.654   0.759  0.1122 -0.3676  0.8278
14975TIP3    H166340   1.376   5.587   0.735 -1.4442 -2.0246  1.1602
14975TIP3    H266341   1.322   5.721   0.691  1.8369 -0.7790  0.6065
14976TIP3   OH266342   4.321   1.735  13.058 -0.3295  0.6997 -0.0200
14976TIP3    H166343   4.270   1.654  13.051  2.7476 -1.2405 -2.8648
14976TIP3    H266344   4.273   1.798  13.004 -0.5344 -0.5971 -1.4091
14977TIP3   OH266345   2.601   4.163  14.040 -0.1229 -0.3897  0.0126
14977TIP3    H166346   2.683   4.115  14.051  0.0105 -0.0176  0.7374
14977TIP3    H266347   2.563   4.128  13.959  1.5669  0.6237 -1.2853
14978TIP3   OH266348   4.151   6.694  17.316  0.0445 -0.0274 -0.3332
14978TIP3    H166349   4.213   6.692  17.389  1.3169  0.1781 -1.3711
14978TIP3    H266350   4.157   6.607  17.277 -0.6186 -0.1288 -0.2189
14979TIP3   OH266351   4.512   0.265  11.291 -0.1957 -0.0046 -0.0683
14979TIP3    H166352   4.484   0.178  11.320 -0.1795  0.0289  0.0462
14979TIP3    H266353   4.574   0.247  11.220  1.2476 -0.1432  1.1828
14980TIP3   OH266354   4.065   0.359  12.588  0.1422 -0.1705 -0.4065
14980TIP3    H166355   4.052   0.447  12.553 -0.2931 -0.5842 -1.3266
14980TIP3    H266356   3.995   0.307  12.549  2.3165 -1.6653 -2.6188
14981TIP3   OH266357   5.954   6.507   5.117 -0.3891  0.0294  0.1019
14981TIP3    H166358   5.866   6.531   5.086 -0.1422  1.4317  0.4079
14981TIP3    H266359   5.975   6.574   5.182  1.7042  0.9051 -1.3779
14982TIP3   OH266360   3.045   4.355   0.570  0.1880  0.6205  0.4966
14982TIP3    H166361   3.104   4.420   0.607  1.7445 -0.0975 -0.6248
14982TIP3    H266362   3.085   4.271   0.592 -1.5406  0.0188  1.5104
14983TIP3   OH266363   2.255   1.375  16.980 -0.0985 -0.2499 -0.0710
14983TIP3    H166364   2.267   1.289  17.019  2.4959  0.3721  0.7666
14983TIP3    H266365   2.226   1.430  17.053  0.4245  0.0172 -0.0578
14984TIP3   OH266366   6.263   4.944   2.579  0.1713  0.1911  0.0208
14984TIP3    H166367   6.224   4.858   2.593  0.5503 -0.1424 -0.9332
14984TIP3    H266368   6.188   5.003   2.568 -0.0801 -0.1135  0.0922
14985TIP3   OH266369   5.497   1.924  11.240  0.4221 -0.6347  0.2108
14985TIP3    H166370   5.561   1.852  11.238 -0.2956 -1.2984 -2.4151
14985TIP3    H266371   5.419   1.889  11.198  0.1671  1.7629 -1.5130
14986TIP3   OH266372   4.929   3.714  10.698  0.6596  0.6428  0.1194
14986TIP3    H166373   4.906   3.621  10.701  0.7599  0.5071 -1.9852
14986TIP3    H266374   4.854   3.759  10.738 -0.8043 -0.1797 -1.5813
14987TIP3   OH266375   5.948   4.643   2.291  0.0458  0.5520 -0.0823
14987TIP3    H166376   5.887   4.638   2.217 -0.7544  1.0518  0.5141
14987TIP3    H266377   6.034   4.650   2.251 -0.4959  2.5804 -1.0117
14988TIP3   OH266378   2.710   1.069   5.925 -0.2643  0.1015  0.3268
14988TIP3    H166379   2.760   1.111   5.995 -2.2955  1.2524  1.1833
14988TIP3    H266380   2.679   0.987   5.964 -0.0277 -0.0506  0.1978
14989TIP3   OH266381   6.359   2.041   0.515 -0.4348 -0.4084  0.2631
14989TIP3    H166382   6.281   2.084   0.547  0.4971  1.4628  0.1371
14989TIP3    H266383   6.429   2.073   0.571  0.3497 -1.5533 -0.0212
14990TIP3   OH266384   2.882   3.022   6.092 -0.3928 -0.3050 -0.3727
14990TIP3    H166385   2.870   2.947   6.150  0.2299  0.8678  1.3529
14990TIP3    H266386   2.795   3.039   6.056 -0.8183 -1.0068  0.2984
14991TIP3   OH266387   6.328   2.323   5.941  0.1473 -0.0607 -0.5101
14991TIP3    H166388   6.346   2.417   5.936  0.0185 -0.0414 -0.6330
14991TIP3    H266389   6.392   2.290   6.004  0.4131  0.0527 -0.7195
14992TIP3   OH266390   1.145   2.252   3.391 -0.2246  0.3275  0.1314
14992TIP3    H166391   1.135   2.285   3.480 -0.3917 -1.1582  0.6914
14992TIP3    H266392   1.185   2.165   3.401 -1.8359 -0.6210 -1.0907
14993TIP3   OH266393   0.506   6.568   3.461  0.3966  0.0970 -0.8845
14993TIP3    H166394   0.551   6.504   3.406 -0.3560 -0.3321 -1.0223
14993TIP3    H266395   0.423   6.525   3.484 -0.1947  1.0801 -1.1167
14994TIP3   OH266396   5.546   2.903   6.208 -0.1406  0.2989 -0.5490
14994TIP3    H166397   5.595   2.839   6.156  2.7829  1.0734  0.9907
14994TIP3    H266398   5.561   2.876   6.299 -1.2977  1.5117  0.0345
14995TIP3   OH266399   1.461   3.123  11.766  0.1806 -0.2584  0.2539
14995TIP3    H166400   1.492   3.048  11.714 -2.8368 -0.5003 -1.4156
14995TIP3    H266401   1.396   3.086  11.825  0.6242  0.6909  1.3869
14996TIP3   OH266402   2.360   5.694  13.085 -0.0934  0.1166 -0.2173
14996TIP3    H166403   2.379   5.763  13.148 -2.6612  1.1185 -0.4009
14996TIP3    H266404   2.420   5.623  13.107  1.2083  1.6183  1.3075
14997TIP3   OH266405   4.848   5.415  16.288  0.8829 -0.4291  0.8171
14997TIP3    H166406   4.804   5.500  16.286  2.5154  0.5456 -2.6362
14997TIP3    H266407   4.935   5.434  16.324  0.3422 -1.2622  2.6489
14998TIP3   OH266408   3.287   1.660  14.216  0.1537  0.5109 -0.3034
14998TIP3    H166409   3.377   1.631  14.231 -0.2796 -0.8250 -0.1664
14998TIP3    H266410   3.296   1.749  14.182  1.5339  0.2939 -0.5630
14999TIP3   OH266411   4.988   2.258  13.946  0.7378  0.3325 -0.4539
14999TIP3    H166412   4.927   2.307  14.001  0.8316  0.9861 -0.9171
14999TIP3    H266413   4.938   2.236  13.867  0.4247 -1.1150  0.1133
15000TIP3   OH266414   3.687   0.393   2.704  0.0387  0.1200  0.0522
15000TIP3    H166415   3.747   0.342   2.758  1.3617  0.8598 -0.6642
15000TIP3    H266416   3.642   0.329   2.650  0.1992 -0.4575  0.6009
15001TIP3   OH266417   6.222   2.697  15.731 -0.1869  0.0410  0.2540
15001TIP3    H166418   6.187   2.612  15.760  0.7886 -0.2199  0.6968
15001TIP3    H266419   6.251   2.740  15.811  0.6285  0.1880 -0.1079
15002TIP3   OH266420   2.061   6.691  14.356  0.2172 -0.0032 -0.2562
15002TIP3    H166421   2.007   6.760  14.395 -0.5858 -0.3857 -0.6592
15002TIP3    H266422   2.142   6.735  14.332  0.8730  0.1932  2.0829
15003TIP3   OH266423   3.765   5.556   4.696 -0.1718 -0.7755  0.7001
15003TIP3    H166424   3.694   5.508   4.653 -0.6270  0.7072 -0.2883
15003TIP3    H266425   3.747   5.548   4.789 -1.0195 -1.3287  0.5007
15004TIP3   OH266426   5.158   2.038   5.350 -0.2715  0.1314  0.3713
15004TIP3    H166427   5.126   1.990   5.274 -1.6969 -1.4760  1.9126
15004TIP3    H266428   5.085   2.094   5.376 -0.5456 -0.7723  1.6630
15005TIP3   OH266429   1.681   0.843   3.466 -0.3215  0.4798 -0.2315
15005TIP3    H166430   1.626   0.920   3.482 -0.5266  0.3306 -0.2175
15005TIP3    H266431   1.646   0.805   3.386 -0.9075 -0.2096  0.3412
15006TIP3   OH266432   3.101   5.573  12.355 -0.0213  0.1691  0.1274
15006TIP3    H166433   3.051   5.653  12.340 -1.4727 -0.2480  2.3050
15006TIP3    H266434   3.042   5.503  12.327  0.3537 -0.2329  0.3311
15007TIP3   OH266435   3.958   5.874  17.194  0.0088  0.2009 -0.2708
15007TIP3    H166436   4.050   5.875  17.219  0.4992 -0.3489 -1.9293
15007TIP3    H266437   3.958   5.849  17.101 -1.7626  0.9043 -0.5065
15008TIP3   OH266438   2.252   6.151   3.416  0.3068 -0.0292  0.6554
15008TIP3    H166439   2.167   6.150   3.370  0.1380  0.4058  0.9546
15008TIP3    H266440   2.308   6.095   3.362  0.6003  1.7929 -1.0481
15009TIP3   OH266441   0.089   3.331  15.139  0.4125 -0.3073 -0.2512
15009TIP3    H166442   0.044   3.338  15.223 -0.8429  0.2458 -0.9398
15009TIP3    H266443   0.182   3.326  15.162  0.0111 -2.0822  1.2468
15010TIP3   OH266444   0.144   3.265   3.627 -0.1493 -0.2776 -0.0065
15010TIP3    H166445   0.237   3.269   3.646 -0.6510 -1.1125  3.1877
15010TIP3    H266446   0.132   3.183   3.579  0.7395 -0.1492 -0.4523
15011TIP3   OH266447   5.554   3.426  14.272  0.1901  0.0100 -0.4686
15011TIP3    H166448   5.558   3.331  14.275  2.2133  0.0820  0.2586
15011TIP3    H266449   5.583   3.449  14.183  1.0506 -0.0329 -0.2113
15012TIP3   OH266450   0.041   5.652  11.384  0.0093  0.3532  0.2405
15012TIP3    H166451   0.011   5.727  11.333 -0.7895 -0.5205 -0.6427
15012TIP3    H266452  -0.033   5.591  11.382  1.0232 -0.9174 -0.0221
15013TIP3   OH266453   1.074   5.141   2.585 -0.1641 -0.0273 -0.5116
15013TIP3    H166454   1.084   5.236   2.580 -1.7079  0.1099 -2.0326
15013TIP3    H266455   1.157   5.109   2.619  0.1832  1.9043  0.5747
15014TIP3   OH266456   0.280   5.217  17.223 -0.1499  0.1146  0.2214
15014TIP3    H166457   0.366   5.178  17.210  0.1433  0.3066  1.4763
15014TIP3    H266458   0.218   5.148  17.200  0.3251 -1.8075  3.9957
15015TIP3   OH266459   3.086   1.245   5.524  0.3973 -0.1625  0.2794
15015TIP3    H166460   3.047   1.252   5.436  0.3373  0.7334  0.3648
15015TIP3    H266461   3.090   1.335   5.555 -0.4814 -0.5464  1.5921
15016TIP3   OH266462   3.010   0.469   0.157  0.3481  0.0424 -0.0584
15016TIP3    H166463   2.934   0.452   0.100  1.7713  0.4459 -2.2070
15016TIP3    H266464   2.997   0.411   0.232 -1.6290 -0.5331 -0.7723
15017TIP3   OH266465   0.397   1.936  16.305  0.2147  0.1016  0.1194
15017TIP3    H166466   0.481   1.930  16.259 -0.2955  1.6058 -1.1144
15017TIP3    H266467   0.385   2.030  16.320 -0.3821 -0.2204  2.0171
15018TIP3   OH266468   5.737   2.710   6.093  0.2242 -0.1501 -0.8534
15018TIP3    H166469   5.821   2.748   6.117  0.4932 -0.1649 -1.7324
15018TIP3    H266470   5.756   2.654   6.018 -0.5234 -0.3498 -0.9067
15019TIP3   OH266471   2.944   2.102  11.401  0.0723  0.2308 -0.0984
15019TIP3    H166472   2.972   2.176  11.346 -1.0476  2.1947  1.8244
15019TIP3    H266473   3.024   2.074  11.445  0.5816  0.0074 -1.1236
15020TIP3   OH266474   1.187   0.321   5.789 -0.2550  0.3070 -0.0367
15020TIP3    H166475   1.253   0.270   5.838 -0.9463  0.2297  0.8369
15020TIP3    H266476   1.239   0.376   5.730  0.5389 -0.7929 -0.4003
15021TIP3   OH266477   5.842   0.018  16.979 -0.1691  0.0791 -0.5388
15021TIP3    H166478   5.917  -0.025  16.938  1.3791  1.1622  0.9948
15021TIP3    H266479   5.766  -0.025  16.942  1.1505 -0.0920 -3.2871
15022TIP3   OH266480   5.113   5.674  16.128  0.5401 -0.1391 -0.1689
15022TIP3    H166481   5.177   5.740  16.098  1.5532 -0.3447  1.4149
15022TIP3    H266482   5.045   5.725  16.172  1.4644 -0.1204  1.3029
15023TIP3   OH266483   3.981   1.707  15.921 -0.0657  0.0301 -0.1335
15023TIP3    H166484   3.890   1.706  15.892  0.1254  0.3495 -0.7479
15023TIP3    H266485   4.031   1.740  15.846  0.9115 -2.6259 -0.7772
15024TIP3   OH266486   6.605   2.176  15.021  0.1527 -0.2229  0.4827
15024TIP3    H166487   6.529   2.225  15.055 -1.5141 -1.5072 -1.1825
15024TIP3    H266488   6.596   2.182  14.926  0.1636 -3.2623  0.2151
15025TIP3   OH266489   4.152   6.268  13.877 -0.0393 -0.2191  0.3370
15025TIP3    H166490   4.199   6.226  13.805  1.2307 -0.6972  1.4100
15025TIP3    H266491   4.091   6.328  13.834 -0.2725 -1.4692 -1.1699
15026TIP3   OH266492   1.354   0.246   1.599 -0.1673 -0.1401 -0.1325
15026TIP3    H166493   1.263   0.248   1.568  0.6453  0.2462 -2.7351
15026TIP3    H266494   1.352   0.295   1.682 -1.9767  1.8533 -1.2505
15027TIP3   OH266495   1.186   1.276   2.578  0.0303  0.4039  0.0048
15027TIP3    H166496   1.115   1.216   2.600  0.1917 -0.4482 -1.6165
15027TIP3    H266497   1.144   1.347   2.530  0.1199  0.5057  0.0761
15028TIP3   OH266498   4.873   4.497   6.217  0.2363  0.2250 -0.7108
15028TIP3    H166499   4.904   4.513   6.128  0.6693 -2.3020 -1.0860
15028TIP3    H266500   4.779   4.480   6.208  0.5343 -1.4648 -0.9431
15029TIP3   OH266501   1.630   4.310  11.218  0.0191 -0.3992  0.6886
15029TIP3    H166502   1.725   4.302  11.212  0.0055 -0.0647 -0.0742
15029TIP3    H266503   1.608   4.382  11.159 -0.7649 -0.8615  0.3990
15030TIP3   OH266504   5.138   4.438   1.562 -0.8506 -0.7256  0.2675
15030TIP3    H166505   5.150   4.472   1.473 -1.1987  0.1066  0.5239
15030TIP3    H266506   5.204   4.369   1.570  0.8558  0.8152  0.1789
15031TIP3   OH266507   6.314   4.378  13.558 -0.4463  0.3183  0.6658
15031TIP3    H166508   6.324   4.293  13.602  2.0212  0.0653 -0.2530
15031TIP3    H266509   6.345   4.363  13.469 -0.1502  2.1256  0.4268
15032TIP3   OH266510   0.177   2.676  16.838 -0.3721 -0.9103 -0.0981
15032TIP3    H166511   0.166   2.585  16.812  0.5638 -1.4573  1.3307
15032TIP3    H266512   0.266   2.699  16.812 -0.8177 -0.1720 -1.0540
15033TIP3   OH266513   3.248   5.895   3.797 -0.2026  0.6158  0.1953
15033TIP3    H166514   3.245   5.834   3.724 -0.8582 -1.0532  1.5530
15033TIP3    H266515   3.338   5.889   3.830 -0.6842 -0.8986  1.3226
15034TIP3   OH266516   0.311   5.199   2.105  0.8517 -0.1258  0.1682
15034TIP3    H166517   0.378   5.267   2.095  0.4980 -0.0553 -2.6132
15034TIP3    H266518   0.231   5.240   2.073  0.1754 -1.2319  0.3850
15035TIP3   OH266519   2.339   2.266  15.180  0.4515 -0.2018  0.3043
15035TIP3    H166520   2.391   2.220  15.247 -0.4144 -1.2810  0.2726
15035TIP3    H266521   2.251   2.272  15.219  0.1792  0.0248 -0.3435
15036TIP3   OH266522   5.228   3.072  15.051 -0.5079 -0.4026 -0.1948
15036TIP3    H166523   5.209   2.992  15.003  0.3367 -0.2040 -0.8889
15036TIP3    H266524   5.285   3.122  14.993 -0.5584  0.4536  0.4630
15037TIP3   OH266525   0.574   4.884   5.777 -0.0840  0.1265  0.1769
15037TIP3    H166526   0.493   4.843   5.749  0.2418 -1.0418  0.8805
15037TIP3    H266527   0.623   4.897   5.695 -1.0030  0.9558 -0.2657
15038TIP3   OH266528   3.972   1.821  14.822  0.0187  0.1710 -0.3946
15038TIP3    H166529   3.879   1.820  14.846  0.4752 -0.0213  1.5570
15038TIP3    H266530   3.988   1.734  14.785 -0.2103 -0.4705  0.9500
15039TIP3   OH266531   1.865   3.445   0.217 -0.0060 -0.5053  0.5480
15039TIP3    H166532   1.896   3.435   0.128 -0.3472 -0.9413  0.4745
15039TIP3    H266533   1.804   3.372   0.230  0.7975 -1.0289  1.4675
15040TIP3   OH266534   1.509   2.236   0.740 -0.0163  0.1238  0.5060
15040TIP3    H166535   1.489   2.293   0.814 -1.1506  1.3369 -0.6851
15040TIP3    H266536   1.553   2.293   0.677 -2.4908  0.1804 -1.3394
15041TIP3   OH266537   0.617   2.781  12.490 -0.2716 -0.0461  0.2019
15041TIP3    H166538   0.649   2.717  12.426  0.7231 -0.6140  1.2415
15041TIP3    H266539   0.547   2.828  12.443  2.0196  1.2734 -2.1547
15042TIP3   OH266540   5.868   3.682  11.026 -0.3372 -0.1108  0.3066
15042TIP3    H166541   5.809   3.675  11.101 -0.2887  0.3641  0.3946
15042TIP3    H266542   5.899   3.592  11.011 -0.5277 -0.2472  0.7074
15043TIP3   OH266543   4.574   3.311   5.315  0.7241  0.0198  0.3618
15043TIP3    H166544   4.591   3.217   5.322  1.5466  0.1374  0.0859
15043TIP3    H266545   4.625   3.350   5.387  0.1548  0.2351  0.6583
15044TIP3   OH266546   2.178   0.191   5.381  0.0849  0.0975 -0.0753
15044TIP3    H166547   2.239   0.138   5.329  0.1387 -1.5110  1.5355
15044TIP3    H266548   2.093   0.179   5.338  0.2342 -0.7331 -0.1567
15045TIP3   OH266549   5.471   1.392  12.177 -0.1301 -0.2697 -0.3169
15045TIP3    H166550   5.445   1.365  12.090 -0.9245  2.0663 -0.8599
15045TIP3    H266551   5.553   1.345  12.193 -0.5054 -1.5249 -1.8574
15046TIP3   OH266552   1.404   5.512  13.908  0.1103  0.0624  0.0333
15046TIP3    H166553   1.451   5.588  13.940  1.5044 -0.9391  0.4712
15046TIP3    H266554   1.359   5.477  13.985 -0.4628  0.3780 -0.1507
15047TIP3   OH266555   5.988   4.816  11.907 -0.0985  0.0509  0.5760
15047TIP3    H166556   6.068   4.769  11.885  0.0262 -0.4405  1.9612
15047TIP3    H266557   5.919   4.750  11.901  0.2125 -0.6815  3.5232
15048TIP3   OH266558   2.877   5.018   1.429  0.1485 -0.2595  0.4533
15048TIP3    H166559   2.785   5.033   1.406 -0.7483 -1.5532  2.8682
15048TIP3    H266560   2.889   4.924   1.418  1.2631 -0.0795  0.0249
15049TIP3   OH266561   1.675   2.551  14.464  0.4614 -0.1501 -0.0284
15049TIP3    H166562   1.586   2.573  14.492  1.0984 -0.1790  2.2566
15049TIP3    H266563   1.709   2.632  14.427  0.0397  0.3522  0.6539
15050TIP3   OH266564   2.251   3.303  14.327 -0.3592 -0.0660 -0.7010
15050TIP3    H166565   2.237   3.243  14.401 -1.8348  0.5837 -0.4124
15050TIP3    H266566   2.192   3.271  14.259 -1.3445  1.1537 -0.4616
15051TIP3   OH266567   5.935   0.416   6.443 -0.7732 -0.5381  0.4479
15051TIP3    H166568   5.966   0.351   6.506 -0.7095  0.7449  1.8091
15051TIP3    H266569   6.013   0.469   6.424 -1.2089  0.2660  0.8170
15052TIP3   OH266570   0.535   3.359   6.033  0.1952  0.0927 -0.0956
15052TIP3    H166571   0.464   3.354   5.969  0.1856  1.1509 -0.1794
15052TIP3    H266572   0.606   3.309   5.994 -0.3605 -0.6299 -0.1970
15053TIP3   OH266573   4.150   3.942   3.399  0.6357  0.3786 -0.3932
15053TIP3    H166574   4.147   3.886   3.476 -3.3215  0.2036 -0.4384
15053TIP3    H266575   4.180   3.885   3.329 -2.3369 -1.5826 -0.2346
15054TIP3   OH266576   2.127   4.312  12.811  0.1138 -0.1917  0.1158
15054TIP3    H166577   2.206   4.299  12.863 -0.3433 -2.0156  0.4192
15054TIP3    H266578   2.103   4.225  12.781 -1.3919  0.4169 -0.5620
15055TIP3   OH266579   2.692   4.604  12.651  0.2192 -0.3747  0.8597
15055TIP3    H166580   2.670   4.567  12.736 -1.2936 -0.4949  0.4374
15055TIP3    H266581   2.716   4.528  12.597  1.1233 -0.3034  1.1370
15056TIP3   OH266582   5.016   4.476  12.921 -0.0645 -0.3891  0.5195
15056TIP3    H166583   4.979   4.525  12.847  0.7598  0.2615  0.5209
15056TIP3    H266584   5.028   4.542  12.989  0.2272 -0.7718  0.8424
15057TIP3   OH266585   1.943   1.040   3.246 -0.1542  0.1890 -0.0480
15057TIP3    H166586   2.002   1.053   3.320 -0.1959 -1.4212  0.2917
15057TIP3    H266587   1.862   1.083   3.273  0.5357  1.6143 -0.1387
15058TIP3   OH266588   3.948   4.607  17.437  0.2704 -0.1949  0.0895
15058TIP3    H166589   3.965   4.544  17.366  0.7913 -1.5138  1.3354
15058TIP3    H266590   3.886   4.562  17.495 -0.2876  0.9323  0.3975
15059TIP3   OH266591   5.139   3.657  13.236 -0.3222 -0.7785 -0.2002
15059TIP3    H166592   5.077   3.585  13.243 -1.7446  0.5170  1.0353
15059TIP3    H266593   5.162   3.678  13.326  0.9867 -0.4314 -0.5971
15060TIP3   OH266594   4.185   4.635  14.354  0.0581 -0.2475  0.6100
15060TIP3    H166595   4.182   4.718  14.400  0.5766 -0.3026  0.7473
15060TIP3    H266596   4.240   4.651  14.277  0.5233 -0.5782  0.8737
15061TIP3   OH266597   6.435   0.165   5.827  0.2966  0.4230 -0.0211
15061TIP3    H166598   6.430   0.073   5.802  1.4410  0.5944 -0.9888
15061TIP3    H266599   6.417   0.165   5.921 -1.7298 -0.5298 -0.3586
15062TIP3   OH266600   6.734   4.171   5.787  0.1240  0.1016  0.1344
15062TIP3    H166601   6.672   4.104   5.758  0.4163 -0.5447  0.9511
15062TIP3    H266602   6.817   4.147   5.746  0.3221 -0.2846  0.7402
15063TIP3   OH266603   3.884   0.191   0.375  0.5095  0.3440  0.3918
15063TIP3    H166604   3.842   0.190   0.289 -0.7585 -1.6639  0.9578
15063TIP3    H266605   3.840   0.261   0.423 -0.0523  0.2674 -0.0048
15064TIP3   OH266606   4.050   4.177  11.819  0.3208 -0.0229  0.4186
15064TIP3    H166607   3.988   4.238  11.778  0.0028 -1.5158 -1.4414
15064TIP3    H266608   4.124   4.232  11.844 -0.3761  1.2896 -0.2772
15065TIP3   OH266609   4.596   5.364   6.129 -0.0452 -0.4500  0.0605
15065TIP3    H166610   4.580   5.367   6.223 -0.3371 -0.7570  0.0219
15065TIP3    H266611   4.529   5.305   6.095 -0.0085 -0.2543 -0.3552
15066TIP3   OH266612   0.280   5.681  11.118 -0.3357  0.1923  0.1849
15066TIP3    H166613   0.299   5.774  11.111 -0.0351  0.2254  1.2590
15066TIP3    H266614   0.354   5.638  11.076  0.7605  0.3888  1.8573
15067TIP3   OH266615   1.685   6.492   0.671  0.6568 -0.6823 -0.0941
15067TIP3    H166616   1.589   6.486   0.670  0.4525  1.7277  0.3470
15067TIP3    H266617   1.707   6.535   0.588  1.0305  1.9279  1.2925
15068TIP3   OH266618   2.335   4.614  17.428 -0.0418 -0.4287  0.0348
15068TIP3    H166619   2.407   4.557  17.454 -0.7754 -1.0913  0.6345
15068TIP3    H266620   2.256   4.568  17.455 -0.6844  0.4610 -0.2728
15069TIP3   OH266621   5.345   1.274   0.072 -0.5900 -0.4319  0.0913
15069TIP3    H166622   5.395   1.305  -0.003 -0.1282 -2.5346 -0.5369
15069TIP3    H266623   5.335   1.351   0.129  1.1450  0.6215 -0.9655
15070TIP3   OH266624   6.130   2.988  12.924 -0.4754  0.0099 -0.2262
15070TIP3    H166625   6.044   3.008  12.886 -1.2700 -1.3455  0.7657
15070TIP3    H266626   6.142   3.054  12.993 -1.6092 -0.8971  0.8845
15071TIP3   OH266627   3.284   5.250   1.542  0.6435  0.2715  0.3336
15071TIP3    H166628   3.245   5.235   1.456 -1.1196  0.3821  1.0542
15071TIP3    H266629   3.378   5.256   1.526  0.4221 -0.4658 -1.4656
15072TIP3   OH266630   4.350   6.472  12.086 -0.4182 -0.1124 -0.1158
15072TIP3    H166631   4.405   6.545  12.112  1.5708 -1.4910 -0.2316
15072TIP3    H266632   4.337   6.422  12.167 -0.7106 -0.3027 -0.2745
15073TIP3   OH266633   3.100   5.463   3.015  0.4246  0.4587 -0.3241
15073TIP3    H166634   3.075   5.484   2.926  1.5491 -1.5942 -1.2001
15073TIP3    H266635   3.194   5.444   3.010  0.0529 -2.0482  0.7696
15074TIP3   OH266636   5.262   3.896   2.727 -0.5964  0.3054 -0.1833
15074TIP3    H166637   5.269   3.982   2.687  0.2872  0.3949  0.1560
15074TIP3    H266638   5.320   3.899   2.803 -0.3393 -0.6732 -0.3185
15075TIP3   OH266639   4.074   2.093  12.203 -0.7203 -0.0687 -0.4122
15075TIP3    H166640   4.010   2.026  12.178  0.0647 -0.1426 -2.3652
15075TIP3    H266641   4.155   2.044  12.219 -0.8594  0.1351  1.0715
15076TIP3   OH266642   5.320   0.282   3.305  0.3235 -0.7433 -0.5378
15076TIP3    H166643   5.288   0.206   3.255  1.1603 -1.6164  0.2054
15076TIP3    H266644   5.313   0.255   3.396  1.7041 -0.3725 -0.3040
15077TIP3   OH266645   3.497   4.887  14.397 -0.6613 -0.2328  0.1881
15077TIP3    H166646   3.411   4.847  14.383 -1.4211  1.3998 -0.1426
15077TIP3    H266647   3.514   4.936  14.316  0.0789  0.3161  0.6615
15078TIP3   OH266648   3.135   3.098  14.396  0.5187  0.2860  0.5244
15078TIP3    H166649   3.152   3.039  14.322 -0.2318 -0.2698  0.7898
15078TIP3    H266650   3.217   3.147  14.407  0.8670 -0.1137 -0.2318
15079TIP3   OH266651   6.089   1.653   2.179  0.2325  0.0990 -0.7654
15079TIP3    H166652   6.049   1.570   2.154 -1.1106  0.0152  1.4259
15079TIP3    H266653   6.015   1.713   2.190  0.9850  0.8796  0.1833
15080TIP3   OH266654   3.615   4.046   5.832  0.0739 -0.1651  0.0928
15080TIP3    H166655   3.616   4.104   5.908 -0.4017  0.2513 -0.2104
15080TIP3    H266656   3.533   4.067   5.787  0.7061  0.1413 -0.9550
15081TIP3   OH266657   0.217   1.529  16.311  0.3992  0.1352 -0.6208
15081TIP3    H166658   0.195   1.542  16.403 -1.0350  0.1385 -0.9416
15081TIP3    H266659   0.159   1.459  16.282  1.4022 -0.4266 -1.3261
15082TIP3   OH266660   1.854   4.052  11.687  0.7263  0.2446 -0.0228
15082TIP3    H166661   1.908   4.066  11.609  0.4862 -1.7436 -0.5868
15082TIP3    H266662   1.775   4.105  11.671  0.9271  0.3140 -0.8525
15083TIP3   OH266663   5.524   0.391   2.061 -0.0308  0.0830 -0.4332
15083TIP3    H166664   5.453   0.331   2.038 -0.5844  0.5658 -0.0604
15083TIP3    H266665   5.575   0.344   2.127  0.6902 -0.7186 -1.5313
15084TIP3   OH266666   5.763   2.526  17.353 -0.0161  0.2504 -0.5195
15084TIP3    H166667   5.704   2.571  17.293  1.2625  0.5933 -1.5692
15084TIP3    H266668   5.708   2.503  17.428 -1.2060  1.5721 -0.9448
15085TIP3   OH266669   4.402   2.329   3.972 -0.0351  0.3859  0.1387
15085TIP3    H166670   4.331   2.275   3.937 -0.0793 -0.2694  1.2120
15085TIP3    H266671   4.372   2.419   3.960 -0.6960  0.1336 -0.1262
15086TIP3   OH266672   4.421   1.736  16.543 -0.1072  0.2890  0.1716
15086TIP3    H166673   4.334   1.752  16.505 -0.9625 -0.9875  1.4980
15086TIP3    H266674   4.424   1.641  16.557  1.5250  0.3089  0.1238
15087TIP3   OH266675   3.912   2.364   0.820 -0.1492 -0.2078  0.3676
15087TIP3    H166676   3.904   2.288   0.763  0.5851 -1.8030  2.2503
15087TIP3    H266677   3.844   2.353   0.886  2.0941 -1.2043  2.6878
15088TIP3   OH266678   0.003   1.633   3.596  0.5785  0.3204 -0.0868
15088TIP3    H166679  -0.056   1.680   3.537 -0.3368 -0.9798 -0.2507
15088TIP3    H266680  -0.015   1.541   3.579  1.2535 -0.0853  1.2830
15089TIP3   OH266681   2.811   0.422  12.320 -0.4326  0.5384  0.1589
15089TIP3    H166682   2.795   0.385  12.407  0.7114 -0.1813  0.0798
15089TIP3    H266683   2.858   0.504  12.336  1.1802 -0.3566  0.1972
15090TIP3   OH266684   3.248   3.393  12.335  0.0124  0.5067  0.0602
15090TIP3    H166685   3.159   3.389  12.372  0.2488 -1.2319  0.5426
15090TIP3    H266686   3.240   3.351  12.249  0.4325 -0.0738  0.2955
15091TIP3   OH266687   5.071   4.929  14.144  0.3394 -0.0540 -0.6518
15091TIP3    H166688   5.029   4.849  14.113  0.6869 -0.9179  1.0363
15091TIP3    H266689   5.027   4.999  14.095 -0.7977 -1.1706 -1.2911
15092TIP3   OH266690   3.693   3.207   4.032 -0.4832  0.2426 -0.2290
15092TIP3    H166691   3.753   3.270   3.991  1.2274 -1.8949 -1.2603
15092TIP3    H266692   3.662   3.153   3.960  0.5060 -1.9588  0.8899
15093TIP3   OH266693   5.036   0.344   4.061  0.0595 -0.2829 -0.7899
15093TIP3    H166694   5.080   0.328   3.977  1.9429 -0.2021  0.1217
15093TIP3    H266695   5.107   0.367   4.121 -1.3662  0.7367  0.5801
15094TIP3   OH266696   3.663   6.044  16.411  0.0070  0.2838 -0.0136
15094TIP3    H166697   3.575   6.022  16.380  0.0349 -0.4784  0.4420
15094TIP3    H266698   3.721   6.010  16.344  0.0077 -0.3021  0.2776
15095TIP3   OH266699   2.995   5.127   3.308 -0.2573 -0.6800 -0.3746
15095TIP3    H166700   3.037   5.056   3.259 -0.4617  0.0720 -1.6815
15095TIP3    H266701   2.902   5.119   3.287 -0.6643 -1.5705  1.5241
15096TIP3   OH266702   2.479   5.829  17.154  0.3321 -0.3494 -0.1357
15096TIP3    H166703   2.474   5.924  17.157  1.6560 -0.2699 -0.0821
15096TIP3    H266704   2.455   5.807  17.064  0.3658  0.0542 -0.2458
15097TIP3   OH266705   2.344   3.418   6.220 -0.4099  0.5171 -0.2051
15097TIP3    H166706   2.366   3.349   6.157 -1.5506 -0.1639  0.1091
15097TIP3    H266707   2.255   3.443   6.198 -0.4140  1.0811  0.4243
15098TIP3   OH266708   3.328   3.032   5.968 -0.0712  0.2295 -0.8388
15098TIP3    H166709   3.312   3.032   6.062 -1.4345  0.4343 -1.0511
15098TIP3    H266710   3.401   2.971   5.956 -1.0374 -1.1848  0.1661
15099TIP3   OH266711   6.511   2.130   6.314  0.7152 -0.7602  0.3724
15099TIP3    H166712   6.588   2.173   6.351  0.8998  0.1948 -1.0542
15099TIP3    H266713   6.437   2.167   6.362  1.0805 -1.2186  1.3141
15100TIP3   OH266714   4.366   0.469   2.448  0.0075  0.0634  0.4459
15100TIP3    H166715   4.350   0.380   2.416  0.1387 -0.3938  1.6149
15100TIP3    H266716   4.448   0.496   2.407  1.0408 -1.1448  1.6516
15101TIP3   OH266717   1.585   2.146  16.913 -0.1140  0.4948  0.6811
15101TIP3    H166718   1.532   2.225  16.913  0.4655  0.9741 -1.7460
15101TIP3    H266719   1.675   2.178  16.925  0.4619  0.6454 -2.8823
15102TIP3   OH266720   5.525   4.461  12.752 -0.2696  0.0057 -0.0824
15102TIP3    H166721   5.576   4.408  12.814 -0.7587  0.5383  0.8074
15102TIP3    H266722   5.443   4.412  12.743  0.0220 -0.3654 -0.7711
15103TIP3   OH266723   3.046   6.617   3.223 -0.8243  0.1241 -0.3703
15103TIP3    H166724   2.966   6.572   3.249 -0.0218 -0.1653  1.7336
15103TIP3    H266725   3.093   6.634   3.304  1.7890 -0.7001 -1.5836
15104TIP3   OH266726   4.940   1.628   0.358  0.6175  0.6604 -0.3539
15104TIP3    H166727   4.993   1.654   0.433 -1.7319  0.9200  1.3611
15104TIP3    H266728   4.936   1.532   0.364  0.8463  0.6450 -0.4476
15105TIP3   OH266729   0.620   0.996  14.048  1.0356  0.2790  0.1977
15105TIP3    H166730   0.552   0.937  14.081 -1.6321  2.0692 -1.6946
15105TIP3    H266731   0.685   0.938  14.009 -1.0425 -1.4869 -0.8185
15106TIP3   OH266732   1.205   6.150  15.011 -0.0888  0.6656 -0.6737
15106TIP3    H166733   1.233   6.067  15.048 -1.4707  0.8385  0.9041
15106TIP3    H266734   1.138   6.127  14.948 -1.5832  0.6037  0.8691
15107TIP3   OH266735   3.154   0.367  14.183  0.0118  0.1805 -0.3809
15107TIP3    H166736   3.163   0.443  14.240  1.7288 -0.4037  0.1833
15107TIP3    H266737   3.215   0.384  14.111 -1.1094  0.2644 -1.3404
15108TIP3   OH266738   5.292   2.163   0.340 -0.1225  0.0365 -0.3147
15108TIP3    H166739   5.227   2.126   0.280 -1.5457 -0.2540  1.3206
15108TIP3    H266740   5.267   2.255   0.347  0.3252  0.1734 -0.5279
15109TIP3   OH266741   3.936   5.655   3.626  0.3996 -0.4040 -0.1341
15109TIP3    H166742   3.924   5.582   3.687 -0.3973 -0.5094 -0.4106
15109TIP3    H266743   3.911   5.733   3.675  0.4234 -0.4135 -0.1073
15110TIP3   OH266744   4.115   1.224   5.770  0.5210 -0.1531  0.0339
15110TIP3    H166745   4.097   1.257   5.682 -1.1557  0.1405  0.4649
15110TIP3    H266746   4.186   1.280   5.802 -2.1122  3.0661  0.6842
15111TIP3   OH266747   1.719   0.933   0.204  0.5944  0.4424  0.2303
15111TIP3    H166748   1.638   0.967   0.242  0.0582  0.2257 -0.6760
15111TIP3    H266749   1.789   0.974   0.254 -0.0644  1.4448  0.3532
15112TIP3   OH266750   3.586   2.967   2.638 -0.4556  0.2330  0.2052
15112TIP3    H166751   3.576   3.048   2.688 -2.6011  0.3632 -0.3042
15112TIP3    H266752   3.559   2.898   2.699  1.8105 -0.2143  0.7907
15113TIP3   OH266753   1.735   0.496   3.956 -0.1611 -0.2220  0.1201
15113TIP3    H166754   1.757   0.410   3.919  1.0688  0.4073 -0.6840
15113TIP3    H266755   1.657   0.480   4.010 -0.1974 -1.7536 -0.3428
15114TIP3   OH266756   0.353   1.814   0.489 -0.2736 -0.2136 -0.6279
15114TIP3    H166757   0.282   1.751   0.474  0.8564 -1.0150 -2.9831
15114TIP3    H266758   0.426   1.781   0.438  1.6758  0.8951  1.2755
15115TIP3   OH266759   2.453   5.026   6.593  0.1464  0.0443 -0.2131
15115TIP3    H166760   2.376   5.074   6.624  0.5537 -0.2119  1.2508
15115TIP3    H266761   2.471   5.064   6.507 -1.3797  0.3689 -0.4148
15116TIP3   OH266762   5.746   4.378  11.174  0.1108 -0.1960  0.3104
15116TIP3    H166763   5.733   4.473  11.179 -0.4112 -0.3201  1.7992
15116TIP3    H266764   5.828   4.362  11.220  0.9845 -0.3519 -1.2255
15117TIP3   OH266765   0.978   2.032   3.512  0.6472  0.0856 -0.0776
15117TIP3    H166766   0.964   1.949   3.557  0.6096  0.1366  0.0043
15117TIP3    H266767   1.072   2.050   3.523  0.7893 -0.2640 -0.6419
15118TIP3   OH266768   2.511   5.553  12.226 -0.2612 -0.0794 -0.0808
15118TIP3    H166769   2.498   5.600  12.308  0.2404 -0.4157  0.1969
15118TIP3    H266770   2.434   5.496  12.218  0.1006 -0.6745  0.5945
15119TIP3   OH266771   6.373   2.998  13.554 -0.0747 -0.3699  0.1413
15119TIP3    H166772   6.344   3.082  13.589  2.3289 -0.1020  1.7912
15119TIP3    H266773   6.327   2.932  13.607 -0.9371 -0.1019 -0.2538
15120TIP3   OH266774   2.959   5.911  12.595  0.0176  0.1172  0.3385
15120TIP3    H166775   2.930   5.874  12.679  0.2241 -3.9364 -1.1793
15120TIP3    H266776   2.919   5.856  12.529  4.0429 -0.2652 -2.1010
15121TIP3   OH266777   0.998   0.049  16.303  0.2380  0.5295 -0.4417
15121TIP3    H166778   0.972   0.120  16.245  1.0299  2.7012  1.6515
15121TIP3    H266779   1.084   0.076  16.336  0.6694 -1.5398  0.2695
15122TIP3   OH266780   1.580   2.005  12.265  0.0434 -0.2340  0.0966
15122TIP3    H166781   1.586   1.910  12.273  0.1990 -0.3143 -0.8209
15122TIP3    H266782   1.544   2.019  12.177 -0.1181  0.5535  0.2812
15123TIP3   OH266783   2.231   5.152  12.710 -0.0314 -0.6288  0.1885
15123TIP3    H166784   2.180   5.116  12.638 -0.6464 -0.7745  0.6886
15123TIP3    H266785   2.283   5.222  12.671 -2.4190  1.1995  0.1027
15124TIP3   OH266786   3.206   0.067  15.494  0.4457 -0.1867  0.0930
15124TIP3    H166787   3.191  -0.026  15.508  1.9506 -0.4847 -0.1449
15124TIP3    H266788   3.165   0.085  15.410  0.2151 -0.6462  0.1041
15125TIP3   OH266789   4.932   4.951  15.056  0.2163 -0.6212 -0.3609
15125TIP3    H166790   4.885   4.934  14.974  0.9585 -1.0100 -0.7164
15125TIP3    H266791   4.864   4.954  15.122 -0.4559  0.2082 -1.0636
15126TIP3   OH266792   1.960   1.934   5.729 -0.5249 -0.3747  0.0647
15126TIP3    H166793   1.948   2.016   5.777  2.0022  0.2053 -0.1492
15126TIP3    H266794   1.872   1.912   5.697 -1.5277  1.4462  1.3758
15127TIP3   OH266795   2.908   1.243  12.401 -0.1250 -0.1245  0.5230
15127TIP3    H166796   2.984   1.204  12.444 -0.0436 -0.7346 -0.1561
15127TIP3    H266797   2.945   1.300  12.334 -0.2582  0.4503  0.9324
15128TIP3   OH266798   1.414   4.184   0.258 -0.5317  0.0541  0.2527
15128TIP3    H166799   1.402   4.246   0.186 -0.0796 -1.4450 -1.2006
15128TIP3    H266800   1.380   4.101   0.223 -1.1870 -0.5209  2.1424
15129TIP3   OH266801   1.629   5.368   2.310  0.0977  0.2862 -0.0067
15129TIP3    H166802   1.571   5.305   2.267  0.2570 -1.0805  1.6463
15129TIP3    H266803   1.576   5.406   2.381  0.4401  0.9591 -0.1039
15130TIP3   OH266804   1.698   0.805  16.174 -0.3550 -0.3705 -0.1853
15130TIP3    H166805   1.655   0.720  16.188 -0.0527 -0.3754  0.8043
15130TIP3    H266806   1.651   0.865  16.232  0.0182 -0.0568 -0.2061
15131TIP3   OH266807   2.685   0.215   3.676  0.0633 -0.1807 -0.3652
15131TIP3    H166808   2.758   0.250   3.625 -0.7308 -1.6832 -2.7199
15131TIP3    H266809   2.669   0.281   3.743  2.3106  1.0993 -0.9757
15132TIP3   OH266810   0.875   0.184  12.594  0.1715 -0.5084  0.2202
15132TIP3    H166811   0.842   0.094  12.598 -0.7456 -0.1785  0.1926
15132TIP3    H266812   0.841   0.219  12.512 -1.7234  0.7066  1.4408
15133TIP3   OH266813   2.099   0.425   6.477 -0.3032  0.8161 -1.0356
15133TIP3    H166814   2.138   0.451   6.394 -2.1279  1.7683 -1.6716
15133TIP3    H266815   2.015   0.385   6.453 -1.0938  1.5421  0.3287
15134TIP3   OH266816   6.202   2.025  13.911 -0.2114 -0.5382  0.1738
15134TIP3    H166817   6.233   2.016  13.821  0.1724 -0.9418  0.3410
15134TIP3    H266818   6.281   2.048  13.960 -0.9712  3.1589 -0.0969
15135TIP3   OH266819   2.335   0.961   1.683 -0.1150  0.2889  0.1353
15135TIP3    H166820   2.273   0.915   1.740  0.7288 -0.2240  0.6617
15135TIP3    H266821   2.410   0.902   1.677  0.1682  0.7344 -0.8043
15136TIP3   OH266822   2.047   5.588   5.813 -0.3465  0.0984  0.6464
15136TIP3    H166823   2.136   5.554   5.807  0.3956  2.1509 -1.0890
15136TIP3    H266824   2.047   5.642   5.892 -0.7124 -1.5672  1.8268
15137TIP3   OH266825   5.427   0.840   6.183 -0.8298  1.2778 -0.4531
15137TIP3    H166826   5.408   0.804   6.096 -1.8715  1.3212 -0.2569
15137TIP3    H266827   5.358   0.903   6.199 -0.7312  1.1725  0.4694
15138TIP3   OH266828   1.327   6.568   2.210  0.0178 -0.7167  0.2600
15138TIP3    H166829   1.376   6.647   2.233 -0.2703 -0.3674 -0.2864
15138TIP3    H266830   1.394   6.500   2.200  0.4749 -0.1201 -1.0161
15139TIP3   OH266831   3.603   3.155  13.302 -0.1838 -0.2242 -0.2043
15139TIP3    H166832   3.677   3.214  13.314 -0.4823 -0.1834  1.8262
15139TIP3    H266833   3.573   3.136  13.391  0.0569 -3.6572 -0.7416
15140TIP3   OH266834   3.688   1.518  17.418  0.3906  0.1946 -0.1056
15140TIP3    H166835   3.747   1.562  17.357  0.3679  2.9187  1.6959
15140TIP3    H266836   3.601   1.531  17.380  0.3477  2.1202  0.5780
15141TIP3   OH266837   1.706   6.001  12.919 -0.3269 -0.0967 -0.0818
15141TIP3    H166838   1.797   5.997  12.892 -0.4586  1.7445 -0.9141
15141TIP3    H266839   1.708   6.044  13.005 -0.2321 -2.6316  1.3021
15142TIP3   OH266840   5.569   5.634  15.377 -0.1399  0.2242 -0.1936
15142TIP3    H166841   5.498   5.626  15.440  2.0187 -0.0986  2.4132
15142TIP3    H266842   5.529   5.615  15.292 -3.0189 -0.2943  1.1627
15143TIP3   OH266843   0.486   1.677  12.669  0.3716 -0.2435 -0.1726
15143TIP3    H166844   0.482   1.743  12.738  0.7048  1.3786 -1.6260
15143TIP3    H266845   0.450   1.598  12.708 -0.0912  0.8142  1.6202
15144TIP3   OH266846   4.160   4.765   6.472  0.6991 -0.0860  0.2253
15144TIP3    H166847   4.215   4.827   6.425  0.7370 -0.8871 -0.8225
15144TIP3    H266848   4.147   4.805   6.559  3.2155 -0.0558  0.6510
15145TIP3   OH266849   3.309   1.400  12.872  0.2806  0.3728  0.0910
15145TIP3    H166850   3.265   1.383  12.955 -1.4132  3.2021 -0.0763
15145TIP3    H266851   3.262   1.346  12.808 -0.3167  0.3554  0.5384
15146TIP3   OH266852   0.346   5.691  13.128  0.3052  0.7121 -0.0925
15146TIP3    H166853   0.427   5.711  13.082  0.7306 -0.2872  0.1990
15146TIP3    H266854   0.299   5.631  13.069  0.8682 -0.6008  0.7452
15147TIP3   OH266855   0.531   0.946   4.291 -0.0478  0.1303  0.2464
15147TIP3    H166856   0.613   0.976   4.252 -0.5702 -1.4132 -2.2822
15147TIP3    H266857   0.483   1.026   4.312  0.9508  1.0447 -0.8246
15148TIP3   OH266858   3.360   0.750   6.202 -0.0607  0.1755 -0.0719
15148TIP3    H166859   3.436   0.795   6.238  1.1867 -0.4736 -1.7278
15148TIP3    H266860   3.287   0.809   6.219  0.6127  0.4238  2.3694
15149TIP3   OH266861   3.199   0.578  15.769 -0.5526 -0.2177  0.0294
15149TIP3    H166862   3.157   0.561  15.685  0.6171 -1.5642 -0.3233
15149TIP3    H266863   3.130   0.618  15.823 -1.7938 -0.8472 -1.0365
15150TIP3   OH266864   2.734   1.058  15.401  0.3771  0.0133 -0.1037
15150TIP3    H166865   2.781   0.976  15.416  2.2347  1.3986  2.3349
15150TIP3    H266866   2.647   1.042  15.438  0.5554 -1.0071 -0.0912
15151TIP3   OH266867   5.367   1.389  17.010 -0.4085  0.2173 -0.2605
15151TIP3    H166868   5.438   1.331  17.038  1.3887  1.9077 -1.0445
15151TIP3    H266869   5.353   1.367  16.918  0.3320  0.9939 -0.5826
15152TIP3   OH266870   2.532   2.511  14.720  0.1867  0.5085  0.1708
15152TIP3    H166871   2.475   2.454  14.773 -0.8386  1.4335  0.1068
15152TIP3    H266872   2.555   2.458  14.644  0.2309 -0.2325  0.6952
15153TIP3   OH266873   4.158   4.853  12.897  0.2982  0.0491  0.2545
15153TIP3    H166874   4.235   4.801  12.874  0.8833  0.4862  1.1402
15153TIP3    H266875   4.162   4.929  12.839  0.7162  0.2173  0.4916
15154TIP3   OH266876   4.331   5.313   0.209 -0.3358 -0.0241 -0.2704
15154TIP3    H166877   4.332   5.276   0.297  0.9036  0.2005 -0.1620
15154TIP3    H266878   4.251   5.365   0.205 -0.2178  0.2784  0.8724
15155TIP3   OH266879   4.388   4.925  12.305  0.0917 -0.6924  0.2470
15155TIP3    H166880   4.350   4.872  12.375  0.4061  0.8634  1.6766
15155TIP3    H266881   4.344   4.896  12.225 -0.8093 -2.0239  1.1903
15156TIP3   OH266882   1.077   3.596   5.021  0.6838  0.2509 -0.1293
15156TIP3    H166883   1.109   3.530   5.082 -0.1416  0.5676  0.6644
15156TIP3    H266884   0.985   3.574   5.008  0.5189  0.9602 -0.2312
15157TIP3   OH266885   6.672   0.692  12.877  0.0435  0.3486  0.5750
15157TIP3    H166886   6.691   0.713  12.968 -1.2823  1.0409  0.7239
15157TIP3    H266887   6.576   0.683  12.874  0.0816  0.1713 -0.7091
15158TIP3   OH266888   0.232   1.789   0.185 -0.7319 -0.1681 -0.3192
15158TIP3    H166889   0.207   1.865   0.237  0.7669  0.9657 -1.2079
15158TIP3    H266890   0.278   1.824   0.109 -0.7177 -1.9212 -1.1882
15159TIP3   OH266891   1.983   0.177  15.503 -0.6348  0.1918 -0.0782
15159TIP3    H166892   2.003   0.086  15.525 -0.4294  0.3758  0.5291
15159TIP3    H266893   2.024   0.192  15.418  0.8085  0.2104  0.5927
15160TIP3   OH266894   6.350   3.058  14.256  0.2441  1.0051 -0.1258
15160TIP3    H166895   6.372   3.040  14.347 -0.0503  0.0724 -0.2257
15160TIP3    H266896   6.261   3.091  14.259  0.1025  0.6238 -0.1063
15161TIP3   OH266897   1.279   6.349   3.808  0.6828 -0.1464  0.0659
15161TIP3    H166898   1.244   6.399   3.734 -1.6031 -1.7776 -0.0396
15161TIP3    H266899   1.270   6.408   3.883 -0.7048  0.1247 -0.2885
15162TIP3   OH266900   5.016   3.393   2.378  0.0185 -0.4845 -0.0911
15162TIP3    H166901   5.035   3.308   2.337 -0.8964 -1.0078  0.5322
15162TIP3    H266902   5.070   3.455   2.330  0.9363 -1.4623 -0.3749
15163TIP3   OH266903   1.537   5.447   0.692  0.6818  0.1105  0.4572
15163TIP3    H166904   1.609   5.453   0.630  1.2606 -0.3775  1.0626
15163TIP3    H266905   1.578   5.421   0.775 -0.2923 -1.2623  0.5658
15164TIP3   OH266906   2.700   0.336  16.184  0.1617 -0.0734  0.2641
15164TIP3    H166907   2.674   0.420  16.223  0.9879  0.4018 -0.1914
15164TIP3    H266908   2.791   0.349  16.158  0.0747 -0.8769 -0.4724
15165TIP3   OH266909   1.452   2.046   0.507  0.4067 -0.2376 -0.1022
15165TIP3    H166910   1.531   1.999   0.479  0.7066  0.8784 -1.2095
15165TIP3    H266911   1.484   2.130   0.539 -0.1903 -0.4782  1.1783
15166TIP3   OH266912   4.434   5.520   1.098  0.2914 -0.2376 -0.6356
15166TIP3    H166913   4.528   5.506   1.103  0.0489 -2.9808 -1.9692
15166TIP3    H266914   4.414   5.519   1.004 -0.9768  1.3988 -0.4351
15167TIP3   OH266915   4.937   5.842  16.886  0.0549 -0.2990 -0.5010
15167TIP3    H166916   4.845   5.865  16.899  0.7385  3.0640 -0.6872
15167TIP3    H266917   4.935   5.751  16.859 -3.2702 -0.1731 -1.1375
15168TIP3   OH266918   4.542   3.726  16.923 -0.0472 -0.4450  0.1213
15168TIP3    H166919   4.572   3.808  16.885 -0.1030 -0.6654 -0.4095
15168TIP3    H266920   4.617   3.667  16.915 -0.4434 -0.8595 -0.7891
15169TIP3   OH266921   2.295   6.097   0.009 -0.4707  0.6700 -0.2223
15169TIP3    H166922   2.248   6.165   0.056 -2.4012 -1.0903  0.5270
15169TIP3    H266923   2.238   6.076  -0.066 -1.4128 -2.0486  1.1359
15170TIP3   OH266924   0.581   3.391  12.828 -0.2661 -0.1101 -0.3719
15170TIP3    H166925   0.614   3.363  12.914  1.5644  0.8981 -0.6908
15170TIP3    H266926   0.486   3.381  12.834 -0.1356 -0.5290  1.5914
15171TIP3   OH266927   0.945   5.720  11.738 -0.4864  0.2880  0.0035
15171TIP3    H166928   0.978   5.786  11.678  0.8147 -0.1555  0.2043
15171TIP3    H266929   0.865   5.687  11.696 -1.2821  2.1038  0.0093
15172TIP3   OH266930   6.597   3.590   2.694 -0.3581 -0.2032  0.0657
15172TIP3    H166931   6.681   3.636   2.687 -0.3977  0.0388  0.9488
15172TIP3    H266932   6.620   3.498   2.704 -0.1993 -0.1482  0.2043
15173TIP3   OH266933   0.486   6.095   5.501 -0.1796 -0.4235  0.0272
15173TIP3    H166934   0.451   6.185   5.501  1.1653  0.1233 -0.8914
15173TIP3    H266935   0.487   6.070   5.409  0.2682 -1.0612  0.1996
15174TIP3   OH266936   1.662   6.495   2.962 -0.0416  0.0993  0.2038
15174TIP3    H166937   1.706   6.555   3.022 -2.5460  0.0808  2.2252
15174TIP3    H266938   1.590   6.546   2.926 -0.2652 -0.7660 -0.6074
15175TIP3   OH266939   6.456   2.092  16.252  0.4647 -0.2049 -0.1400
15175TIP3    H166940   6.478   2.143  16.174  2.4378  0.3996  0.7474
15175TIP3    H266941   6.449   2.157  16.322  0.0187 -0.8722  0.4476
15176TIP3   OH266942   3.379   3.940   4.717 -0.1769  0.3477 -0.1836
15176TIP3    H166943   3.466   3.915   4.748 -0.0874 -0.8027 -1.2904
15176TIP3    H266944   3.323   3.866   4.740 -0.3393 -0.0133 -1.6540
15177TIP3   OH266945   1.489   1.151   5.395  0.7447  0.3783  0.0827
15177TIP3    H166946   1.416   1.106   5.353  0.2197  0.4812  0.8636
15177TIP3    H266947   1.464   1.244   5.394 -1.0021  0.1405  3.7111
15178TIP3   OH266948   2.988   3.507   6.045 -0.7005  0.0263  0.0829
15178TIP3    H166949   3.064   3.548   6.087  0.7495 -0.9233 -1.4852
15178TIP3    H266950   2.980   3.422   6.089  0.8710 -1.0047 -1.4933
15179TIP3   OH266951   1.834   0.405   0.174  0.1665 -0.1807  0.1016
15179TIP3    H166952   1.829   0.495   0.141  0.5185  0.1604  0.9596
15179TIP3    H266953   1.775   0.404   0.250 -0.1031 -0.7674 -0.1103
15180TIP3   OH266954   0.094   3.805   6.353 -0.3400  0.0783 -0.4043
15180TIP3    H166955   0.064   3.881   6.303 -1.3976  0.4453  0.7522
15180TIP3    H266956   0.025   3.739   6.342 -0.7068  0.2477  0.7361
15181TIP3   OH266957   3.900   3.780   2.605  0.0816 -0.4145 -0.1130
15181TIP3    H166958   3.903   3.832   2.525  0.5936 -1.1428 -0.5839
15181TIP3    H266959   3.963   3.710   2.590 -0.3160 -0.9517  0.6574
15182TIP3   OH266960   4.648   4.116  13.585 -0.3234 -0.6062 -0.2292
15182TIP3    H166961   4.659   4.210  13.573  0.6966 -0.4721  1.3570
15182TIP3    H266962   4.699   4.096  13.664  0.1791 -2.6300 -0.9925
15183TIP3   OH266963   3.171   4.577  14.519  0.3634  0.5196  0.1351
15183TIP3    H166964   3.093   4.591  14.466  2.1654  3.6573 -2.0891
15183TIP3    H266965   3.140   4.582  14.610 -2.1333  0.5770 -0.6463
15184TIP3   OH266966   4.331   1.783   0.565  0.0296 -0.3031 -0.0963
15184TIP3    H166967   4.365   1.754   0.650  0.6568 -0.1882 -0.3029
15184TIP3    H266968   4.253   1.728   0.550  2.1498 -3.2751 -1.3126
15185TIP3   OH266969   0.381   2.225  16.332 -0.4534 -0.0170 -0.0776
15185TIP3    H166970   0.387   2.320  16.320 -1.9526  0.1854  0.5212
15185TIP3    H266971   0.466   2.200  16.370 -0.2821  1.1922  0.3923
15186TIP3   OH266972   3.917   1.377  13.477  0.3785  0.0503  0.0029
15186TIP3    H166973   3.896   1.284  13.467 -0.6299  0.2520  0.1665
15186TIP3    H266974   3.900   1.415  13.392  0.4567  0.1523  0.0327
15187TIP3   OH266975   3.495   4.226   7.164  0.8929  0.1361 -1.0289
15187TIP3    H166976   3.545   4.307   7.174 -1.8801  1.8006  0.5997
15187TIP3    H266977   3.503   4.182   7.249  0.4395 -0.1164 -1.1153
15188TIP3   OH266978   2.048   3.764  11.453 -0.6596 -0.2158 -0.7404
15188TIP3    H166979   1.960   3.737  11.427 -0.9777 -0.1813  0.2579
15188TIP3    H266980   2.055   3.736  11.544  0.2396  0.0912 -0.7119
15189TIP3   OH266981   0.612   2.901  14.665  0.0381  0.0603 -0.5760
15189TIP3    H166982   0.570   2.903  14.579 -0.1743 -2.2012 -0.5918
15189TIP3    H266983   0.688   2.959  14.657 -0.2893  0.3053 -2.1088
15190TIP3   OH266984   2.806   0.842  12.761  0.3299  0.3580 -0.2617
15190TIP3    H166985   2.890   0.798  12.775  0.2258  0.2486  0.0135
15190TIP3    H266986   2.819   0.929  12.797 -0.2574 -0.2327  1.4866
15191TIP3   OH266987   6.209   3.327  10.992 -0.0440 -0.4460 -0.2916
15191TIP3    H166988   6.218   3.348  11.085  0.9328  0.7016 -0.6127
15191TIP3    H266989   6.121   3.356  10.969 -1.0608 -2.5371  0.6766
15192TIP3   OH266990   3.249   4.780  14.351  0.2801  0.4249  0.1016
15192TIP3    H166991   3.227   4.722  14.424 -0.0898 -0.9152 -1.0284
15192TIP3    H266992   3.219   4.733  14.273  0.7344  1.7769 -0.9322
15193TIP3   OH266993   2.246   4.152  14.258 -0.2358 -0.0307  0.3351
15193TIP3    H166994   2.153   4.133  14.249 -0.0283 -0.8838 -0.1409
15193TIP3    H266995   2.289   4.066  14.256  0.7046  0.4068 -1.5566
15194TIP3   OH266996   3.591   5.651   4.029  0.2464  0.2405 -0.1072
15194TIP3    H166997   3.575   5.665   4.123  0.1319 -1.1564  0.1042
15194TIP3    H266998   3.662   5.711   4.008  1.3060 -0.4629  1.2461
15195TIP3   OH266999   5.160   4.738  12.501 -0.4078 -0.6690  0.3016
15195TIP3    H167000   5.099   4.811  12.496 -0.0963 -0.4665 -1.1654
15195TIP3    H267001   5.120   4.670  12.446 -0.2019 -1.2296  0.8314
15196TIP3   OH267002   0.228   2.842   5.127 -0.0675 -0.4254  0.8818
15196TIP3    H167003   0.175   2.910   5.085  0.0463  0.6864  2.4580
15196TIP3    H267004   0.307   2.836   5.073  0.0686  0.9470  0.8878
15197TIP3   OH267005   5.663   3.077  11.275  0.5344  0.2205  0.1479
15197TIP3    H167006   5.668   3.170  11.294 -2.1397  0.4643 -0.0159
15197TIP3    H267007   5.699   3.069  11.186 -1.3401  1.5274 -0.7996
15198TIP3   OH267008   6.291   6.267  15.296 -0.5599  0.7995  0.0183
15198TIP3    H167009   6.249   6.346  15.262 -1.6146  0.3710  0.3011
15198TIP3    H267010   6.232   6.236  15.365 -0.6913 -0.8076 -0.7857
15199TIP3   OH267011   6.503   5.385   5.864  0.0664  0.2333 -0.4762
15199TIP3    H167012   6.464   5.306   5.900 -0.1244  1.0190  1.1323
15199TIP3    H267013   6.432   5.450   5.866  0.4399  0.6733 -1.0309
15200TIP3   OH267014   0.719   0.871  16.117 -0.1664  0.7233 -0.2336
15200TIP3    H167015   0.641   0.816  16.122 -0.4917  1.1837 -0.2115
15200TIP3    H267016   0.766   0.853  16.198 -0.0217  0.1211 -0.4378
15201TIP3   OH267017   3.655   0.744  14.049 -0.6402 -0.2053  0.4128
15201TIP3    H167018   3.621   0.719  13.963  2.1824  0.9693 -1.1570
15201TIP3    H267019   3.606   0.824  14.072  0.2144  0.8537 -1.2852
15202TIP3   OH267020   3.419   4.426   3.533 -1.1222  0.2447 -0.1024
15202TIP3    H167021   3.405   4.333   3.514 -1.1389  0.0399  0.8787
15202TIP3    H267022   3.336   4.467   3.509 -1.8848 -0.3148  1.4412
15203TIP3   OH267023   0.906   2.981  13.277  0.2329 -0.4479 -0.0035
15203TIP3    H167024   0.996   3.001  13.252  0.5112 -1.9941 -0.3026
15203TIP3    H267025   0.894   3.027  13.361  0.7325  1.1306 -0.7552
15204TIP3   OH267026   6.487   0.372  14.827  0.4888  0.1847  0.6704
15204TIP3    H167027   6.556   0.380  14.892 -0.1308 -0.4383  1.4151
15204TIP3    H267028   6.480   0.278  14.810 -0.6230  0.1779  1.0971
15205TIP3   OH267029   0.600   0.183  16.782 -0.3727  0.4099  0.3757
15205TIP3    H167030   0.646   0.257  16.743 -0.0426  0.7713  1.4238
15205TIP3    H267031   0.511   0.215  16.796 -0.5311  0.2319 -0.1960
15206TIP3   OH267032   3.901   4.534  17.154  0.3396 -0.0243 -0.8319
15206TIP3    H167033   3.904   4.627  17.176 -1.1678  0.1447 -1.2224
15206TIP3    H267034   3.895   4.532  17.059 -1.0768 -0.4445 -0.7521
15207TIP3   OH267035   4.817   0.504   4.093  0.5424  0.6083  0.1143
15207TIP3    H167036   4.894   0.447   4.100 -0.4848 -1.4257 -2.9779
15207TIP3    H267037   4.753   0.467   4.154  0.5890 -0.3482 -0.4014
15208TIP3   OH267038   1.489   2.119   1.147 -0.2602  0.2048 -0.4415
15208TIP3    H167039   1.467   2.026   1.158 -0.5239  0.1204 -1.5933
15208TIP3    H267040   1.579   2.118   1.114 -0.8282  0.2677 -2.0749
15209TIP3   OH267041   1.235   6.113   4.266  0.0555  0.6635  0.6774
15209TIP3    H167042   1.232   6.047   4.336 -1.5898  1.7256  1.6467
15209TIP3    H267043   1.297   6.178   4.297  0.0409  0.6664  0.7005
15210TIP3   OH267044   2.336   0.740   4.894  0.0422  0.1408  0.2686
15210TIP3    H167045   2.247   0.724   4.863 -0.2894 -1.8870  2.0460
15210TIP3    H267046   2.386   0.762   4.816 -0.8430 -4.0017 -1.7168
15211TIP3   OH267047   0.417   0.169  13.555  0.5414 -0.1948 -0.1905
15211TIP3    H167048   0.431   0.098  13.492  0.8568  1.0404 -1.5506
15211TIP3    H267049   0.504   0.201  13.576  0.3804  0.0482  0.1225
15212TIP3   OH267050   1.522   4.274  15.304 -0.1923  0.4327 -0.0769
15212TIP3    H167051   1.476   4.346  15.262 -1.2971 -1.5040 -2.4444
15212TIP3    H267052   1.604   4.265  15.256  0.7014  1.0979  1.2729
15213TIP3   OH267053   1.028   1.093   2.710  0.9187  0.7674 -0.0654
15213TIP3    H167054   0.967   1.030   2.670 -0.2369  2.4557 -1.1178
15213TIP3    H267055   0.978   1.132   2.782  2.1951 -0.6132  1.6382
15214TIP3   OH267056   5.967   4.312   2.197 -0.0212  0.2489 -0.0220
15214TIP3    H167057   6.026   4.287   2.126  0.3944 -1.4145  0.8424
15214TIP3    H267058   5.909   4.378   2.159  0.0895 -0.7105 -1.9480
15215TIP3   OH267059   1.675   5.846   3.216 -0.0048 -0.4780 -0.0395
15215TIP3    H167060   1.756   5.872   3.261 -0.6173  0.5035  0.5069
15215TIP3    H267061   1.663   5.754   3.241  0.1717 -0.2199  1.0451
15216TIP3   OH267062   4.452   2.992   1.124 -0.1508 -0.4468 -0.0208
15216TIP3    H167063   4.444   3.086   1.141  0.6936  0.2578 -2.8830
15216TIP3    H267064   4.539   2.969   1.156  0.2816  0.1529 -0.7237
15217TIP3   OH267065   3.210   5.652   5.853 -0.7458  0.1528 -0.8433
15217TIP3    H167066   3.268   5.608   5.915 -1.5963  0.8751  0.5091
15217TIP3    H267067   3.218   5.601   5.772  1.3853 -0.0359 -0.5589
15218TIP3   OH267068   3.207   2.086   3.574  0.1874 -0.6047  0.3501
15218TIP3    H167069   3.244   2.051   3.493 -1.2638  0.6982 -0.9313
15218TIP3    H267070   3.113   2.069   3.567 -0.2314  1.3145  0.7986
15219TIP3   OH267071   5.229   4.659  14.131  0.3636  0.4047 -0.0437
15219TIP3    H167072   5.248   4.720  14.201  0.9139 -1.6635  1.7239
15219TIP3    H267073   5.315   4.635  14.096  0.2995 -0.5451  0.4017
15220TIP3   OH267074   6.023   4.832   3.704  0.2064  0.3422  0.1169
15220TIP3    H167075   6.085   4.904   3.703  1.4976 -0.6330  2.4724
15220TIP3    H267076   5.939   4.872   3.679  1.5029  1.8770 -2.1192
15221TIP3   OH267077   1.798   2.406  11.006  0.0137 -0.2895  0.6185
15221TIP3    H167078   1.790   2.388  10.912  3.6946  1.3576 -0.1697
15221TIP3    H267079   1.846   2.331  11.040 -1.1314 -0.7790  1.2238
15222TIP3   OH267080   4.493   0.443  12.872 -0.5885 -0.0810 -0.8009
15222TIP3    H167081   4.487   0.501  12.796  0.3861  0.0489 -0.7879
15222TIP3    H267082   4.578   0.399  12.862 -0.8944 -0.8079 -0.3138
15223TIP3   OH267083   3.344   6.631  15.204  0.3429 -0.3282  0.4453
15223TIP3    H167084   3.305   6.674  15.128  0.9192  0.2841  0.4867
15223TIP3    H267085   3.404   6.697  15.240 -0.1965 -0.4747  1.6368
15224TIP3   OH267086   5.774   6.432  11.501  0.4824  0.3189 -0.1564
15224TIP3    H167087   5.778   6.338  11.487  1.2055  0.4481 -0.8644
15224TIP3    H267088   5.741   6.467  11.418 -3.2567  0.4339  1.1888
15225TIP3   OH267089   1.053   3.252   4.148  0.1373  1.1993  0.2683
15225TIP3    H167090   1.083   3.167   4.180 -1.6919  0.4141  0.0436
15225TIP3    H267091   1.013   3.293   4.224  0.0051  1.3514  0.1181
15226TIP3   OH267092   2.925   0.896   1.503  0.4251 -0.4403  0.2250
15226TIP3    H167093   2.936   0.948   1.423 -3.0910 -0.7737 -0.6649
15226TIP3    H267094   2.901   0.960   1.570  0.3507 -0.4576  0.2154
15227TIP3   OH267095   0.736   2.561  12.393  0.1533  0.3913  0.1366
15227TIP3    H167096   0.790   2.597  12.464  0.6317 -0.3960  0.1926
15227TIP3    H267097   0.761   2.468  12.390 -1.8259 -0.1955  0.7225
15228TIP3   OH267098   0.807   5.310  13.601 -0.0339  0.2668  0.0349
15228TIP3    H167099   0.838   5.243  13.540  1.0660 -0.3125  1.1945
15228TIP3    H267100   0.877   5.318  13.666 -0.7813  1.5218  0.7277
15229TIP3   OH267101   0.266   1.361  16.637 -0.1924 -0.1312  0.3059
15229TIP3    H167102   0.241   1.317  16.555 -0.3999  0.0248  0.2840
15229TIP3    H267103   0.278   1.290  16.699  1.1914 -0.3366 -0.1728
15230TIP3   OH267104   0.408   2.477  14.073 -0.5375 -0.0832  0.2496
15230TIP3    H167105   0.469   2.434  14.133 -0.1407 -0.2646 -0.2803
15230TIP3    H267106   0.424   2.571  14.086 -1.2377 -0.0782  1.2298
15231TIP3   OH267107   2.481   0.172  13.339  0.5613  0.0284 -0.3280
15231TIP3    H167108   2.418   0.149  13.407  0.4925  0.4917 -0.2312
15231TIP3    H267109   2.428   0.214  13.271  0.4715 -1.3674 -1.1373
15232TIP3   OH267110   4.696   3.185  11.444 -0.1049  0.3702 -0.6332
15232TIP3    H167111   4.776   3.136  11.423 -0.3366  0.0526 -0.7836
15232TIP3    H267112   4.625   3.129  11.413 -0.6917 -1.4952  3.4172
15233TIP3   OH267113   0.327   2.925   4.403  0.0794  0.0660 -0.1149
15233TIP3    H167114   0.238   2.899   4.426  0.0753  1.3054  1.4449
15233TIP3    H267115   0.315   2.992   4.336 -0.2104  0.6364  0.4931
15234TIP3   OH267116   1.750   5.298   6.865  0.0230 -0.4277  0.3776
15234TIP3    H167117   1.708   5.355   6.801 -4.1817 -0.9514  2.3100
15234TIP3    H267118   1.739   5.210   6.828 -1.0737 -0.5956  1.0414
15235TIP3   OH267119   2.487   4.097   2.531  0.0465 -0.4061 -0.8111
15235TIP3    H167120   2.432   4.173   2.550 -0.2162 -0.5527 -0.9863
15235TIP3    H267121   2.554   4.098   2.600 -0.2728 -0.3251 -0.4994
15236TIP3   OH267122   2.277   5.806   2.044 -0.5637 -1.3589 -0.1944
15236TIP3    H167123   2.237   5.879   2.092  0.2082  0.0327 -1.5837
15236TIP3    H267124   2.330   5.848   1.976 -1.6421 -3.2173 -2.3094
15237TIP3   OH267125   4.810   3.777  11.573 -0.0289  1.2086  0.0290
15237TIP3    H167126   4.762   3.707  11.529  0.6382  0.4970  0.4046
15237TIP3    H267127   4.750   3.852  11.571 -0.7116  0.6663 -0.4813
15238TIP3   OH267128   6.234   2.549  13.046 -0.1153 -0.0340 -0.1845
15238TIP3    H167129   6.270   2.609  13.110  1.3166 -1.7548  0.7107
15238TIP3    H267130   6.143   2.538  13.072 -1.1550  3.4147 -1.7418
15239TIP3   OH267131   0.723   0.308  15.078  0.0600 -0.0113 -0.4649
15239TIP3    H167132   0.731   0.296  14.983 -0.0349  1.0418 -0.6250
15239TIP3    H267133   0.729   0.403  15.090  0.6134 -0.1723  0.6395
15240TIP3   OH267134   2.231   5.860  12.899  0.4216  0.5631  0.6189
15240TIP3    H167135   2.141   5.837  12.923  0.3680 -2.9289 -2.1155
15240TIP3    H267136   2.284   5.788  12.934  0.9769 -1.7152 -4.1428
15241TIP3   OH267137   3.503   3.512   0.308  0.3023  0.0126  0.0217
15241TIP3    H167138   3.477   3.424   0.283 -2.1503  0.9647 -1.1594
15241TIP3    H267139   3.527   3.505   0.401 -0.3914 -1.7896  0.0969
15242TIP3   OH267140   0.414   5.724   1.911  0.0703 -0.7717  0.2687
15242TIP3    H167141   0.393   5.784   1.982  1.4161 -0.7743  0.7003
15242TIP3    H267142   0.379   5.766   1.832  1.0216  0.6186  0.5525
15243TIP3   OH267143   1.884   0.674  15.488 -0.0932  0.1258 -0.4458
15243TIP3    H167144   1.803   0.623  15.486 -0.9299  1.3226  0.8072
15243TIP3    H267145   1.855   0.764  15.471  1.0646  0.4753 -0.5967
15244TIP3   OH267146   6.669   6.520   0.849  0.6781  0.0443  0.0031
15244TIP3    H167147   6.735   6.575   0.892  0.1897 -1.3571  2.8243
15244TIP3    H267148   6.591   6.576   0.843  0.3774 -0.0259  2.2511
15245TIP3   OH267149   4.546   4.253  16.933  0.1294  0.6755 -0.1110
15245TIP3    H167150   4.580   4.335  16.898  0.3426  1.2042  1.2756
15245TIP3    H267151   4.581   4.249  17.022 -0.6839 -0.4451  0.1759
15246TIP3   OH267152   0.306   4.667  13.852  0.2632  0.1114 -0.1610
15246TIP3    H167153   0.254   4.723  13.794  0.2160 -1.3349 -1.5633
15246TIP3    H267154   0.344   4.728  13.915 -0.1001  1.6851 -1.3912
15247TIP3   OH267155   5.687   4.059   5.235 -0.4943  0.2270 -0.4151
15247TIP3    H167156   5.759   4.072   5.297  0.1383  2.3151 -1.4816
15247TIP3    H267157   5.655   3.971   5.254  0.3491  0.3820  2.1281
15248TIP3   OH267158   3.182   3.751   4.795  0.8549 -0.2665 -0.0408
15248TIP3    H167159   3.150   3.723   4.710  0.4933 -1.1933  0.3858
15248TIP3    H267160   3.163   3.678   4.854  0.6312  0.5509  0.9427
15249TIP3   OH267161   3.074   4.851  11.726  0.6979 -0.1294  0.3832
15249TIP3    H167162   3.087   4.922  11.788  2.6371 -1.4104  1.5516
15249TIP3    H267163   2.986   4.819  11.745  0.5440  0.6999  1.1688
15250TIP3   OH267164   1.278   6.562   2.654 -0.2173 -0.0369 -0.2772
15250TIP3    H167165   1.226   6.636   2.623 -0.9576 -0.5545 -0.2855
15250TIP3    H267166   1.238   6.485   2.614  0.6866 -0.4378 -0.4547
15251TIP3   OH267167   1.409   1.328  11.370  0.6469  0.0103 -0.1146
15251TIP3    H167168   1.458   1.411  11.368  0.6829 -0.0179 -0.6032
15251TIP3    H267169   1.444   1.281  11.446 -1.5248  1.7353  2.1305
15252TIP3   OH267170   6.396   3.801  13.579 -0.4208 -0.0779 -0.7768
15252TIP3    H167171   6.458   3.731  13.557 -0.8422 -0.9391  0.6042
15252TIP3    H267172   6.446   3.863  13.631 -0.3300  0.0549 -1.0215
15253TIP3   OH267173   3.468   3.259  14.090 -0.2376 -0.5624 -0.6137
15253TIP3    H167174   3.467   3.306  14.174 -1.8428 -0.0643 -0.8821
15253TIP3    H267175   3.506   3.322  14.028  0.4499 -0.7390 -0.3835
15254TIP3   OH267176   1.610   2.923  11.596  0.2882 -0.5473  0.2070
15254TIP3    H167177   1.626   2.828  11.598  3.0246 -0.1764 -0.6382
15254TIP3    H267178   1.644   2.951  11.512  2.0964  1.5692  1.5390
15255TIP3   OH267179   2.665   5.363  14.828 -0.2045 -0.1790  0.0122
15255TIP3    H167180   2.653   5.323  14.914  0.3097 -0.1080  0.1206
15255TIP3    H267181   2.656   5.291  14.766 -2.2826  0.0274 -0.0152
15256TIP3   OH267182   0.977   5.287   6.347 -0.7330  0.1414  0.3583
15256TIP3    H167183   1.066   5.313   6.371 -0.6700  0.5754 -0.3144
15256TIP3    H267184   0.986   5.201   6.308 -0.6654  0.0101  0.6593
15257TIP3   OH267185   3.553   6.703   2.140 -0.1273 -0.5499  0.4880
15257TIP3    H167186   3.573   6.662   2.056 -0.4115 -0.5726  0.4323
15257TIP3    H267187   3.525   6.631   2.196 -0.7883 -0.4105  0.3408
15258TIP3   OH267188   5.957   3.420  10.645 -0.0208  0.6685  0.2012
15258TIP3    H167189   5.919   3.430  10.557  1.4270  1.7084 -0.3528
15258TIP3    H267190   5.971   3.326  10.655 -0.8338  0.4705 -0.3970
15259TIP3   OH267191   4.649   5.734  13.039  0.3546 -0.6082 -0.3386
15259TIP3    H167192   4.590   5.729  12.964  0.1927 -1.4453 -0.1664
15259TIP3    H267193   4.736   5.724  13.000  0.2689 -1.0903 -0.4169
15260TIP3   OH267194   0.826   4.696  14.441  0.2063  0.0949 -0.2680
15260TIP3    H167195   0.858   4.773  14.487  2.8147 -0.7064 -0.6166
15260TIP3    H267196   0.845   4.623  14.501  0.5907 -0.5935 -1.2089
15261TIP3   OH267197   0.682   6.010   3.776  0.2561  0.0100  0.3585
15261TIP3    H167198   0.597   6.044   3.804  0.7384 -0.3655  2.4460
15261TIP3    H267199   0.746   6.065   3.821  1.1059 -0.3629 -0.3696
15262TIP3   OH267200   4.830   5.030  17.074 -0.3613  0.6521  0.0745
15262TIP3    H167201   4.863   4.962  17.015 -0.7026 -0.0894  0.7192
15262TIP3    H267202   4.740   5.045  17.044  0.1214  1.7428 -0.8663
15263TIP3   OH267203   5.440   1.610  11.772 -0.5475  0.1311  0.4772
15263TIP3    H167204   5.483   1.693  11.796  0.0599 -0.2197  0.6305
15263TIP3    H267205   5.347   1.625  11.788 -0.6074  1.2273 -0.7365
15264TIP3   OH267206   2.666   0.463  14.678  0.5545 -0.2098 -0.9103
15264TIP3    H167207   2.641   0.451  14.770  0.9537  0.6537 -0.6777
15264TIP3    H267208   2.602   0.526  14.645  1.4121  0.7551 -0.7606
15265TIP3   OH267209   2.006   2.335   2.465 -0.6782  0.2791 -0.1782
15265TIP3    H167210   1.938   2.393   2.430 -0.5444  1.1957  1.0043
15265TIP3    H267211   1.961   2.253   2.482 -1.0305  0.2324 -1.2675
15266TIP3   OH267212   6.063   4.150  13.716 -0.2782 -0.0740  0.8612
15266TIP3    H167213   5.993   4.117  13.659 -0.0062  0.4345  0.2233
15266TIP3    H267214   6.035   4.239  13.737  1.7496  1.4524 -2.1771
15267TIP3   OH267215   0.551   6.097  15.466 -0.0193 -0.3867 -0.3306
15267TIP3    H167216   0.628   6.059  15.423  0.8821  0.3734  0.5636
15267TIP3    H267217   0.497   6.129  15.394  0.3243 -1.2394 -0.9928
15268TIP3   OH267218   6.552   3.038   5.448 -0.2825  0.1785 -0.0968
15268TIP3    H167219   6.494   3.052   5.373 -1.0503 -0.1542  0.4274
15268TIP3    H267220   6.616   3.109   5.442 -1.2634  1.0846 -0.1966
15269TIP3   OH267221   3.034   4.865   2.350 -0.7235 -0.1779 -0.1494
15269TIP3    H167222   3.071   4.834   2.433  1.3046  1.6626 -0.2831
15269TIP3    H267223   3.081   4.946   2.331 -2.2806  0.3172 -2.3097
15270TIP3   OH267224   4.055   6.423  11.779 -0.2584  0.0235  0.3072
15270TIP3    H167225   4.089   6.462  11.699 -0.1746 -1.3025 -0.3236
15270TIP3    H267226   4.133   6.404  11.832  0.0651 -2.6556 -0.9733
15271TIP3   OH267227   1.160   0.414  11.366 -0.1979  0.9912 -0.1501
15271TIP3    H167228   1.170   0.319  11.366 -0.7794  0.9097  1.0936
15271TIP3    H267229   1.238   0.446  11.411  0.5252  1.1935 -1.5026
15272TIP3   OH267230   2.850   1.217  11.388  0.6290  0.1137 -0.6025
15272TIP3    H167231   2.801   1.139  11.362 -0.5716 -0.2005  2.2072
15272TIP3    H267232   2.934   1.183  11.419 -0.6620 -0.4781  2.6316
15273TIP3   OH267233   4.928   5.118   4.797  0.4333  0.0414  0.3972
15273TIP3    H167234   4.841   5.101   4.831 -0.5311  1.5423 -1.1508
15273TIP3    H267235   4.968   5.177   4.861  0.4338 -0.8655  1.2488
15274TIP3   OH267236   6.509   4.593   1.477  0.1436 -0.2089  0.4564
15274TIP3    H167237   6.559   4.602   1.396  2.3872 -2.6833  1.4068
15274TIP3    H267238   6.551   4.654   1.538 -1.3009  1.3709 -0.0527
15275TIP3   OH267239   2.470   6.381  17.230  0.3389  0.0332  0.4109
15275TIP3    H167240   2.393   6.419  17.273  0.1692 -0.1198  0.2492
15275TIP3    H267241   2.522   6.457  17.203  0.2784  0.1364  0.5844
15276TIP3   OH267242   5.845   4.075  17.219 -0.1155  0.1768  0.2315
15276TIP3    H167243   5.789   4.116  17.285  0.8439 -0.4211  1.4737
15276TIP3    H267244   5.849   3.983  17.246 -3.7077 -1.3717 -3.4963
15277TIP3   OH267245   1.922   3.043   0.955  0.6557 -0.4686  0.0773
15277TIP3    H167246   2.016   3.040   0.976  1.0268 -1.3661 -1.5029
15277TIP3    H267247   1.887   3.112   1.011  2.1862 -0.3886  0.9955
15278TIP3   OH267248   5.917   5.732   4.095 -0.1921  0.2486 -0.1236
15278TIP3    H167249   5.824   5.716   4.079 -0.6880  1.2660  1.4721
15278TIP3    H267250   5.946   5.654   4.143 -0.9938  1.1125  1.9172
15279TIP3   OH267251   1.841   0.220  14.115 -0.2868 -0.2540 -0.3330
15279TIP3    H167252   1.862   0.207  14.022  0.6723 -0.4369 -0.1014
15279TIP3    H267253   1.758   0.268  14.114 -0.2867 -0.2502 -1.2862
15280TIP3   OH267254   5.028   6.162  15.950  0.3268  0.1195  0.1463
15280TIP3    H167255   5.038   6.069  15.930  3.1308  0.2635  0.4200
15280TIP3    H267256   5.042   6.168  16.044  0.1872  0.8012  0.1295
15281TIP3   OH267257   3.306   1.075   0.604  0.0813  0.7029 -0.6578
15281TIP3    H167258   3.354   1.029   0.673 -0.4841  0.3580 -0.4873
15281TIP3    H267259   3.257   1.006   0.558 -1.9113  1.2565  0.5013
15282TIP3   OH267260   4.575   0.715  12.331  0.1988  0.3176 -0.3910
15282TIP3    H167261   4.516   0.781  12.369  0.4374  1.6388 -2.1713
15282TIP3    H267262   4.530   0.685  12.252  0.9168 -0.3188 -0.5676
15283TIP3   OH267263   6.193   4.296   2.860  0.2692 -0.4157 -0.4914
15283TIP3    H167264   6.099   4.313   2.874  0.5232  0.6416  0.0114
15283TIP3    H267265   6.225   4.374   2.815  1.4461  0.4879  1.7670
15284TIP3   OH267266   2.438   5.994  11.903  0.3050  0.0254  0.2567
15284TIP3    H167267   2.426   5.903  11.931 -1.2656 -0.4284 -1.6131
15284TIP3    H267268   2.367   6.042  11.945  0.4731  0.1731  0.3734
15285TIP3   OH267269   5.830   3.217  14.227 -0.0271 -0.1132  0.0852
15285TIP3    H167270   5.845   3.186  14.137  0.3657  1.9249 -0.5946
15285TIP3    H267271   5.739   3.195  14.245  0.0932 -1.1999 -0.5145
15286TIP3   OH267272   2.066   5.189  16.543 -0.1271  0.4529  0.0929
15286TIP3    H167273   2.128   5.259  16.565 -0.0304  0.3912  0.0240
15286TIP3    H267274   1.980   5.225  16.565 -0.4501  1.8860 -3.0414
15287TIP3   OH267275   3.696   2.280  12.832 -0.9244  0.2430  0.2068
15287TIP3    H167276   3.649   2.259  12.913 -0.5992 -2.2333 -0.1540
15287TIP3    H267277   3.631   2.324  12.777 -2.9510 -2.9204 -0.2058
15288TIP3   OH267278   1.018   0.110   3.590  0.2943  0.2883 -0.1295
15288TIP3    H167279   1.082   0.113   3.520  1.2915 -0.1226  0.7358
15288TIP3    H267280   0.983   0.021   3.587 -2.0133  1.1443 -2.0854
15289TIP3   OH267281   3.186   3.957  12.620 -0.2216 -0.8522  0.1753
15289TIP3    H167282   3.093   3.968  12.600  0.0522 -1.2124 -1.4272
15289TIP3    H267283   3.228   4.035  12.584  0.2308 -1.2437 -0.1530
15290TIP3   OH267284   1.529   4.755   4.185  0.1363 -0.0323  0.1218
15290TIP3    H167285   1.455   4.815   4.190 -1.2531 -1.6429 -0.1324
15290TIP3    H267286   1.489   4.669   4.172  2.0441 -1.0315  0.5120
15291TIP3   OH267287   1.631   1.174   0.442  0.1064 -0.0894 -0.3059
15291TIP3    H167288   1.579   1.094   0.438  0.4966 -0.3512 -0.2163
15291TIP3    H267289   1.687   1.163   0.518  0.7370 -0.0895 -0.7559
15292TIP3   OH267290   6.492   0.830   4.044  1.0872  0.1996 -0.0232
15292TIP3    H167291   6.488   0.925   4.028  1.8015  0.2723  0.2164
15292TIP3    H267292   6.584   0.808   4.035  0.6519 -0.9016 -2.3524
15293TIP3   OH267293   4.931   0.319  16.044  0.2436  0.6547  0.0123
15293TIP3    H167294   4.895   0.341  16.129  1.0747 -0.9160  0.8143
15293TIP3    H267295   4.917   0.398  15.991 -0.0109  1.7810  1.6716
15294TIP3   OH267296   1.584   2.476  12.854  0.0545  0.2544  0.5753
15294TIP3    H167297   1.556   2.552  12.804 -2.1376  0.0747  1.3948
15294TIP3    H267298   1.679   2.483  12.858  0.0166  2.1355 -0.6165
15295TIP3   OH267299   5.694   2.309   5.045 -0.0941 -0.4821  0.9259
15295TIP3    H167300   5.753   2.297   4.970 -0.0586 -0.7479  0.9974
15295TIP3    H267301   5.750   2.298   5.121  0.5671  2.7640  1.0653
15296TIP3   OH267302   3.440   1.416   2.008 -0.2387 -0.5158 -0.1696
15296TIP3    H167303   3.460   1.451   1.921  0.3510 -2.4131 -0.8520
15296TIP3    H267304   3.515   1.441   2.062 -0.7544  0.9419 -0.0989
15297TIP3   OH267305   2.539   0.974   0.966 -0.8530 -0.5314 -0.0473
15297TIP3    H167306   2.557   1.046   1.026  1.5901 -0.3304 -0.9372
15297TIP3    H267307   2.622   0.928   0.957 -1.1694 -0.7317 -3.0231
15298TIP3   OH267308   0.715   6.686   2.905  0.0073 -0.3920  0.2835
15298TIP3    H167309   0.652   6.722   2.843  1.1537 -0.7405 -1.1405
15298TIP3    H267310   0.800   6.716   2.873  0.5866  0.4437  2.4009
15299TIP3   OH267311   0.895   3.057  14.824  0.1413 -0.3449  0.1895
15299TIP3    H167312   0.988   3.038  14.836  0.2027  0.2674  0.7538
15299TIP3    H267313   0.859   3.057  14.912 -0.2558  0.0685  0.0306
15300TIP3   OH267314   0.104   2.885  12.598 -0.0252  0.1692  0.2639
15300TIP3    H167315   0.099   2.943  12.674 -1.4761 -0.9809  1.1031
15300TIP3    H267316   0.018   2.842  12.595  0.6701 -1.2275 -0.8726
15301TIP3   OH267317   4.020   1.940  11.823  0.0932 -0.0731 -0.1513
15301TIP3    H167318   4.112   1.959  11.842 -0.1356  0.1499  0.7904
15301TIP3    H267319   3.982   2.025  11.800 -0.2040  0.1217  0.9533
15302TIP3   OH267320   6.042   1.047  15.166  0.3426 -0.3855 -0.2594
15302TIP3    H167321   5.994   1.113  15.217  0.0683  0.6807 -1.8327
15302TIP3    H267322   6.078   1.095  15.092  2.4506 -1.5118 -0.0331
15303TIP3   OH267323   6.572   1.636  15.818 -0.2258 -0.3382 -0.1135
15303TIP3    H167324   6.632   1.597  15.755  0.8267 -0.4164  0.8931
15303TIP3    H267325   6.567   1.728  15.793  0.7391 -0.2190  0.0811
15304TIP3   OH267326   5.069   3.536  15.189 -0.6264 -0.6228 -0.0811
15304TIP3    H167327   5.133   3.584  15.137  1.0269 -2.0800  0.4870
15304TIP3    H267328   5.057   3.453  15.142  0.7423 -1.8789  1.6277
15305TIP3   OH267329   4.541   6.716  16.642  0.6933 -0.0498  0.4696
15305TIP3    H167330   4.619   6.764  16.671  0.5475  0.6248 -0.2363
15305TIP3    H267331   4.576   6.644  16.588  0.8883 -0.5192  1.2059
15306TIP3   OH267332   1.095   5.691  16.402 -0.5025  0.2118 -0.1653
15306TIP3    H167333   1.061   5.632  16.469 -1.9892  1.0190 -0.1763
15306TIP3    H267334   1.019   5.739  16.370  0.3497  0.6695 -1.6321
15307TIP3   OH267335   2.525   1.665   0.993 -0.0092  0.4996  0.1680
15307TIP3    H167336   2.430   1.664   0.980 -0.0236  1.2961  0.1501
15307TIP3    H267337   2.556   1.586   0.950 -0.3549  1.6501 -2.4352
15308TIP3   OH267338   1.896   1.425  16.573  0.0221 -0.9085  0.0953
15308TIP3    H167339   1.861   1.513  16.555  1.4845 -0.8141 -2.7296
15308TIP3    H267340   1.843   1.366  16.519  0.0251 -1.5912  0.8208
15309TIP3   OH267341   0.863   6.449  12.135 -0.5531 -0.3048  0.7106
15309TIP3    H167342   0.886   6.454  12.228 -2.0868 -0.2312  1.1205
15309TIP3    H267343   0.947   6.445  12.089  0.2356  0.0047  2.0765
15310TIP3   OH267344   5.821   4.352  11.513 -0.6743 -0.1401 -0.3139
15310TIP3    H167345   5.896   4.379  11.567 -0.8012  0.8193 -0.5884
15310TIP3    H267346   5.824   4.412  11.438 -2.0557  0.2895 -0.0425
15311TIP3   OH267347   1.044   3.968  11.693  0.3616  0.0361 -0.2021
15311TIP3    H167348   1.063   4.042  11.634 -1.8131 -0.6596 -1.8954
15311TIP3    H267349   1.127   3.952  11.738  1.4591  2.1660 -1.3041
15312TIP3   OH267350   3.783   0.651  15.775  0.0069 -0.5158  0.0589
15312TIP3    H167351   3.819   0.739  15.761 -0.8873 -0.1615 -0.1460
15312TIP3    H267352   3.855   0.592  15.754 -0.0972  0.0930 -2.3602
15313TIP3   OH267353   0.675   5.679  14.825  0.2165  0.1613 -0.2825
15313TIP3    H167354   0.752   5.712  14.780 -0.0581  3.0910  1.1357
15313TIP3    H267355   0.601   5.712  14.774 -0.1021 -0.5785 -0.3122
15314TIP3   OH267356   5.740   3.647   3.974 -0.4988  0.4309 -0.0638
15314TIP3    H167357   5.823   3.605   3.997 -0.2051  0.5094 -0.9310
15314TIP3    H267358   5.678   3.575   3.965 -0.6017  0.3954  0.8741
15315TIP3   OH267359   1.902   0.804   3.827 -0.2510 -0.0067 -0.7900
15315TIP3    H167360   1.846   0.878   3.851 -0.1716  0.1734 -1.1457
15315TIP3    H267361   1.984   0.819   3.874  0.5624  1.2995 -2.4914
15316TIP3   OH267362   5.828   4.353   3.750 -0.1099  0.5086  0.0384
15316TIP3    H167363   5.908   4.359   3.803 -2.3904  2.2090  3.7175
15316TIP3    H267364   5.816   4.260   3.735  1.9126  0.1285  0.4493
15317TIP3   OH267365   3.821   0.511   3.164 -0.0764  0.1317  0.0105
15317TIP3    H167366   3.850   0.603   3.162  3.2301 -0.8001 -1.4724
15317TIP3    H267367   3.847   0.476   3.079  0.1323 -2.5888  1.1068
15318TIP3   OH267368   4.602   2.915   4.108  0.0472 -0.1801  0.0709
15318TIP3    H167369   4.567   2.993   4.065 -0.4894 -1.1171 -1.2352
15318TIP3    H267370   4.623   2.855   4.036  3.5643 -0.0423  0.7642
15319TIP3   OH267371   2.339   1.337   0.107 -0.2315 -0.1528 -0.5779
15319TIP3    H167372   2.423   1.307   0.143  0.5419 -0.2215 -2.3065
15319TIP3    H267373   2.279   1.335   0.181  1.3381  0.0889  0.7704
15320TIP3   OH267374   0.090   2.511  11.455  0.6578  0.0297  0.8880
15320TIP3    H167375   0.151   2.571  11.411 -0.1529 -0.4816 -1.0457
15320TIP3    H267376   0.123   2.506  11.545  3.2807  0.0301  0.0332
15321TIP3   OH267377   0.954   2.756   3.038  0.0684 -0.1375 -0.0587
15321TIP3    H167378   1.024   2.726   2.981 -0.2744  0.2171 -0.6787
15321TIP3    H267379   0.902   2.677   3.055  1.6059 -0.7947  1.8898
15322TIP3   OH267380   6.483   4.062   5.692  0.1578 -0.7199  0.0738
15322TIP3    H167381   6.403   4.107   5.719  1.0055  0.1573  1.2726
15322TIP3    H267382   6.468   4.037   5.601 -2.1064 -2.0463  0.7481
15323TIP3   OH267383   2.789   3.157  11.708  0.1577 -0.1424  0.6590
15323TIP3    H167384   2.730   3.145  11.782  1.0505 -0.8054  1.2984
15323TIP3    H267385   2.823   3.069  11.690 -1.0090 -0.2325 -1.4062
15324TIP3   OH267386   0.858   4.689   0.708 -0.5083  0.1325  0.6238
15324TIP3    H167387   0.863   4.712   0.801  0.8672 -0.2739  0.6595
15324TIP3    H267388   0.927   4.741   0.667 -0.6196 -0.2622 -0.0624
15325TIP3   OH267389   1.795   6.411   0.340  0.1126 -0.1721  0.9086
15325TIP3    H167390   1.884   6.376   0.333  0.7508  1.4947  0.2171
15325TIP3    H267391   1.807   6.502   0.366 -1.1691  0.9336 -1.9032
15326TIP3   OH267392   1.028   2.864  16.959  0.2763  0.0107 -0.7145
15326TIP3    H167393   1.016   2.783  17.008 -1.3655  0.2517 -0.6541
15326TIP3    H267394   1.018   2.934  17.025 -0.6777  0.3016 -1.1472
15327TIP3   OH267395   3.276   1.523  11.849 -0.1184  0.4137  0.2153
15327TIP3    H167396   3.279   1.504  11.943  0.4559  0.0314  0.1216
15327TIP3    H267397   3.235   1.610  11.843 -0.8587  0.1148  0.7713
15328TIP3   OH267398   0.170   5.001   4.494  0.0549 -0.2721  0.0766
15328TIP3    H167399   0.220   4.922   4.510 -0.5121 -0.6506 -0.0040
15328TIP3    H267400   0.175   5.014   4.399 -0.5463 -0.6782 -0.0135
15329TIP3   OH267401   5.760   2.041  13.024 -0.2248 -0.0100  0.0991
15329TIP3    H167402   5.813   2.002  13.094 -1.5596 -0.2685  0.9960
15329TIP3    H267403   5.670   2.023  13.049 -0.8018  1.5442 -0.7365
15330TIP3   OH267404   5.807   4.459   5.700 -0.1135 -0.7022 -0.0574
15330TIP3    H167405   5.781   4.508   5.622  1.9286 -0.6566 -0.7673
15330TIP3    H267406   5.774   4.371   5.686  0.4694 -0.7639 -1.1401
15331TIP3   OH267407   4.768   3.670  14.518 -0.7356  0.3783  0.1814
15331TIP3    H167408   4.837   3.721  14.475  1.6848 -2.4296  0.4279
15331TIP3    H267409   4.791   3.672  14.611 -0.2762 -1.4309  0.1509
15332TIP3   OH267410   1.478   2.638   1.871 -0.8132 -0.4240  0.1289
15332TIP3    H167411   1.476   2.597   1.957  2.2687 -1.9218 -0.3438
15332TIP3    H267412   1.444   2.571   1.811 -2.1658  0.3029  0.0537
15333TIP3   OH267413   4.198   0.041  11.659 -0.0733  0.7312 -0.0800
15333TIP3    H167414   4.149  -0.039  11.640 -0.0703  0.2512  1.8095
15333TIP3    H267415   4.141   0.111  11.628  0.0149  0.0321 -1.9561
15334TIP3   OH267416   6.028   3.908   4.049  0.1269 -0.6541  0.3071
15334TIP3    H167417   6.063   3.937   4.134 -1.0601  1.2307  0.2220
15334TIP3    H267418   5.958   3.847   4.071  0.9032 -1.4382  0.6172
15335TIP3   OH267419   6.616   5.395  14.792  0.1404  0.1105 -0.2310
15335TIP3    H167420   6.565   5.378  14.872  1.7177  1.4861  1.1493
15335TIP3    H267421   6.627   5.490  14.791  1.6602 -0.0476 -1.1288
15336TIP3   OH267422   3.953   1.702   2.100  0.5638  0.0663  0.2512
15336TIP3    H167423   4.007   1.627   2.125 -0.6246 -1.2264 -0.9374
15336TIP3    H267424   3.985   1.773   2.156  0.2714 -1.8214  3.0386
15337TIP3   OH267425   1.827   1.454   2.269  0.4067  0.0561 -0.0059
15337TIP3    H167426   1.846   1.420   2.182 -1.4101  0.4903 -0.6180
15337TIP3    H267427   1.736   1.427   2.286 -0.4988  2.8856  0.2545
15338TIP3   OH267428   1.852   2.684  13.269  0.3475  0.0290  0.2059
15338TIP3    H167429   1.848   2.711  13.177  1.2055  1.5789  0.5984
15338TIP3    H267430   1.889   2.595  13.266 -0.9063 -0.4871 -1.0077
15339TIP3   OH267431   5.847   2.026   1.951 -0.1445 -0.6603 -0.0065
15339TIP3    H167432   5.770   1.969   1.944  0.4240 -1.3779 -0.6530
15339TIP3    H267433   5.827   2.100   1.894 -1.6188  0.7028  2.1499
15340TIP3   OH267434   6.741   5.987   6.446  0.2328 -0.2414 -0.0422
15340TIP3    H167435   6.680   5.915   6.458 -0.7335  0.8238  1.9091
15340TIP3    H267436   6.811   5.970   6.509  0.5134  0.0144 -0.2807
15341TIP3   OH267437   6.004   3.494   4.610 -0.1747  0.5920  0.0571
15341TIP3    H167438   5.970   3.498   4.521 -0.4031  1.0106  0.1613
15341TIP3    H267439   5.951   3.426   4.654 -0.0945  0.4215 -0.1084
15342TIP3   OH267440   2.237   5.487   3.281 -0.0062  0.0852  0.4945
15342TIP3    H167441   2.323   5.447   3.264  0.6098  1.3803  0.4360
15342TIP3    H267442   2.177   5.441   3.222  0.6980 -0.6489  0.3377
15343TIP3   OH267443   4.349   5.759   0.825 -0.8149 -0.3296  0.3905
15343TIP3    H167444   4.319   5.784   0.737 -3.9194 -1.5208  1.0048
15343TIP3    H267445   4.401   5.680   0.811 -1.9271 -0.9520 -0.3244
15344TIP3   OH267446   5.930   2.306  12.669 -0.5313  0.0085  0.2461
15344TIP3    H167447   5.944   2.269  12.582 -0.2944 -0.8116  0.6271
15344TIP3    H267448   5.972   2.392  12.665 -2.1372  0.7748 -1.0155
15345TIP3   OH267449   5.435   0.253   2.811  0.8127 -0.1164  0.2925
15345TIP3    H167450   5.463   0.339   2.842 -0.0260 -0.0038  0.7781
15345TIP3    H267451   5.412   0.205   2.890  3.1761 -1.5296  0.2039
15346TIP3   OH267452   1.355   0.809   5.163 -0.2134 -0.2159  0.3465
15346TIP3    H167453   1.391   0.772   5.243 -1.5045  1.3475  1.7211
15346TIP3    H267454   1.429   0.853   5.121  0.8335 -2.3716 -0.2089
15347TIP3   OH267455   3.831   0.563  13.339 -0.3803  0.1886  0.0049
15347TIP3    H167456   3.912   0.566  13.390 -0.7237 -0.0681  0.5769
15347TIP3    H267457   3.845   0.494  13.275  0.3252  0.9938 -0.7170
15348TIP3   OH267458   6.646   0.912   2.252  0.0549 -0.1157  0.2999
15348TIP3    H167459   6.647   1.006   2.265 -1.1957 -0.3125  2.1193
15348TIP3    H267460   6.729   0.893   2.208 -0.1459  1.9173 -1.0815
15349TIP3   OH267461   1.432   2.386   3.318 -0.2902 -0.1006  0.1064
15349TIP3    H167462   1.399   2.338   3.394  0.2213  1.6402  1.4957
15349TIP3    H267463   1.356   2.435   3.286 -0.6228 -1.1766 -0.8544
15350TIP3   OH267464   3.606   3.386  15.657 -0.1535 -0.1645 -0.3967
15350TIP3    H167465   3.667   3.425  15.594  0.4165 -0.9918 -0.3840
15350TIP3    H267466   3.564   3.314  15.609 -0.3160 -0.2852 -0.0788
15351TIP3   OH267467   5.833   0.925  15.831  0.0443 -0.6322  0.0756
15351TIP3    H167468   5.783   0.995  15.873  0.7381 -1.0663  1.7408
15351TIP3    H267469   5.768   0.878  15.778 -0.7905  0.2261  0.3042
15352TIP3   OH267470   6.076   4.835  15.925  0.2907 -0.2182 -0.1948
15352TIP3    H167471   6.078   4.924  15.889  0.8554 -0.3317 -0.4525
15352TIP3    H267472   6.167   4.816  15.948  0.3123 -1.0250 -0.8886
15353TIP3   OH267473   1.186   3.770   2.788  0.0278 -0.0960 -0.2601
15353TIP3    H167474   1.231   3.848   2.820  0.3301  0.6911 -2.4285
15353TIP3    H267475   1.122   3.803   2.725  0.4952 -1.5704 -1.5893
15354TIP3   OH267476   4.748   3.425   1.303 -0.4074  0.5348  0.0796
15354TIP3    H167477   4.774   3.336   1.279 -1.9801  0.4164 -1.3965
15354TIP3    H267478   4.775   3.435   1.394 -0.8569 -1.6960  0.4962
15355TIP3   OH267479   2.535   5.369  11.446 -0.5518 -0.2109  0.0047
15355TIP3    H167480   2.628   5.372  11.469 -0.4447 -1.0888 -0.2902
15355TIP3    H267481   2.534   5.371  11.351 -0.8326 -0.4060  0.0044
15356TIP3   OH267482   4.555   6.596  15.587 -0.0052 -0.3131 -0.4902
15356TIP3    H167483   4.488   6.550  15.637  0.7200 -1.4928 -0.5789
15356TIP3    H267484   4.512   6.618  15.504 -0.4864 -0.4401 -0.2802
15357TIP3   OH267485   3.073   5.725   4.787 -0.6967 -0.3020 -0.1218
15357TIP3    H167486   3.057   5.738   4.694 -0.8849  0.3651  0.0013
15357TIP3    H267487   3.016   5.653   4.812 -2.3015  0.9303 -0.0574
15358TIP3   OH267488   1.172   1.756  13.474  0.4991 -0.7243  0.6963
15358TIP3    H167489   1.205   1.845  13.489  1.4651 -1.0980  0.8923
15358TIP3    H267490   1.228   1.722  13.404 -0.5961 -0.8000 -0.1683
15359TIP3   OH267491   2.500   1.690  13.337 -0.0868 -0.3492 -0.6738
15359TIP3    H167492   2.584   1.730  13.359  0.0056 -0.3768 -0.9755
15359TIP3    H267493   2.498   1.609  13.387  0.3857 -0.7110 -1.2260
15360TIP3   OH267494   1.689   2.936   1.397  0.1270  0.2129 -0.2236
15360TIP3    H167495   1.640   2.865   1.439 -0.0582  0.2270 -0.4082
15360TIP3    H267496   1.626   3.007   1.390  0.8062  1.0341  1.5538
15361TIP3   OH267497   4.090   4.467   6.454  0.1617 -0.6657  0.1354
15361TIP3    H167498   4.043   4.503   6.379 -0.6010 -1.6617  0.1261
15361TIP3    H267499   4.026   4.412   6.498  0.4222  0.3460  1.8614
15362TIP3   OH267500   1.096   5.360  14.387 -0.3955  0.0672 -0.7703
15362TIP3    H167501   1.135   5.447  14.381  0.2102 -0.2015 -0.7733
15362TIP3    H267502   1.102   5.326  14.298 -2.4204  0.7666 -1.2406
15363TIP3   OH267503   4.461   2.279   1.034 -0.6237 -0.3612 -0.1833
15363TIP3    H167504   4.400   2.325   0.977  0.7563  1.5068 -0.2427
15363TIP3    H267505   4.441   2.311   1.122  3.7670  4.9505 -0.6381
15364TIP3   OH267506   0.633   3.634   1.338 -0.6682  0.1101 -0.0950
15364TIP3    H167507   0.696   3.562   1.334  0.1721  0.8443 -0.2835
15364TIP3    H267508   0.548   3.590   1.338 -0.1674 -0.9385  1.1256
15365TIP3   OH267509   2.327   0.745   3.194  0.3033 -0.1986  0.2024
15365TIP3    H167510   2.345   0.839   3.195 -1.8239  0.2572 -0.1419
15365TIP3    H267511   2.414   0.704   3.195  1.2854  1.7590 -0.2813
15366TIP3   OH267512   5.104   5.706   0.146  0.3303  0.3357  0.0754
15366TIP3    H167513   5.193   5.675   0.161  0.3402  0.3339  0.0157
15366TIP3    H267514   5.101   5.793   0.187  0.3431  0.3128  0.1243
15367TIP3   OH267515   5.050   4.563  16.968  0.3522  0.0159  0.2846
15367TIP3    H167516   5.030   4.580  16.876 -0.9181  0.5438  0.6378
15367TIP3    H267517   4.969   4.525  17.003  1.0817 -0.9016  1.0002
15368TIP3   OH267518   1.267   1.562   4.170 -0.1520 -0.6140 -0.4436
15368TIP3    H167519   1.344   1.508   4.153 -0.1242 -0.6270 -0.2850
15368TIP3    H267520   1.300   1.652   4.168  0.0209 -0.6476  0.3562
15369TIP3   OH267521   5.794   6.323   2.817  0.2544  0.7521 -0.4683
15369TIP3    H167522   5.759   6.311   2.905  0.0923  0.8619 -0.5173
15369TIP3    H267523   5.872   6.267   2.814 -0.5148 -0.3299 -0.7064
15370TIP3   OH267524   5.017   3.204  15.357 -0.4144 -0.4629 -0.4067
15370TIP3    H167525   5.066   3.122  15.360  1.8376  0.7810 -0.3248
15370TIP3    H267526   5.054   3.256  15.428 -1.3384  0.8450 -0.8550
15371TIP3   OH267527   6.510   5.931   5.087 -0.3533  0.0643 -0.2797
15371TIP3    H167528   6.466   5.909   5.169  1.4793 -0.4699  0.5877
15371TIP3    H267529   6.540   5.847   5.052  3.2894  0.6062  1.1149
15372TIP3   OH267530   1.360   3.719  10.833 -0.3830 -0.3066 -0.1256
15372TIP3    H167531   1.281   3.716  10.888  0.9528  0.5516  1.9661
15372TIP3    H267532   1.360   3.807  10.795  0.1393  0.1326  0.8467
15373TIP3   OH267533   0.168   3.587   1.569 -0.1050  0.0142  0.1914
15373TIP3    H167534   0.113   3.525   1.521  1.6447 -1.9400  0.5668
15373TIP3    H267535   0.197   3.539   1.647  1.6926  1.1199  0.2673
15374TIP3   OH267536   5.590   1.086   4.162  0.1836  0.9845  0.2488
15374TIP3    H167537   5.562   1.178   4.161 -2.8294  0.1877  0.9151
15374TIP3    H267538   5.619   1.071   4.251 -1.4057  0.8034  0.7704
15375TIP3   OH267539   0.261   1.409   5.289 -0.6026  0.2309  0.0239
15375TIP3    H167540   0.181   1.360   5.270 -0.5467 -0.8714  2.3068
15375TIP3    H267541   0.329   1.342   5.294  0.3111  1.0591 -0.9022
15376TIP3   OH267542   3.113   3.923   0.969 -0.1595 -0.6764  0.2396
15376TIP3    H167543   3.172   3.854   0.999  0.0417 -0.5070  0.2388
15376TIP3    H267544   3.039   3.921   1.030  0.2577 -0.3140  0.7647
15377TIP3   OH267545   3.461   2.007   1.479 -0.0255  0.3799  0.1534
15377TIP3    H167546   3.368   2.019   1.500  0.0824  0.6142  0.5139
15377TIP3    H267547   3.504   2.003   1.565  0.5223  2.0744  0.0085
15378TIP3   OH267548   1.493   6.228   4.701 -0.2707 -0.0910  0.7236
15378TIP3    H167549   1.567   6.171   4.680  0.0290 -0.0590  1.6572
15378TIP3    H267550   1.433   6.172   4.749  0.0240  0.3731  1.6465
15379TIP3   OH267551   1.920   3.186  10.852  0.3872 -0.1263  0.6573
15379TIP3    H167552   1.829   3.159  10.866 -0.3543  1.8644  0.0539
15379TIP3    H267553   1.956   3.120  10.793 -0.5433 -1.1466  1.1859
15380TIP3   OH267554   3.750   1.741  16.620 -0.1088 -0.3499 -0.3051
15380TIP3    H167555   3.686   1.677  16.648 -1.0503  0.5134 -0.4147
15380TIP3    H267556   3.813   1.746  16.692  0.0007 -1.3935 -0.3103
15381TIP3   OH267557   4.569   2.660  15.257  0.6913  0.1982  0.3694
15381TIP3    H167558   4.638   2.697  15.202  1.2995 -1.2250  0.1378
15381TIP3    H267559   4.500   2.633  15.196  0.6921  0.0336  0.4387
15382TIP3   OH267560   4.661   2.463   2.732 -0.0955  0.0656 -0.7383
15382TIP3    H167561   4.736   2.520   2.716  0.8451 -1.4625 -2.1760
15382TIP3    H267562   4.597   2.488   2.665  1.1632 -1.8459 -2.8139
15383TIP3   OH267563   6.723   5.633   5.238  0.6153 -0.1937  0.3212
15383TIP3    H167564   6.666   5.583   5.297  0.2626 -1.0687 -0.7245
15383TIP3    H267565   6.802   5.578   5.229  1.6565  0.9815  1.7145
15384TIP3   OH267566   3.801   1.194   2.463  0.4108  0.2620  0.8566
15384TIP3    H167567   3.893   1.218   2.451  0.3865  1.6553  2.8614
15384TIP3    H267568   3.771   1.250   2.535 -2.7192  1.7137 -1.3136
15385TIP3   OH267569   3.282   0.605   0.062  0.1399  0.5968 -0.4674
15385TIP3    H167570   3.204   0.550   0.066 -0.7358  1.8901  1.6490
15385TIP3    H267571   3.348   0.557   0.112  0.5516 -0.1790 -1.6966
15386TIP3   OH267572   6.466   0.276   3.390 -0.2636 -0.3815 -0.1502
15386TIP3    H167573   6.490   0.299   3.300  0.3592  0.0527  0.1147
15386TIP3    H267574   6.545   0.234   3.425 -0.8350 -1.4585 -0.1079
15387TIP3   OH267575   5.615   1.749   3.002 -0.3585  0.0352  0.2100
15387TIP3    H167576   5.704   1.781   3.016  0.1362 -0.5107 -1.4154
15387TIP3    H267577   5.562   1.794   3.067  0.7426  2.0917 -0.2314
15388TIP3   OH267578   6.137   4.824   4.153  0.2858 -0.1161 -0.1160
15388TIP3    H167579   6.202   4.790   4.091  0.0679  0.0428 -0.4309
15388TIP3    H267580   6.056   4.829   4.103 -0.1188 -0.8937  0.4373
15389TIP3   OH267581   6.192   4.684   1.479 -0.3857  0.5923 -0.1938
15389TIP3    H167582   6.210   4.619   1.411 -2.1770 -0.4433  0.2616
15389TIP3    H267583   6.279   4.709   1.512  0.5087  0.9483 -2.6458
15390TIP3   OH267584   1.435   1.388  12.634  0.5882  0.1876  0.3184
15390TIP3    H167585   1.460   1.303  12.670 -1.0877 -1.6982 -2.5992
15390TIP3    H267586   1.340   1.391  12.643  0.5864  1.5526 -0.0258
15391TIP3   OH267587   3.145   2.089   0.915  0.1149 -0.0203 -0.2223
15391TIP3    H167588   3.201   2.133   0.851  1.6240  0.9627  1.6984
15391TIP3    H267589   3.060   2.131   0.906  0.1763 -0.1753 -1.8170
15392TIP3   OH267590   3.732   4.368  13.655  0.2473 -0.1346  0.0497
15392TIP3    H167591   3.693   4.454  13.637  1.1392 -0.0911 -2.1194
15392TIP3    H267592   3.708   4.315  13.579  2.1949 -0.8487 -0.1380
15393TIP3   OH267593   6.734   2.866  15.133 -0.4225 -0.1801 -0.1696
15393TIP3    H167594   6.800   2.833  15.071 -1.1116 -0.7980 -0.5820
15393TIP3    H267595   6.727   2.959  15.112 -2.1717 -0.7499 -2.4918
15394TIP3   OH267596   1.993   3.969   1.814  0.2183  0.3229 -0.2395
15394TIP3    H167597   2.069   3.962   1.756 -0.0333  1.2202 -0.6930
15394TIP3    H267598   1.957   3.880   1.817  0.1107  0.2857 -1.6434
15395TIP3   OH267599   6.638   6.292   6.539 -0.3447  0.2750 -0.1243
15395TIP3    H167600   6.601   6.353   6.476  1.1352 -0.0638 -1.3752
15395TIP3    H267601   6.733   6.307   6.535 -0.1323 -0.4355  1.3142
15396TIP3   OH267602   5.735   4.546   3.518 -0.0739 -1.0389 -0.0560
15396TIP3    H167603   5.692   4.461   3.503  0.9284 -1.6599  0.4903
15396TIP3    H267604   5.717   4.566   3.610 -0.0165 -0.8272 -0.0919
15397TIP3   OH267605   0.517   3.102  12.610 -0.3376  0.6742 -0.0683
15397TIP3    H167606   0.444   3.073  12.555 -0.6525  0.1799  0.5980
15397TIP3    H267607   0.510   3.197  12.611 -1.6905  0.5906  0.9458
15398TIP3   OH267608   5.502   4.659   3.141 -0.0033  0.2115 -0.3664
15398TIP3    H167609   5.427   4.700   3.182 -0.7075  0.6289 -1.9705
15398TIP3    H267610   5.560   4.731   3.118 -0.5703  0.2405 -1.8725
15399TIP3   OH267611   6.057   0.203  11.203  0.1060 -0.3944 -0.4302
15399TIP3    H167612   6.147   0.229  11.221  0.9394 -1.7967 -2.2538
15399TIP3    H267613   6.010   0.286  11.191  1.6572  0.3742 -1.6150
15400TIP3   OH267614   2.569   5.783   5.785 -0.6473  0.2690  0.5004
15400TIP3    H167615   2.527   5.771   5.870  0.2735 -0.1107  0.9105
15400TIP3    H267616   2.520   5.727   5.726  0.1514 -1.3019  1.2677
15401TIP3   OH267617   5.857   0.583  17.147  0.3825 -0.0060  0.4726
15401TIP3    H167618   5.906   0.614  17.071 -0.6969 -1.4992 -0.8958
15401TIP3    H267619   5.906   0.507  17.179  0.7233  0.4951  1.1686
15402TIP3   OH267620   2.331   2.691  12.934  0.4248 -0.1101  0.2565
15402TIP3    H167621   2.360   2.739  12.856 -0.1519 -0.1552  0.0079
15402TIP3    H267622   2.259   2.636  12.902  0.4289 -0.4020  0.7475
15403TIP3   OH267623   3.937   4.273  16.101  0.1855 -0.4417  0.1453
15403TIP3    H167624   3.971   4.321  16.025  1.6029 -0.5040  0.7227
15403TIP3    H267625   3.876   4.209  16.063  1.5326 -1.0687 -1.0350
15404TIP3   OH267626   3.702   5.254   6.108  0.2531 -0.1367 -0.2873
15404TIP3    H167627   3.740   5.285   6.190  0.7570 -0.8648 -0.2345
15404TIP3    H267628   3.607   5.257   6.122  0.3227  0.3892  0.0766
15405TIP3   OH267629   1.838   4.362   4.686  0.9935 -0.0726  0.2983
15405TIP3    H167630   1.839   4.405   4.772 -0.0500  0.9513 -0.1719
15405TIP3    H267631   1.755   4.389   4.647 -1.0863 -4.5582  0.9493
15406TIP3   OH267632   4.934   2.009  16.156 -0.5445  0.2934 -0.1849
15406TIP3    H167633   5.010   2.056  16.191 -0.4661 -0.1143  0.2027
15406TIP3    H267634   4.949   1.918  16.180 -1.5210  0.3081  0.5527
15407TIP3   OH267635   0.227   6.454  13.162 -0.0916  0.0572  0.2780
15407TIP3    H167636   0.176   6.535  13.173 -2.4088 -1.1118 -0.9987
15407TIP3    H267637   0.199   6.398  13.234 -2.6350 -1.4590 -1.6754
15408TIP3   OH267638   2.610   6.636   1.975  0.4119  0.4406  0.7544
15408TIP3    H167639   2.519   6.608   1.969  1.0536 -1.5294 -0.5212
15408TIP3    H267640   2.613   6.692   2.054 -2.0260  1.2712  0.3270
15409TIP3   OH267641   0.945   0.509   2.601 -0.1744 -0.0228 -0.6831
15409TIP3    H167642   0.875   0.450   2.630  0.4168 -0.0951  0.6515
15409TIP3    H267643   1.021   0.452   2.588  0.7608  0.5501  1.8376
15410TIP3   OH267644   2.903   5.366   3.624  0.6016  0.3027  0.2601
15410TIP3    H167645   2.835   5.299   3.618 -1.3790  2.2026  0.1594
15410TIP3    H267646   2.945   5.365   3.538 -2.3608  2.0193 -1.3859
15411TIP3   OH267647   2.855   3.527   7.035  0.0333 -0.1772  0.4345
15411TIP3    H167648   2.836   3.475   6.958  0.0993  1.3652 -0.6638
15411TIP3    H267649   2.827   3.473   7.109 -2.8751 -0.4754 -0.7920
15412TIP3   OH267650   1.387   5.249  15.571  0.1336  0.3085 -0.3457
15412TIP3    H167651   1.444   5.230  15.496  0.7650 -1.3575  0.5165
15412TIP3    H267652   1.310   5.194  15.557 -0.2331  0.8138 -0.3213
15413TIP3   OH267653   3.587   3.728   5.203  0.6856 -0.2021 -0.1052
15413TIP3    H167654   3.529   3.743   5.128  1.8394  0.7586 -0.8396
15413TIP3    H267655   3.529   3.695   5.272 -0.4152 -1.0566 -1.3903
15414TIP3   OH267656   3.623   2.686  12.492 -0.3551  0.0318  0.1492
15414TIP3    H167657   3.584   2.610  12.536 -2.4096  0.0488 -1.4787
15414TIP3    H267658   3.588   2.762  12.539  1.1545  0.0517  1.3368
15415TIP3   OH267659   3.348   5.724   4.771  0.1710 -0.4494  0.6203
15415TIP3    H167660   3.252   5.730   4.779  0.1286  1.8670 -0.5818
15415TIP3    H267661   3.381   5.766   4.850  0.1113  0.6380  0.0970
15416TIP3   OH267662   0.336   6.101   0.130  0.0086  0.1720  0.0103
15416TIP3    H167663   0.336   6.196   0.119  1.6181  0.0259 -1.9137
15416TIP3    H267664   0.420   6.082   0.173 -1.2009 -0.2668  2.2980
15417TIP3   OH267665   0.259   3.687  16.535 -0.0203 -0.1411 -0.3518
15417TIP3    H167666   0.304   3.667  16.617 -1.2520  3.0549  1.3046
15417TIP3    H267667   0.317   3.749  16.491 -0.9782  0.9946 -0.0640
15418TIP3   OH267668   2.560   5.560   3.511 -0.1599 -0.1717  0.4507
15418TIP3    H167669   2.488   5.621   3.522  0.1027  0.4858 -1.0965
15418TIP3    H267670   2.524   5.474   3.535 -0.0665  0.7088  4.3233
15419TIP3   OH267671   1.196   3.757   4.171 -0.2824 -0.5543 -0.6340
15419TIP3    H167672   1.158   3.732   4.086  0.5985  0.1887 -1.2751
15419TIP3    H267673   1.177   3.851   4.178  1.3828 -0.1621 -0.9747
15420TIP3   OH267674   2.951   2.956  16.992 -0.0101  0.7674 -0.1676
15420TIP3    H167675   2.911   3.032  16.949 -0.1814  1.7169  1.5945
15420TIP3    H267676   2.944   2.974  17.085  0.4529 -1.1783  0.2983
15421TIP3   OH267677   4.789   2.225  17.035  0.0977  0.1175  0.3150
15421TIP3    H167678   4.827   2.164  16.972  2.0110  0.9707  0.5742
15421TIP3    H267679   4.721   2.174  17.080  0.4493 -1.2666 -0.6517
15422TIP3   OH267680   0.856   0.460  13.721 -0.4348 -0.4476 -0.0556
15422TIP3    H167681   0.935   0.405  13.715 -0.5644 -0.6039 -0.3708
15422TIP3    H267682   0.882   0.543  13.681 -0.7608 -0.8830 -1.2024
15423TIP3   OH267683   2.291   2.577   3.695  0.1320 -0.0415  0.3482
15423TIP3    H167684   2.249   2.516   3.634 -1.2921  1.3106 -0.1193
15423TIP3    H267685   2.345   2.633   3.639 -0.8918  0.9743  0.3483
15424TIP3   OH267686   1.863   3.876   4.513 -0.4697  0.2639 -0.2900
15424TIP3    H167687   1.818   3.824   4.580 -2.5304  0.1479 -1.6850
15424TIP3    H267688   1.845   3.967   4.537 -4.3169  0.3036 -2.4170
15425TIP3   OH267689   1.493   5.281   4.576 -0.4866  0.2725  0.4858
15425TIP3    H167690   1.550   5.240   4.511  0.3551  1.5395  0.3951
15425TIP3    H267691   1.463   5.208   4.631  1.6114 -0.3817  0.8400
15426TIP3   OH267692   5.581   1.559   4.959 -0.3836 -0.3887 -0.3490
15426TIP3    H167693   5.654   1.615   4.984 -0.6289  1.0612 -2.6492
15426TIP3    H267694   5.615   1.470   4.969  0.1505  0.0635  2.9974
15427TIP3   OH267695   4.932   0.339   4.491  0.1706 -1.0354 -0.3539
15427TIP3    H167696   4.853   0.367   4.537  0.3143 -2.1830  0.6230
15427TIP3    H267697   4.980   0.285   4.554  1.5458 -0.6946 -1.0624
15428TIP3   OH267698   2.015   0.323   5.666 -0.3143 -0.5659 -0.4688
15428TIP3    H167699   2.021   0.240   5.715 -0.9927 -1.2757 -1.5476
15428TIP3    H267700   1.954   0.376   5.716  0.7719 -0.3667  0.6985
15429TIP3   OH267701   2.465   6.436   0.884 -0.0107  0.1825  0.4310
15429TIP3    H167702   2.406   6.465   0.953 -0.1588 -0.9021  0.7782
15429TIP3    H267703   2.422   6.360   0.845 -0.1162  1.0070 -1.1440
15430TIP3   OH267704   1.090   1.650  14.178  0.1338 -0.0222 -0.3673
15430TIP3    H167705   1.063   1.742  14.180  0.1442 -0.0232 -0.2004
15430TIP3    H267706   1.138   1.637  14.259 -2.2076 -0.8888  0.9697
15431TIP3   OH267707   2.552   2.084   5.285 -0.5131 -0.6515 -0.4048
15431TIP3    H167708   2.476   2.032   5.308 -0.1711 -0.3157  1.7562
15431TIP3    H267709   2.624   2.021   5.280 -0.4724 -0.6626  0.1947
15432TIP3   OH267710   0.310   1.782  15.931 -0.5041 -0.4358  0.2038
15432TIP3    H167711   0.268   1.828  16.003  0.9146  1.0459  0.1464
15432TIP3    H267712   0.393   1.827  15.919 -0.8908 -0.2744 -2.6796
15433TIP3   OH267713   5.981   0.939   3.205  0.7316  0.0198 -0.2017
15433TIP3    H167714   5.981   0.989   3.287  0.7927 -1.3108  0.6298
15433TIP3    H267715   5.956   1.003   3.138 -0.7862  0.8030  1.0572
15434TIP3   OH267716   3.940   4.170  16.591  0.2115 -0.2066  0.4855
15434TIP3    H167717   3.893   4.185  16.509 -0.2706  0.5797  0.8861
15434TIP3    H267718   3.884   4.109  16.639  0.2791 -0.3282  0.4110
15435TIP3   OH267719   5.528   4.338   3.560 -0.7742 -0.6325  0.3359
15435TIP3    H167720   5.545   4.339   3.655  1.5218  2.7557  0.0340
15435TIP3    H267721   5.452   4.395   3.549  1.4857  2.5432 -0.0471
15436TIP3   OH267722   5.138   5.488  10.795 -0.5412  0.1739  0.1129
15436TIP3    H167723   5.191   5.554  10.750 -1.0156  0.8766  0.5745
15436TIP3    H267724   5.178   5.482  10.882  0.5073 -1.3363 -0.4307
15437TIP3   OH267725   0.861   6.607  11.716  0.8425  0.3294  0.1992
15437TIP3    H167726   0.862   6.526  11.767  0.2903  0.3337  0.2194
15437TIP3    H267727   0.769   6.626  11.702  0.9543  1.0587  0.3609
15438TIP3   OH267728   4.787   1.081   0.476  0.0376 -0.8905  0.0837
15438TIP3    H167729   4.840   1.083   0.397 -1.1166  1.3573 -0.7464
15438TIP3    H267730   4.817   1.157   0.526 -2.0669  0.2825 -0.2803
15439TIP3   OH267731   3.575   6.020   1.223 -0.0273  0.0788 -0.1476
15439TIP3    H167732   3.485   6.049   1.207  0.2189  0.9444 -0.0119
15439TIP3    H267733   3.629   6.082   1.173  0.5057 -0.2136  0.0648
15440TIP3   OH267734   5.766   1.848   5.414  0.4647  0.2701 -0.1896
15440TIP3    H167735   5.692   1.840   5.474  0.9493 -0.6777  0.3027
15440TIP3    H267736   5.816   1.922   5.447  0.1454  0.4323 -0.0692
15441TIP3   OH267737   4.813   1.996   3.138 -0.3112 -0.2238 -0.0929
15441TIP3    H167738   4.741   2.057   3.123  1.0160  0.9671 -2.0020
15441TIP3    H267739   4.882   2.049   3.179  0.7031 -0.4872 -1.3891
15442TIP3   OH267740   1.423   6.481   1.402 -0.4678  0.3193  0.0299
15442TIP3    H167741   1.440   6.414   1.469 -0.1435 -0.9387 -1.2482
15442TIP3    H267742   1.442   6.564   1.446  4.5785 -0.6240  0.2080
15443TIP3   OH267743   3.750   5.390  15.362 -0.2866  0.2260  0.5097
15443TIP3    H167744   3.823   5.370  15.422 -2.4030 -1.6596  2.6625
15443TIP3    H267745   3.756   5.323  15.294  0.5362  0.6779  0.1286
15444TIP3   OH267746   5.006   4.395   0.842 -0.2796  0.2449 -0.6412
15444TIP3    H167747   5.067   4.354   0.780  0.0431  1.2689 -1.0131
15444TIP3    H267748   4.983   4.324   0.903  3.9007  0.5325  1.6263
15445TIP3   OH267749   0.645   1.572  14.980 -0.0986 -0.3407  0.0452
15445TIP3    H167750   0.665   1.483  15.008  1.0674 -0.2659 -0.5081
15445TIP3    H267751   0.710   1.627  15.025 -0.6115  0.1964  0.1427
15446TIP3   OH267752   3.585   3.001   3.028 -0.1207 -0.1941 -0.3064
15446TIP3    H167753   3.672   3.007   3.068 -1.3933 -0.9006  2.8649
15446TIP3    H267754   3.554   2.914   3.050 -3.4472  1.5483  3.0421
15447TIP3   OH267755   4.776   4.576   3.271  0.0315 -0.0189 -0.2596
15447TIP3    H167756   4.716   4.638   3.312  1.0907  0.4958  0.5635
15447TIP3    H267757   4.857   4.625   3.259  0.1032 -0.4944 -1.9993
15448TIP3   OH267758   1.508   3.214  14.634 -0.3739  0.0774  0.1075
15448TIP3    H167759   1.575   3.239  14.570  0.3329 -1.8978 -0.0095
15448TIP3    H267760   1.543   3.245  14.718 -0.1381  0.5543 -0.1606
15449TIP3   OH267761   0.650   1.759  11.173 -0.8201  0.4996 -0.0157
15449TIP3    H167762   0.703   1.686  11.141  1.2404  1.9146 -0.0639
15449TIP3    H267763   0.565   1.720  11.195 -0.5213 -1.4726 -2.0602
15450TIP3   OH267764   0.769   2.192   1.721  0.1740 -0.0245 -0.7304
15450TIP3    H167765   0.722   2.218   1.800 -0.8633  0.0262 -1.3516
15450TIP3    H267766   0.723   2.115   1.689  0.6425 -0.1034 -1.2447
15451TIP3   OH267767   0.094   5.105   5.920 -0.2490  0.2062 -0.1760
15451TIP3    H167768   0.026   5.062   5.869  0.5335  0.3037 -1.3392
15451TIP3    H267769   0.163   5.124   5.857 -0.5108  3.1333  0.2520
15452TIP3   OH267770   4.397   0.067   4.552 -0.4679 -0.4006  0.4062
15452TIP3    H167771   4.351   0.081   4.635 -0.2360  0.6023  0.3825
15452TIP3    H267772   4.455   0.143   4.544 -0.8172 -0.2522 -0.9052
15453TIP3   OH267773   2.704   0.065  13.226  0.1432  0.3970 -0.1258
15453TIP3    H167774   2.764   0.067  13.300 -1.4742 -1.2377  1.3443
15453TIP3    H267775   2.631   0.121  13.253 -0.1697  0.3032 -0.7595
15454TIP3   OH267776   4.389   5.649  12.278  0.3548 -1.0161 -0.3417
15454TIP3    H167777   4.405   5.691  12.194  1.0282  1.2475  0.8386
15454TIP3    H267778   4.429   5.707  12.342 -3.0293 -0.8273  1.8603
15455TIP3   OH267779   4.362   4.427  14.106  0.1865 -0.0898  0.0266
15455TIP3    H167780   4.394   4.337  14.109  0.4968 -0.0355 -1.0195
15455TIP3    H267781   4.368   4.458  14.196  1.3704 -0.6830  0.1716
15456TIP3   OH267782   4.370   3.531  14.737 -0.1171  0.4207  0.2688
15456TIP3    H167783   4.347   3.617  14.703 -1.9682  1.2081  3.1753
15456TIP3    H267784   4.463   3.538  14.760 -0.0104  1.3061 -0.4062
15457TIP3   OH267785   0.284   4.361   5.244 -0.0635  0.4898 -0.4756
15457TIP3    H167786   0.247   4.428   5.186  0.1006  0.5358 -0.5281
15457TIP3    H267787   0.259   4.389   5.332 -1.2019 -0.1318 -0.5865
15458TIP3   OH267788   5.982   2.391  11.909 -0.3547 -0.0154  0.0862
15458TIP3    H167789   5.963   2.324  11.844  1.9114 -0.5580 -0.1119
15458TIP3    H267790   5.960   2.474  11.865  1.0815 -0.3720 -1.4212
15459TIP3   OH267791   4.236   6.598   4.451  0.6630  0.5987  0.1626
15459TIP3    H167792   4.303   6.646   4.499  0.6052 -0.4470  1.3606
15459TIP3    H267793   4.181   6.559   4.520  1.3024 -1.9829 -0.6730
15460TIP3   OH267794   5.512   0.167  13.567  0.6001  0.5547  0.2839
15460TIP3    H167795   5.499   0.238  13.631  1.6461  0.0118  1.1374
15460TIP3    H267796   5.467   0.092  13.606  0.8478  0.3468  0.1753
15461TIP3   OH267797   1.334   3.933   2.619 -0.0243 -0.7304  0.1782
15461TIP3    H167798   1.249   3.967   2.648  1.1861  0.8650  2.1501
15461TIP3    H267799   1.326   3.927   2.524 -0.9378  3.8403 -0.2767
15462TIP3   OH267800   4.229   3.760  12.022 -0.2795  0.1764 -0.4908
15462TIP3    H167801   4.287   3.806  12.082 -0.7434  0.4530 -0.2512
15462TIP3    H267802   4.203   3.826  11.958 -0.9733  0.2621 -0.1252
15463TIP3   OH267803   3.411   0.135  11.890 -0.6770  0.0759  0.1694
15463TIP3    H167804   3.331   0.178  11.860  0.5041  0.4878 -2.6990
15463TIP3    H267805   3.454   0.106  11.810  2.1066 -0.0541  1.5894
15464TIP3   OH267806   2.457   3.964  15.858  0.3719 -0.2690  0.5754
15464TIP3    H167807   2.507   3.883  15.847  0.3506 -0.1980 -0.0803
15464TIP3    H267808   2.447   3.973  15.953 -0.7293 -1.7101  0.6461
15465TIP3   OH267809   6.123   2.864  14.678  0.3701  0.1342  0.0114
15465TIP3    H167810   6.156   2.848  14.590 -0.6055  1.1424 -0.5722
15465TIP3    H267811   6.032   2.889  14.665  0.4487  1.1660  1.2307
15466TIP3   OH267812   2.104   5.387   1.148  0.0727 -0.2835  0.6103
15466TIP3    H167813   2.032   5.406   1.087  0.2518  0.7132  0.6901
15466TIP3    H267814   2.165   5.333   1.097 -1.5211 -2.6878  1.0663
15467TIP3   OH267815   4.193   5.783  14.893  0.1516  0.2973  0.4686
15467TIP3    H167816   4.177   5.871  14.858  1.9716  0.7326  0.6401
15467TIP3    H267817   4.120   5.731  14.860 -1.4559  2.0518  1.0953
15468TIP3   OH267818   1.703   4.365  16.052  0.4746  0.5002  0.6318
15468TIP3    H167819   1.783   4.318  16.073 -0.0899 -0.0612  1.5811
15468TIP3    H267820   1.699   4.364  15.956 -0.2190 -2.6313  0.5887
15469TIP3   OH267821   2.811   6.403  14.228  0.4750 -0.1530 -0.1319
15469TIP3    H167822   2.793   6.400  14.134  1.3674 -1.2827 -0.2991
15469TIP3    H267823   2.886   6.462  14.236  0.1486  0.2624 -0.0665
15470TIP3   OH267824   6.223   6.128  14.274 -1.0915  0.2603 -0.1552
15470TIP3    H167825   6.229   6.223  14.259 -1.2935  0.5391  1.4026
15470TIP3    H267826   6.219   6.119  14.369  2.8614 -1.5405  0.0456
15471TIP3   OH267827   1.750   5.146   5.462 -0.8635  0.9387 -0.0860
15471TIP3    H167828   1.784   5.093   5.389 -0.5102  2.0247 -0.7283
15471TIP3    H267829   1.656   5.126   5.464 -0.8862  0.9433 -0.8754
15472TIP3   OH267830   0.514   1.576   3.091 -0.1547 -0.0267 -0.3194
15472TIP3    H167831   0.478   1.540   3.010 -1.0174  0.8852 -0.3682
15472TIP3    H267832   0.452   1.550   3.159  0.3695 -0.4690  0.0065
15473TIP3   OH267833   2.677   6.598   0.841 -0.2387 -0.0498 -0.9402
15473TIP3    H167834   2.651   6.667   0.780 -0.4840 -0.0422 -0.8268
15473TIP3    H267835   2.600   6.543   0.849  0.1717 -0.7220 -1.5505
15474TIP3   OH267836   3.886   3.155   5.133 -0.0186 -0.1254 -0.4909
15474TIP3    H167837   3.865   3.247   5.149 -0.5471 -0.4184  0.5516
15474TIP3    H267838   3.933   3.126   5.211 -0.0570 -0.8005 -0.7054
15475TIP3   OH267839   3.467   2.832   0.823 -0.5289  0.5331 -0.5842
15475TIP3    H167840   3.516   2.901   0.868  0.7796  0.0076 -1.1713
15475TIP3    H267841   3.511   2.751   0.847 -0.0796  0.1914 -2.3946
15476TIP3   OH267842   3.979   5.660  14.769 -0.0537 -0.0043  0.1928
15476TIP3    H167843   3.902   5.650  14.825  0.8724 -0.8588  1.3575
15476TIP3    H267844   4.016   5.572  14.764  0.8102  0.3872 -0.4022
15477TIP3   OH267845   4.918   5.082  11.475  0.0253  0.2335  0.3865
15477TIP3    H167846   4.852   5.019  11.501 -2.4033  2.6268  0.4681
15477TIP3    H267847   4.995   5.061  11.528 -1.1200 -1.7648  1.3356
15478TIP3   OH267848   3.215   3.379  15.618  0.0216  0.6218 -0.4366
15478TIP3    H167849   3.302   3.413  15.598  0.8892 -1.1797  0.1364
15478TIP3    H267850   3.229   3.287  15.640 -1.7481  0.8063  1.7514
15479TIP3   OH267851   6.585   0.942   3.103  0.2931  0.0741 -0.1000
15479TIP3    H167852   6.669   0.962   3.063 -0.4636  1.7674 -0.9813
15479TIP3    H267853   6.525   0.929   3.029 -0.4093 -0.2166  0.4996
15480TIP3   OH267854   4.282   5.574  15.028 -0.6454 -0.0318  0.3892
15480TIP3    H167855   4.237   5.652  14.999 -1.5635 -1.2366 -1.6045
15480TIP3    H267856   4.344   5.605  15.094  0.2987  2.6485 -1.5833
15481TIP3   OH267857   2.455   5.864  14.319 -0.5982  0.4769  0.6972
15481TIP3    H167858   2.377   5.847  14.267 -0.7035 -0.1292  1.0510
15481TIP3    H267859   2.527   5.824  14.270 -0.1594  2.7697 -0.6794
15482TIP3   OH267860   3.330   1.303   3.983 -0.2108  0.0648  0.1682
15482TIP3    H167861   3.361   1.357   4.055  3.3280 -1.3965 -0.0500
15482TIP3    H267862   3.239   1.330   3.969  0.3509  3.4870  2.2045
15483TIP3   OH267863   1.759   4.984   0.028 -0.2399  0.0902  0.5437
15483TIP3    H167864   1.825   4.939   0.080  1.1982  0.7696 -0.6012
15483TIP3    H267865   1.789   4.975  -0.063 -1.7534  0.3883 -0.0208
15484TIP3   OH267866   4.694   6.104  13.920  0.1245 -0.6808 -0.4572
15484TIP3    H167867   4.715   6.054  13.999  1.2297 -2.7922 -1.9809
15484TIP3    H267868   4.675   6.037  13.854  1.7299  0.8852 -2.6619
15485TIP3   OH267869   5.439   2.873  13.377  0.1425 -0.0614 -0.4169
15485TIP3    H167870   5.405   2.812  13.442 -0.1078 -0.5548 -1.0001
15485TIP3    H267871   5.416   2.834  13.292  2.3480 -0.5375 -0.8538
15486TIP3   OH267872   3.551   3.195  16.889  0.1064 -0.1069 -0.3048
15486TIP3    H167873   3.554   3.166  16.981  0.9927 -0.0897 -0.3247
15486TIP3    H267874   3.578   3.118  16.839  1.7803  0.5112 -0.4021
15487TIP3   OH267875   0.271   2.383   4.925  0.4392  0.1773 -0.0088
15487TIP3    H167876   0.244   2.455   4.982  0.0789  0.9265 -1.0799
15487TIP3    H267877   0.363   2.402   4.904  0.0845  0.8628 -1.0290
15488TIP3   OH267878   1.448   4.146  14.082 -0.3015 -0.2955 -0.2647
15488TIP3    H167879   1.512   4.207  14.047 -1.1743  0.5674 -0.4142
15488TIP3    H267880   1.418   4.188  14.163  0.4853 -1.4646  0.6680
15489TIP3   OH267881   6.527   3.686  10.668 -0.0501  0.4757 -0.0554
15489TIP3    H167882   6.617   3.672  10.696 -0.4532  0.6191  1.3909
15489TIP3    H267883   6.475   3.674  10.747 -1.2847  0.6524 -0.8088
15490TIP3   OH267884   1.293   3.027  15.241 -0.5184 -0.3709 -0.3793
15490TIP3    H167885   1.355   3.059  15.176 -0.3255  1.4420  0.6375
15490TIP3    H267886   1.347   2.980  15.305 -0.1826  0.9440  0.3430
15491TIP3   OH267887   5.059   2.739  11.112 -0.2452  0.3686  0.5887
15491TIP3    H167888   5.147   2.775  11.101  0.0097 -0.5831 -0.6264
15491TIP3    H267889   5.001   2.816  11.105  0.4884  1.0901  1.9888
15492TIP3   OH267890   4.159   1.605   3.244 -0.6643  0.4939  0.4435
15492TIP3    H167891   4.230   1.581   3.186  1.3427  4.1761  1.0243
15492TIP3    H267892   4.189   1.577   3.331 -0.0337  1.5866  0.6131
15493TIP3   OH267893   0.827   5.290  11.946  0.1594 -0.1624 -0.1612
15493TIP3    H167894   0.903   5.304  11.890  1.3670 -0.8247  1.2372
15493TIP3    H267895   0.813   5.374  11.989 -3.6374  1.9274 -4.5492
15494TIP3   OH267896   1.101   0.080   5.410  0.0739 -0.1613  0.3135
15494TIP3    H167897   1.196   0.092   5.405  0.2182 -0.9888  1.0154
15494TIP3    H267898   1.074   0.134   5.484 -0.0613  0.3401 -0.0917
15495TIP3   OH267899   5.699   4.759  11.587 -0.8359  0.7232 -0.0719
15495TIP3    H167900   5.700   4.849  11.619  0.6626  1.0767 -1.0300
15495TIP3    H267901   5.792   4.734  11.584 -1.2728 -1.3728  1.5809
15496TIP3   OH267902   2.828   3.608   5.535  0.5400 -0.2288 -0.2019
15496TIP3    H167903   2.829   3.585   5.628  1.2217  2.3985  0.5358
15496TIP3    H267904   2.751   3.664   5.524  2.0128  1.8676 -0.4825
15497TIP3   OH267905   4.993   0.875   4.501 -0.1570  0.2352  0.0919
15497TIP3    H167906   5.004   0.783   4.480 -1.1858  0.1376 -0.0558
15497TIP3    H267907   4.938   0.876   4.579 -0.3329  0.7304 -0.0309
15498TIP3   OH267908   0.868   5.406   1.153 -0.7986  0.4468  0.5222
15498TIP3    H167909   0.780   5.435   1.175  0.0000  2.1818  1.5969
15498TIP3    H267910   0.882   5.437   1.063 -0.4304  2.3909  1.2028
15499TIP3   OH267911   6.302   2.155   2.681  0.2100  0.1118  0.3798
15499TIP3    H167912   6.254   2.151   2.598 -1.2161  0.2869  1.1562
15499TIP3    H267913   6.287   2.070   2.722 -1.6576  1.0303  1.7709
15500TIP3   OH267914   5.076   3.514   5.219  0.1133  0.1372 -0.6170
15500TIP3    H167915   5.095   3.602   5.186 -1.8299  0.7798 -0.1569
15500TIP3    H267916   5.067   3.526   5.313  0.3420 -0.6639 -0.4928
15501TIP3   OH267917   6.331   0.912  14.238  0.0340 -0.1745  0.1141
15501TIP3    H167918   6.388   0.857  14.185  0.7579 -0.5539  1.2642
15501TIP3    H267919   6.382   0.933  14.316 -1.2614 -0.2368  1.0155
15502TIP3   OH267920   6.347   4.003   1.223 -0.3408  0.7989  0.1523
15502TIP3    H167921   6.407   4.017   1.149 -0.9436  0.8510 -0.3330
15502TIP3    H267922   6.267   4.048   1.198 -0.6354  0.6101  0.7386
15503TIP3   OH267923   3.526   5.329  15.125  0.0365  0.0204  0.3405
15503TIP3    H167924   3.612   5.293  15.148 -0.3126 -0.7388  0.5027
15503TIP3    H267925   3.536   5.423  15.134  0.8821 -0.0526  0.2646
15504TIP3   OH267926   0.917   4.280  11.769 -0.6330 -0.7014  0.6368
15504TIP3    H167927   0.917   4.296  11.674  1.0959  2.1206  1.0196
15504TIP3    H267928   0.870   4.197  11.778 -2.5879 -0.1353 -2.5185
15505TIP3   OH267929   0.304   1.280  14.410 -0.4247 -0.2884  0.1562
15505TIP3    H167930   0.232   1.218  14.418 -0.1903 -0.7357 -0.9351
15505TIP3    H267931   0.263   1.366  14.416 -0.7328 -0.5244  1.8550
15506TIP3   OH267932   2.970   5.630   1.264 -0.3686 -0.0434  0.4236
15506TIP3    H167933   2.989   5.694   1.196 -2.7449  0.1513 -0.1151
15506TIP3    H267934   3.037   5.646   1.332  0.6711  1.2146 -0.8518
15507TIP3   OH267935   5.643   3.929  10.248 -0.3464  0.4650  0.5186
15507TIP3    H167936   5.680   4.015  10.230  0.2179  0.5224  1.8129
15507TIP3    H267937   5.574   3.946  10.312  0.8746 -0.1891  2.0712
15508TIP3   OH267938   4.075   0.283  13.942 -0.1290  0.7475 -0.1376
15508TIP3    H167939   4.141   0.266  14.009  0.7580  1.2866 -0.8638
15508TIP3    H267940   4.073   0.204  13.889 -0.7343  0.3741  0.4207
15509TIP3   OH267941   3.774   2.680   1.973 -0.2989  0.2095  0.4403
15509TIP3    H167942   3.784   2.669   2.068  0.8422 -0.0386  0.2998
15509TIP3    H267943   3.754   2.773   1.962  2.8802  1.0367  0.7250
15510TIP3   OH267944   0.470   6.674  11.409  0.1520 -0.2939  0.0860
15510TIP3    H167945   0.374   6.666  11.403  0.1562  0.1857 -0.7931
15510TIP3    H267946   0.484   6.757  11.455  0.1451 -0.0680 -0.3174
15511TIP3   OH267947   1.862   4.331  16.910  0.1971  0.0487 -0.6293
15511TIP3    H167948   1.800   4.259  16.899 -0.1627  0.2255  0.1687
15511TIP3    H267949   1.847   4.387  16.834 -0.2215 -0.2012 -0.7347
15512TIP3   OH267950   3.450   0.418   2.315  0.6196  0.2877 -0.1869
15512TIP3    H167951   3.484   0.334   2.346  2.9706  1.0806 -0.3788
15512TIP3    H267952   3.412   0.399   2.229  0.2508 -0.7355  0.1933
15513TIP3   OH267953   6.535   0.684   5.299 -0.3982 -0.1895 -0.1870
15513TIP3    H167954   6.622   0.695   5.336 -0.5224  0.8192 -0.1623
15513TIP3    H267955   6.520   0.589   5.299  1.2367 -0.4873 -1.4866
15514TIP3   OH267956   4.069   3.556   2.574 -0.2137  0.4837 -0.7420
15514TIP3    H167957   4.142   3.529   2.631 -1.4114 -1.0162  0.1601
15514TIP3    H267958   4.078   3.500   2.496 -1.4145 -1.0655  0.1724
15515TIP3   OH267959   4.376   1.952  15.423  0.9068 -0.2243 -0.5424
15515TIP3    H167960   4.464   1.919  15.405  1.4074  0.8368 -0.1362
15515TIP3    H267961   4.390   2.037  15.465 -0.3092 -0.1997 -0.1293
15516TIP3   OH267962   4.045   2.599   0.803  0.6325 -0.7174  0.0450
15516TIP3    H167963   4.136   2.578   0.779  0.1100 -2.9424 -0.1314
15516TIP3    H267964   3.999   2.516   0.799 -1.0489  0.0496  1.9168
15517TIP3   OH267965   4.705   3.211   1.619  0.0489  0.1730  0.4123
15517TIP3    H167966   4.684   3.120   1.595  2.6464 -0.5487  0.5306
15517TIP3    H267967   4.783   3.203   1.674  0.4918  2.5315  0.2097
15518TIP3   OH267968   2.659   1.319   4.231 -0.3458 -0.0347  0.2602
15518TIP3    H167969   2.568   1.347   4.231  0.2094  2.0601 -1.9387
15518TIP3    H267970   2.688   1.332   4.141  2.5548  0.8055  1.2253
15519TIP3   OH267971   3.326   3.500   0.007 -0.0101  0.3485 -0.9293
15519TIP3    H167972   3.250   3.475  -0.046 -0.1308  0.6421 -0.8947
15519TIP3    H267973   3.365   3.416   0.033 -0.2748  0.1965 -1.0122
15520TIP3   OH267974   6.461   4.614  16.725  0.1913 -0.3135 -0.0837
15520TIP3    H167975   6.543   4.617  16.677 -0.3242  0.2275 -0.9696
15520TIP3    H267976   6.480   4.563  16.803  1.2901 -0.4301 -0.4156
15521TIP3   OH267977   0.313   3.260   1.032  0.0552  0.4694 -0.3213
15521TIP3    H167978   0.404   3.285   1.052  0.2898  2.3912 -3.1714
15521TIP3    H267979   0.287   3.205   1.106  2.7564  1.7089  1.7574
15522TIP3   OH267980   2.541   2.628  14.017 -0.2382 -0.5034 -0.1424
15522TIP3    H167981   2.616   2.671  14.058 -0.5691 -0.5123  0.4873
15522TIP3    H267982   2.513   2.689  13.949  0.1944 -0.3960 -0.2272
15523TIP3   OH267983   1.466   3.647   2.257 -0.1312  0.1230 -0.1346
15523TIP3    H167984   1.428   3.709   2.196  0.1130  0.1858 -0.2263
15523TIP3    H267985   1.527   3.596   2.204  0.1873  0.2725  0.0822
15524TIP3   OH267986   3.518   4.937   0.949  0.2199 -0.3760 -0.3106
15524TIP3    H167987   3.596   4.909   0.997  0.0509  0.5498  0.5507
15524TIP3    H267988   3.477   5.002   1.006  0.6259  1.6665 -2.1935
15525TIP3   OH267989   4.291   0.698  14.860  0.3096 -0.7339  0.0298
15525TIP3    H167990   4.242   0.740  14.930  0.7658 -1.5038  0.8482
15525TIP3    H267991   4.264   0.606  14.864  1.7632 -1.1766  0.4961
15526TIP3   OH267992   3.699   0.760  17.372 -0.3506 -0.4523 -0.0131
15526TIP3    H167993   3.749   0.810  17.307  0.4928 -0.1207  0.8646
15526TIP3    H267994   3.754   0.761  17.450 -0.2075 -2.9054  0.0012
15527TIP3   OH267995   2.711   3.837   4.609  0.2548 -0.0789 -0.5581
15527TIP3    H167996   2.664   3.761   4.575 -0.3646 -0.5426  1.1834
15527TIP3    H267997   2.645   3.906   4.612  0.7239  0.4495 -1.7886
15528TIP3   OH267998   3.952   5.746  13.288 -0.0367 -0.6887  0.4200
15528TIP3    H167999   4.005   5.765  13.365  0.7973 -2.0845  0.2299
15528TIP3    H268000   3.989   5.800  13.218  2.4264 -2.9386 -0.1786
15529TIP3   OH268001   0.613   2.888  17.288 -0.0350  0.4563  0.6415
15529TIP3    H168002   0.667   2.817  17.254 -0.2390  1.5631 -2.3668
15529TIP3    H268003   0.533   2.846  17.318  0.1226 -0.6690 -0.4468
15530TIP3   OH268004   3.677   2.874   3.752  0.8102 -0.5376  0.1643
15530TIP3    H168005   3.674   2.783   3.722 -3.1342 -0.5885  0.2308
15530TIP3    H268006   3.653   2.871   3.844  0.2092  0.5584  0.0707
15531TIP3   OH268007   0.820   6.566  13.824 -0.1687 -0.1840 -0.4633
15531TIP3    H168008   0.812   6.495  13.888  1.6263  0.5595  0.6486
15531TIP3    H268009   0.780   6.642  13.867  0.4891  0.1729 -0.4826
15532TIP3   OH268010   3.220   2.014  11.796  0.4805  0.0380  0.0155
15532TIP3    H168011   3.301   1.969  11.818  0.6969 -0.4904 -1.7139
15532TIP3    H268012   3.154   1.971  11.850  0.8718 -1.6667 -0.7745
15533TIP3   OH268013   4.074   0.815  17.177  0.5509 -0.0067  0.1740
15533TIP3    H168014   3.980   0.816  17.157  0.8337  0.8845 -1.2723
15533TIP3    H268015   4.091   0.726  17.208 -0.4311 -0.7910 -1.3929
15534TIP3   OH268016   6.742   4.065  10.898  0.2815 -0.5487 -0.4006
15534TIP3    H168017   6.708   4.139  10.847 -2.0591 -2.4560 -1.8218
15534TIP3    H268018   6.765   4.000  10.832  2.0628 -1.2492  0.8338
15535TIP3   OH268019   1.111   3.172  12.776 -0.1608  0.0136 -0.5671
15535TIP3    H168020   1.064   3.255  12.787 -1.6409 -0.7638 -0.7960
15535TIP3    H268021   1.052   3.117  12.724  1.5711 -0.5718 -1.9854
15536TIP3   OH268022   4.733   5.370   2.085 -0.0341  0.1736  0.0565
15536TIP3    H168023   4.654   5.333   2.046  0.2701  0.0694 -0.4771
15536TIP3    H268024   4.786   5.294   2.110  0.7290  0.2127 -1.3253
15537TIP3   OH268025   2.789   2.136  13.783 -0.1899 -0.0384 -0.4258
15537TIP3    H168026   2.714   2.174  13.738 -0.7818  0.2585  0.7594
15537TIP3    H268027   2.854   2.206  13.784  0.5288 -0.6209 -2.3405
15538TIP3   OH268028   6.516   0.402  16.146  0.2228 -0.0161 -0.2275
15538TIP3    H168029   6.554   0.398  16.058  0.4254  1.1452 -0.2077
15538TIP3    H268030   6.529   0.315  16.182  0.9840 -0.2345 -1.0049
15539TIP3   OH268031   4.530   4.265   3.370 -0.3874 -0.3579  0.2004
15539TIP3    H168032   4.463   4.229   3.313  1.4515 -2.2638 -0.8757
15539TIP3    H268033   4.610   4.263   3.318  0.2912  3.5493  0.7805
15540TIP3   OH268034   6.669   2.752  16.956 -0.3298 -0.2624 -0.3977
15540TIP3    H168035   6.748   2.727  16.908 -0.2832  0.3742 -0.6616
15540TIP3    H268036   6.695   2.829  17.006 -0.4269 -0.8215  0.5304
15541TIP3   OH268037   2.540   4.281   6.099  0.4956  0.1322  0.1679
15541TIP3    H168038   2.478   4.321   6.038  0.4171 -0.1872  0.0363
15541TIP3    H268039   2.606   4.241   6.043 -0.1477 -1.0943  0.2468
15542TIP3   OH268040   1.503   3.437   4.306  0.2116  0.3572 -0.0340
15542TIP3    H168041   1.538   3.463   4.391 -0.4365 -2.6847  1.3313
15542TIP3    H268042   1.526   3.344   4.298 -1.4953  0.0196 -2.2593
15543TIP3   OH268043   4.323   4.680   6.769  0.6400  0.2561 -0.2839
15543TIP3    H168044   4.280   4.765   6.775  1.1689  0.4308  3.0399
15543TIP3    H268045   4.252   4.617   6.762  0.1854  0.8573 -1.2957
15544TIP3   OH268046   6.697   0.391  15.015 -0.3106  0.0507 -0.8011
15544TIP3    H168047   6.778   0.438  15.033 -0.3049  0.2052 -1.2350
15544TIP3    H268048   6.724   0.314  14.967 -0.1321 -1.2754  1.2873
15545TIP3   OH268049   1.096   6.611  13.703  0.0573  0.8681  0.2042
15545TIP3    H168050   1.020   6.566  13.741  1.5794 -1.2885  0.9242
15545TIP3    H268051   1.136   6.657  13.776  0.2567  0.7798  0.1515
15546TIP3   OH268052   4.660   5.517   1.310  0.4323  0.2310 -0.0102
15546TIP3    H168053   4.633   5.448   1.372 -0.6700  0.2543 -0.4379
15546TIP3    H268054   4.697   5.469   1.236  0.5804  0.1438  0.1193
15547TIP3   OH268055   5.261   1.568   1.622  0.0778  0.5258  0.2872
15547TIP3    H168056   5.262   1.613   1.538  1.5256  1.1110  0.5943
15547TIP3    H268057   5.240   1.637   1.686  0.3402  0.3578  0.5544
15548TIP3   OH268058   6.377   5.118   5.957  0.8078  0.4441 -0.0781
15548TIP3    H168059   6.355   5.184   6.024  0.4934 -0.7003  0.9792
15548TIP3    H268060   6.305   5.123   5.894  0.2363  0.3755  0.5636
15549TIP3   OH268061   4.060   3.900   0.616  0.0381  0.3924  0.1945
15549TIP3    H168062   4.140   3.946   0.591 -0.4124  0.1203 -1.8641
15549TIP3    H268063   4.068   3.889   0.711  1.8718  1.4160  0.2028
15550TIP3   OH268064   2.179   0.423  15.059 -0.7435 -0.3083  0.2974
15550TIP3    H168065   2.144   0.507  15.030 -0.9999 -0.0255  1.3786
15550TIP3    H268066   2.251   0.405  14.998 -1.4491  0.0966 -0.6856
15551TIP3   OH268067   3.496   0.666  10.609  0.3632 -0.0009 -0.2126
15551TIP3    H168068   3.413   0.707  10.584  0.2314 -0.8651 -1.2624
15551TIP3    H268069   3.540   0.732  10.663 -1.2893  0.2027  0.9497
15552TIP3   OH268070   5.957   1.153   0.207  0.6089 -0.0317  0.2132
15552TIP3    H168071   6.000   1.197   0.280 -1.0318  0.7786  0.7462
15552TIP3    H268072   5.937   1.066   0.241  1.8856 -0.4629 -0.0838
15553TIP3   OH268073   2.106   1.839  13.161 -0.1005 -0.0244 -0.0514
15553TIP3    H168074   2.154   1.898  13.103  1.6529 -1.4193 -0.1081
15553TIP3    H268075   2.123   1.752  13.126 -2.0925 -0.6466  0.4061
15554TIP3   OH268076   3.687   0.298  11.563  0.0010  0.5472 -0.0075
15554TIP3    H168077   3.715   0.224  11.509  0.9000  1.2625 -0.5440
15554TIP3    H268078   3.686   0.373  11.503 -1.3671  0.9003  0.4107
15555TIP3   OH268079   5.887   4.780   4.344 -0.0898 -0.2288 -0.0690
15555TIP3    H168080   5.921   4.693   4.363  1.0378 -0.3459 -2.2878
15555TIP3    H268081   5.947   4.840   4.387 -0.1691 -0.5184  0.4518
15556TIP3   OH268082   3.721   6.409  12.475 -0.2422  0.2286  0.2731
15556TIP3    H168083   3.634   6.373  12.453  0.6487 -1.5108 -0.6679
15556TIP3    H268084   3.760   6.342  12.532  0.3983  1.1200  0.8997
15557TIP3   OH268085   6.123   5.245  11.408  0.5836 -0.4689 -0.4423
15557TIP3    H168086   6.087   5.177  11.465 -0.1567  0.5254  0.3131
15557TIP3    H268087   6.209   5.264  11.445  0.1146  0.1583  0.3657
15558TIP3   OH268088   2.619   5.116   1.655  0.3920 -0.3020  0.4034
15558TIP3    H168089   2.662   5.031   1.665 -0.1907 -0.3984  2.4716
15558TIP3    H268090   2.538   5.108   1.705 -0.5109  0.9376 -0.7851
15559TIP3   OH268091   6.050   5.531   1.869  0.1976  0.2534  0.2961
15559TIP3    H168092   6.140   5.500   1.866  0.4681  0.7848  2.0666
15559TIP3    H268093   6.046   5.586   1.947 -1.5281  0.6727 -0.0483
15560TIP3   OH268094   2.790   4.048  12.361 -0.0247 -0.4602 -0.0916
15560TIP3    H168095   2.727   4.115  12.334  0.1886  0.4088  1.4606
15560TIP3    H268096   2.841   4.030  12.282 -0.4077  0.8641 -0.6683
15561TIP3   OH268097   5.915   0.370  16.468 -0.2406  0.2738  0.4430
15561TIP3    H168098   5.977   0.307  16.506 -0.5609  0.0513  0.6005
15561TIP3    H268099   5.944   0.381  16.378 -1.3095 -1.5531 -0.1599
15562TIP3   OH268100   4.686   6.422   5.638 -0.3296  0.5067  0.0227
15562TIP3    H168101   4.619   6.420   5.706  0.0722 -0.6427  0.3956
15562TIP3    H268102   4.758   6.472   5.676 -0.8069  1.4252 -0.2423
15563TIP3   OH268103   0.509   2.921  15.740  0.5779  0.3863  0.0336
15563TIP3    H168104   0.546   2.942  15.654  0.8059  0.4445  0.1426
15563TIP3    H268105   0.415   2.927  15.728  0.6208  0.9449 -0.0786
15564TIP3   OH268106   0.593   6.579  11.656  0.1183 -0.3636  0.0402
15564TIP3    H168107   0.542   6.512  11.702 -1.8027  0.6957 -0.4461
15564TIP3    H268108   0.541   6.600  11.579  1.4288  0.6296 -0.6135
15565TIP3   OH268109   0.830   5.345   2.264 -0.6830 -0.0367  0.4169
15565TIP3    H168110   0.880   5.293   2.202 -0.8422  1.5742 -1.1569
15565TIP3    H268111   0.832   5.295   2.346  1.0205 -1.3784 -0.3977
15566TIP3   OH268112   0.925   4.557   1.725 -0.1786  0.1404  0.1943
15566TIP3    H168113   0.842   4.598   1.751  1.1727  1.4819  2.8784
15566TIP3    H268114   0.972   4.625   1.677 -0.5962 -0.6218 -1.3379
15567TIP3   OH268115   2.862   0.446   3.604 -0.0959  0.2881 -0.6629
15567TIP3    H168116   2.856   0.447   3.699  1.4899  0.0573 -0.5381
15567TIP3    H268117   2.907   0.528   3.581  1.5136 -0.6695 -1.0309
15568TIP3   OH268118   5.526   0.916   2.730  0.7926 -0.0909  0.4342
15568TIP3    H168119   5.530   0.841   2.790 -0.2590  0.2952  1.0109
15568TIP3    H268120   5.438   0.951   2.741  1.5167  1.7527  0.8150
15569TIP3   OH268121   1.416   6.041  11.035  0.3294 -0.0206  0.1018
15569TIP3    H168122   1.456   5.955  11.044  1.6165  0.5442  0.0644
15569TIP3    H268123   1.322   6.024  11.033  0.5597 -1.4149  0.0769
15570TIP3   OH268124   1.697   0.346   3.348  0.1227 -0.4674  0.0349
15570TIP3    H168125   1.669   0.331   3.438 -0.5330  1.4729  0.1998
15570TIP3    H268126   1.665   0.270   3.300 -1.7120 -0.3685  1.0136
15571TIP3   OH268127   0.778   2.293   4.175  0.2519  0.0614 -0.2676
15571TIP3    H168128   0.699   2.346   4.184  0.0866 -0.1871 -0.2184
15571TIP3    H268129   0.800   2.266   4.264 -0.0849 -0.5451 -0.3586
15572TIP3   OH268130   3.093   3.556  11.058 -0.5662  0.4994  1.1522
15572TIP3    H168131   3.167   3.528  11.112 -0.3241  1.0008  1.0861
15572TIP3    H268132   3.115   3.645  11.031 -1.8845  1.2295  2.3697
15573TIP3   OH268133   5.718   0.120   1.497 -0.5370  0.3212  0.4753
15573TIP3    H168134   5.652   0.114   1.566 -0.6297 -0.3604  0.3373
15573TIP3    H268135   5.800   0.093   1.540 -0.4634  0.5721  0.4935
15574TIP3   OH268136   1.062   0.523  15.475 -0.2171 -0.0350 -0.4860
15574TIP3    H168137   1.005   0.578  15.528 -0.2480 -0.6862  0.1759
15574TIP3    H268138   1.101   0.583  15.411  0.0894  0.8313  0.4933
15575TIP3   OH268139   3.996   6.383   2.242  0.5514  0.5153  0.2909
15575TIP3    H168140   4.037   6.326   2.177  0.7297  1.7304 -0.7048
15575TIP3    H268141   3.973   6.325   2.314  1.1464 -0.7245 -0.4866
15576TIP3   OH268142   6.494   1.693  12.471  0.3804 -0.6798  0.5190
15576TIP3    H168143   6.549   1.678  12.548 -1.5502 -0.7994  1.9548
15576TIP3    H268144   6.405   1.683  12.504 -0.5673  0.8014 -1.4178
15577TIP3   OH268145   1.477   1.381  16.110 -0.7401  0.1261 -0.4378
15577TIP3    H168146   1.464   1.413  16.021 -1.0889  0.6338 -0.2071
15577TIP3    H268147   1.570   1.358  16.114 -0.6710  0.3219 -0.8597
15578TIP3   OH268148   2.870   2.622  15.651  0.4513  0.1346 -0.3638
15578TIP3    H168149   2.792   2.597  15.700  0.6382  0.6515  0.2061
15578TIP3    H268150   2.855   2.587  15.563  0.5104 -1.6201  0.2818
15579TIP3   OH268151   1.417   0.991   0.453 -0.3879 -0.1017  0.6035
15579TIP3    H168152   1.425   1.000   0.358 -0.6166 -0.0195  0.5916
15579TIP3    H268153   1.372   0.908   0.466  0.0656 -0.3432  0.6565
15580TIP3   OH268154   5.656   5.681   2.397 -0.5663  0.0663  0.0103
15580TIP3    H168155   5.578   5.649   2.442 -0.5451  0.1651  0.1178
15580TIP3    H268156   5.622   5.735   2.325 -0.6479 -1.8143 -1.4169
15581TIP3   OH268157   1.671   3.726   3.808  0.2867  0.3151  0.4116
15581TIP3    H168158   1.620   3.675   3.870  0.2249  0.4261  0.4527
15581TIP3    H268159   1.631   3.708   3.723  0.8584 -0.4516  0.2922
15582TIP3   OH268160   0.486   4.281   2.740  0.1099  0.5706  0.4136
15582TIP3    H168161   0.467   4.356   2.797 -1.3411  0.2466  0.4105
15582TIP3    H268162   0.460   4.310   2.653 -0.4369  0.0871  0.4082
15583TIP3   OH268163   3.321   6.394   3.372  0.1006 -1.0084  0.5347
15583TIP3    H168164   3.403   6.437   3.346  0.0660 -1.1802  0.1314
15583TIP3    H268165   3.274   6.460   3.422 -0.4345 -0.1947 -0.9923
15584TIP3   OH268166   4.313   6.539   3.921 -0.7132 -0.0186 -0.2264
15584TIP3    H168167   4.247   6.470   3.928 -0.2109 -0.3859  1.2978
15584TIP3    H268168   4.313   6.581   4.007  0.7973  0.1922 -0.3015
15585TIP3   OH268169   0.491   1.773   1.846  0.5313  0.4323 -0.2574
15585TIP3    H168170   0.579   1.790   1.879  1.6420 -0.8161 -2.3748
15585TIP3    H268171   0.453   1.712   1.909 -0.1273  3.3047  2.4166
15586TIP3   OH268172   5.749   2.354  16.760  0.6457 -0.7466 -0.1708
15586TIP3    H168173   5.786   2.347  16.848 -0.7267 -0.5058  0.4533
15586TIP3    H268174   5.710   2.442  16.758 -1.4366 -1.5933 -0.1214
15587TIP3   OH268175   5.413   3.743  16.661 -0.0698  0.4792  0.7689
15587TIP3    H168176   5.475   3.679  16.696 -1.0816 -2.0334 -1.6963
15587TIP3    H268177   5.465   3.796  16.600 -0.4834 -3.6476 -3.8117
15588TIP3   OH268178   6.007   5.682  10.928 -0.2215  0.1875 -0.6587
15588TIP3    H168179   6.080   5.693  10.867 -0.3253  2.8728 -0.4327
15588TIP3    H268180   5.950   5.757  10.911 -0.4620  0.8325  2.3996
15589TIP3   OH268181   6.325   4.365   2.025  0.6173  0.3927 -0.6825
15589TIP3    H168182   6.332   4.389   1.933  1.7535  0.3933 -0.6015
15589TIP3    H268183   6.414   4.342   2.051 -0.0001 -1.6176 -0.1276
15590TIP3   OH268184   1.111   3.977   6.170 -0.9370  0.1942 -0.0634
15590TIP3    H168185   1.202   3.954   6.189 -1.2414 -0.6807  0.3945
15590TIP3    H268186   1.060   3.909   6.214 -1.7593 -0.4905 -1.9930
15591TIP3   OH268187   1.443   5.636  16.886  0.2786  0.1318  0.0470
15591TIP3    H168188   1.513   5.685  16.843  1.2568  0.2005  1.6072
15591TIP3    H268189   1.483   5.605  16.968 -1.6947  0.7465  1.3198
15592TIP3   OH268190   6.275   3.683  12.644 -0.0188  0.0813  0.4151
15592TIP3    H168191   6.199   3.740  12.633 -3.1817 -3.7034  0.5262
15592TIP3    H268192   6.290   3.679  12.738 -1.1867 -0.7696  0.5938
15593TIP3   OH268193   3.339   5.400  14.678 -0.3988 -0.2984 -0.2222
15593TIP3    H168194   3.288   5.427  14.602 -1.0412 -0.9407 -0.0280
15593TIP3    H268195   3.375   5.315  14.654  0.2616 -0.0276 -0.2050
15594TIP3   OH268196   2.106   3.376   2.805 -0.1843  0.5271 -0.2934
15594TIP3    H168197   2.019   3.378   2.765 -1.3602  1.1798  2.0720
15594TIP3    H268198   2.116   3.463   2.843  2.6210  1.3259 -2.5220
15595TIP3   OH268199   1.446   2.584   4.418  0.1334  0.0541 -0.1134
15595TIP3    H168200   1.413   2.672   4.437  0.1172 -0.0555  0.3675
15595TIP3    H268201   1.479   2.590   4.328  0.4967  0.6569  0.0582
15596TIP3   OH268202   5.543   4.411   5.508  0.1289 -0.2037 -0.1027
15596TIP3    H168203   5.538   4.320   5.481 -0.0728 -0.4783  0.8213
15596TIP3    H268204   5.452   4.435   5.527  0.3077 -0.1472  0.7091
15597TIP3   OH268205   5.349   3.162   2.156  0.0697  0.3583  0.8745
15597TIP3    H168206   5.309   3.107   2.224  0.1162 -0.8484 -0.0482
15597TIP3    H268207   5.275   3.208   2.116 -0.0176  0.6341  1.3327
15598TIP3   OH268208   6.425   0.441   0.652 -0.5872 -0.3221 -0.0652
15598TIP3    H168209   6.462   0.366   0.698  2.3366  0.6520 -0.6323
15598TIP3    H268210   6.427   0.417   0.560  1.5716  0.8453 -0.3766
15599TIP3   OH268211   4.209   3.536  16.053 -1.1467  0.0331  0.5741
15599TIP3    H168212   4.226   3.453  16.009 -2.5385  0.3723 -0.6943
15599TIP3    H268213   4.167   3.512  16.135  0.4966 -0.5737  1.2778
15600TIP3   OH268214   4.295   1.273  16.817 -0.2627 -0.3125  0.0638
15600TIP3    H168215   4.230   1.339  16.795  0.7108  0.5755 -0.2380
15600TIP3    H268216   4.355   1.317  16.878  0.6201 -0.7905 -0.4377
15601TIP3   OH268217   1.154   5.284   4.469 -0.4768 -0.4715 -0.0496
15601TIP3    H168218   1.238   5.252   4.437 -0.0882  0.1096  0.3783
15601TIP3    H268219   1.093   5.211   4.452  0.5224 -1.7612  1.5992
15602TIP3   OH268220   5.016   3.817  15.701  0.1196  0.2307 -0.6773
15602TIP3    H168221   5.031   3.906  15.668 -0.0737  0.0579 -1.2363
15602TIP3    H268222   4.994   3.766  15.624 -0.6708 -0.1158 -0.2381
15603TIP3   OH268223   3.994   1.956  11.469 -0.1580 -0.2107  0.3488
15603TIP3    H168224   3.997   2.021  11.540 -1.0667 -1.0373  1.1807
15603TIP3    H268225   3.929   1.990  11.408 -0.0479  0.0510  0.3740
15604TIP3   OH268226   5.033   3.585  16.268  0.2890 -0.4160  0.7900
15604TIP3    H168227   4.972   3.658  16.279  0.9085  0.6879 -2.1547
15604TIP3    H268228   5.115   3.616  16.306  0.3366  0.1595  0.2391
15605TIP3   OH268229   6.548   4.038   4.379  0.4017 -0.5328 -0.2324
15605TIP3    H168230   6.573   4.093   4.305  0.1508 -0.0179  0.0574
15605TIP3    H268231   6.552   3.949   4.345  0.7639 -0.3357 -0.7253
15606TIP3   OH268232   1.615   0.147   3.173 -0.0947  0.2431  0.0318
15606TIP3    H168233   1.607   0.207   3.098  0.7640  2.1354  1.3678
15606TIP3    H268234   1.688   0.090   3.150  0.4717  1.1049 -0.3953
15607TIP3   OH268235   1.572   5.093   0.823 -0.0210 -0.0177 -0.5757
15607TIP3    H168236   1.512   5.053   0.760 -2.1518  0.2936  1.1313
15607TIP3    H268237   1.549   5.186   0.822  1.3408  0.3442 -0.7684
15608TIP3   OH268238   1.574   0.107  15.095 -0.3115 -0.1027 -0.3872
15608TIP3    H168239   1.558   0.013  15.098  2.2198 -0.5660  0.6214
15608TIP3    H268240   1.620   0.127  15.176 -1.9444  2.2899  0.0641
15609TIP3   OH268241   2.906   0.736   2.762  0.3347  0.1599  0.4417
15609TIP3    H168242   2.975   0.761   2.701  1.4032  0.6694  1.7980
15609TIP3    H268243   2.830   0.718   2.707  1.3435  0.2737 -1.0426
15610TIP3   OH268244   0.965   0.548  13.202 -0.6842 -0.2548 -0.9815
15610TIP3    H168245   0.948   0.497  13.123 -2.4330  2.1735 -2.2841
15610TIP3    H268246   0.879   0.577  13.232  0.1305  0.9412  0.3728
15611TIP3   OH268247   6.671   2.227   3.738 -0.6095  0.0152 -0.0643
15611TIP3    H168248   6.599   2.163   3.736  0.9281 -1.8162 -1.6104
15611TIP3    H268249   6.679   2.255   3.647  0.5410  0.2925  0.1165
15612TIP3   OH268250   3.412   1.910   0.859 -0.0506 -0.6541  0.1575
15612TIP3    H168251   3.479   1.978   0.851 -0.7587  0.0921  0.3578
15612TIP3    H268252   3.329   1.957   0.845 -0.4898 -1.7071 -0.9646
15613TIP3   OH268253   5.162   2.413   6.740  0.1221 -0.4216  0.0465
15613TIP3    H168254   5.190   2.485   6.683  0.3153  0.5908  1.3836
15613TIP3    H268255   5.079   2.384   6.703  0.8380 -0.6479 -1.4892
15614TIP3   OH268256   2.306   4.326   5.607 -0.7308 -0.5108  0.4081
15614TIP3    H168257   2.378   4.378   5.570  0.3834  0.9316  4.0638
15614TIP3    H268258   2.233   4.341   5.548  0.5930  2.2194 -0.7576
15615TIP3   OH268259   4.360   3.401   4.661  0.1533  0.1097 -0.2053
15615TIP3    H168260   4.276   3.368   4.691 -0.3826  0.6640 -1.0399
15615TIP3    H268261   4.399   3.442   4.739  0.3705 -1.4965  0.5749
15616TIP3   OH268262   4.106   6.412   6.032  0.6330 -0.0299  0.5196
15616TIP3    H168263   4.091   6.504   6.056 -0.0640 -0.2220  0.8581
15616TIP3    H268264   4.201   6.404   6.023  0.7483  0.5617  1.1591
15617TIP3   OH268265   4.220   5.899   4.837  0.0091 -0.3700  0.4165
15617TIP3    H168266   4.248   5.914   4.747 -0.7490  0.8446  0.3530
15617TIP3    H268267   4.264   5.819   4.863 -0.1000 -0.9908 -1.1883
15618TIP3   OH268268   4.473   3.999  11.204  0.5445 -0.3423  0.1214
15618TIP3    H168269   4.534   3.935  11.165  1.0773  0.4565 -0.3863
15618TIP3    H268270   4.428   4.038  11.129  1.2444  0.8831  0.3126
15619TIP3   OH268271   4.630   5.883   5.855  0.2052  0.4143 -0.4178
15619TIP3    H168272   4.567   5.850   5.920 -0.0032 -1.3448 -1.4653
15619TIP3    H268273   4.705   5.912   5.908 -0.3046 -0.1707  0.6693
15620TIP3   OH268274   5.910   5.286  12.283  0.1108  0.3936  0.0183
15620TIP3    H168275   5.863   5.204  12.268 -1.7727  1.6003 -1.1144
15620TIP3    H268276   5.992   5.274  12.235 -0.7836 -0.3059 -1.4493
15621TIP3   OH268277   1.497   0.669   1.444  0.0248  0.6108  0.3593
15621TIP3    H168278   1.535   0.582   1.437 -1.3295  0.0967 -1.2508
15621TIP3    H268279   1.550   0.713   1.511 -0.4149 -2.0121  2.6343
15622TIP3   OH268280   2.572   3.291   5.797  0.3817  0.3174 -0.6863
15622TIP3    H168281   2.544   3.376   5.765 -0.0159  0.3971 -0.1499
15622TIP3    H268282   2.493   3.253   5.836  0.5681 -0.2707 -0.8647
15623TIP3   OH268283   5.920   1.118   5.056 -0.1227 -0.0246 -0.4941
15623TIP3    H168284   6.012   1.102   5.077  0.3823  0.2955 -2.2796
15623TIP3    H268285   5.891   1.039   5.011 -0.7320 -0.1320  0.0798
15624TIP3   OH268286   6.585   4.156   2.227 -0.1876  0.9423  0.0074
15624TIP3    H168287   6.498   4.124   2.248  0.2557  0.1594  0.6916
15624TIP3    H268288   6.595   4.236   2.278 -0.9141  1.6725 -0.9389
15625TIP3   OH268289   4.448   6.329  15.327  0.3536  0.2505 -0.3003
15625TIP3    H168290   4.421   6.237  15.327 -0.3468  0.4404 -0.8658
15625TIP3    H268291   4.525   6.332  15.383 -0.1167 -0.5366  0.4156
15626TIP3   OH268292   6.648   6.544  13.015  0.1701 -0.6979  0.1358
15626TIP3    H168293   6.613   6.526  12.928  4.3930 -0.8224 -1.7644
15626TIP3    H268294   6.642   6.460  13.061 -0.1570 -1.2093 -0.8117
15627TIP3   OH268295   1.194   5.867   0.605 -0.1151  0.6065  0.3087
15627TIP3    H168296   1.149   5.791   0.568 -0.0722  0.3545  0.7665
15627TIP3    H268297   1.127   5.914   0.654 -0.0371  0.6077  0.4155
15628TIP3   OH268298   2.287   0.828   1.903 -0.5804  0.4585  0.0266
15628TIP3    H168299   2.266   0.787   1.987 -1.6889 -1.0778 -0.9346
15628TIP3    H268300   2.360   0.887   1.923  0.1235 -0.8867  1.8026
15629TIP3   OH268301   1.396   3.312  10.737  0.1616  0.1378 -0.2879
15629TIP3    H168302   1.479   3.341  10.774  0.3409  0.6419 -1.0517
15629TIP3    H268303   1.421   3.258  10.661 -0.1909 -0.8975  0.3111
15630TIP3   OH268304   1.688   2.122   4.888  0.5501 -0.4211 -0.6397
15630TIP3    H168305   1.631   2.054   4.924  0.3814  0.9741  1.9770
15630TIP3    H268306   1.664   2.201   4.935  2.7528  0.8426 -1.4694
15631TIP3   OH268307   3.856   5.081  15.915 -0.6450 -0.6002 -0.9363
15631TIP3    H168308   3.903   5.109  15.993  0.0923  0.1974 -1.6503
15631TIP3    H268309   3.816   4.998  15.940 -1.9932  0.5157  0.8952
15632TIP3   OH268310   0.817   4.273  17.254  0.0797  0.4380 -0.1387
15632TIP3    H168311   0.854   4.331  17.188 -1.8705  1.3353 -0.5068
15632TIP3    H268312   0.868   4.192  17.246  0.2095  0.6857 -2.4301
15633TIP3   OH268313   0.451   3.815  11.864 -0.0193  0.5672  0.1896
15633TIP3    H168314   0.521   3.756  11.836  0.7855  1.8293 -0.5749
15633TIP3    H268315   0.408   3.842  11.783 -0.4358  0.9496  0.5343
15634TIP3   OH268316   3.164   5.249  12.860 -0.3441  0.2384  0.4137
15634TIP3    H168317   3.173   5.253  12.955 -0.6540 -1.0976  0.5111
15634TIP3    H268318   3.072   5.271  12.843  0.2180  2.7397  0.2213
15635TIP3   OH268319   2.922   0.263   2.181 -0.0694  0.2976 -0.1521
15635TIP3    H168320   2.906   0.197   2.114 -1.1343  0.9189 -0.5247
15635TIP3    H268321   3.017   0.262   2.194  0.1429  0.1136 -1.6059
15636TIP3   OH268322   0.806   2.125  12.565  0.6578 -0.4200 -0.4238
15636TIP3    H168323   0.819   2.033  12.590  0.6636 -0.1843  0.4964
15636TIP3    H268324   0.711   2.134  12.555  0.2804  0.1652  2.5506
15637TIP3   OH268325   1.903   5.171   2.871  0.1082  0.6954  0.0748
15637TIP3    H168326   1.810   5.170   2.849  0.3961 -1.7998 -1.4703
15637TIP3    H268327   1.928   5.263   2.867 -2.1555  1.3631 -0.0736
15638TIP3   OH268328   6.017   4.419  11.714 -0.2049  0.2994  0.2780
15638TIP3    H168329   6.042   4.344  11.767 -0.1256 -0.8189 -1.2522
15638TIP3    H268330   6.076   4.489  11.740  2.7313 -1.4322 -1.2218
15639TIP3   OH268331   4.385   1.468  16.552  0.1739 -0.3803 -0.0140
15639TIP3    H168332   4.306   1.462  16.606  0.6874 -1.8965  0.6186
15639TIP3    H268333   4.368   1.409  16.478  0.2253  0.2527 -0.5349
15640TIP3   OH268334   3.621   3.977  11.509 -0.3942  0.2408 -0.6715
15640TIP3    H168335   3.669   3.903  11.547  0.1855  1.8537  2.0059
15640TIP3    H268336   3.529   3.952  11.516 -0.3426  0.5572  2.3018
15641TIP3   OH268337   1.309   1.482  14.066 -0.1284  0.9791  0.3279
15641TIP3    H168338   1.234   1.530  14.102 -1.6181 -0.1842 -1.0985
15641TIP3    H268339   1.338   1.426  14.138 -0.8157  1.2126  0.8034
15642TIP3   OH268340   2.153   0.395  14.731 -1.1569 -0.3682 -0.0697
15642TIP3    H168341   2.218   0.432  14.672 -0.1707  1.1999  1.8737
15642TIP3    H268342   2.189   0.309  14.754 -0.3246  0.0170  0.1093
15643TIP3   OH268343   0.026   0.956   4.916  0.5029 -0.5069 -0.5132
15643TIP3    H168344   0.045   0.977   5.007  0.2293 -0.2376 -0.5147
15643TIP3    H268345   0.002   0.863   4.917 -0.2030 -0.3290 -0.1935
15644TIP3   OH268346   0.258   2.967  10.847  0.2560  0.2154 -0.4858
15644TIP3    H168347   0.176   2.949  10.801  0.1910 -0.7192 -0.0320
15644TIP3    H268348   0.231   2.996  10.934  0.3839  1.7762 -0.9406
15645TIP3   OH268349   0.084   0.341  16.554  0.1963 -0.4508  0.0531
15645TIP3    H168350   0.085   0.399  16.631 -1.2934  0.8815 -0.8718
15645TIP3    H268351   0.026   0.384  16.492  0.5310 -2.0274 -1.4415
15646TIP3   OH268352   4.949   2.766   4.778 -0.2118 -0.1021  0.3137
15646TIP3    H168353   4.935   2.816   4.859  1.3643 -1.9835  1.8648
15646TIP3    H268354   5.023   2.810   4.736  0.2996 -0.3087  0.9773
15647TIP3   OH268355   4.073   2.504  15.130  0.1144 -0.6736 -0.6505
15647TIP3    H168356   4.012   2.504  15.057  0.3289  0.7818 -0.8610
15647TIP3    H268357   4.073   2.594  15.162 -2.2000 -1.7601  3.0665
15648TIP3   OH268358   4.567   6.423   3.656 -0.5728 -0.0141  0.1376
15648TIP3    H168359   4.577   6.444   3.563  1.4612  1.3750  0.6122
15648TIP3    H268360   4.610   6.495   3.702  0.5572 -1.8383  2.1156
15649TIP3   OH268361   1.352   2.064   4.384  0.7615 -0.2482 -0.1870
15649TIP3    H168362   1.345   1.976   4.422 -0.0776 -0.8273 -1.5621
15649TIP3    H268363   1.366   2.122   4.458 -1.5399 -1.2176  1.0938
15650TIP3   OH268364   2.740   2.085   2.564 -0.2716  0.2810 -0.2601
15650TIP3    H168365   2.727   2.105   2.657 -0.7772 -0.5945 -0.1297
15650TIP3    H268366   2.690   2.153   2.518 -0.5491  0.3374  0.1204
15651TIP3   OH268367   2.438   1.909  16.716  0.0250 -0.4426  0.7428
15651TIP3    H168368   2.477   1.926  16.631 -1.1123 -0.1747  0.2596
15651TIP3    H268369   2.346   1.892  16.698 -0.6320  1.3479  2.0691
15652TIP3   OH268370   2.752   1.959   2.310  0.5800 -0.3865  0.1738
15652TIP3    H168371   2.742   2.022   2.382  1.4232  0.9699 -0.8442
15652TIP3    H268372   2.846   1.937   2.310  0.1240 -2.5871  1.2324
15653TIP3   OH268373   2.979   4.352  12.115 -0.2957 -0.0968 -0.1278
15653TIP3    H168374   2.989   4.341  12.210  0.8195  0.0045 -0.2204
15653TIP3    H268375   2.956   4.444  12.104  1.8235  0.4945 -0.0684
15654TIP3   OH268376   2.498   3.367   0.601  0.6027 -0.2274 -0.0436
15654TIP3    H168377   2.498   3.462   0.592 -2.2886 -0.0600  0.9179
15654TIP3    H268378   2.541   3.335   0.522  0.2639  1.8371 -1.1077
15655TIP3   OH268379   6.483   4.897  14.034  0.4212 -0.1132 -0.2038
15655TIP3    H168380   6.541   4.972  14.021 -1.2697  0.9709 -2.0580
15655TIP3    H268381   6.524   4.826  13.983  0.9643  0.1237 -0.1092
15656TIP3   OH268382   0.646   6.585   4.270  0.3203 -0.1254 -0.9132
15656TIP3    H168383   0.723   6.631   4.305  0.3455 -1.4801  0.9390
15656TIP3    H268384   0.672   6.558   4.182  0.9814  1.7022 -1.3250
15657TIP3   OH268385   1.039   0.461   1.057 -0.7089 -0.1976  0.4689
15657TIP3    H168386   1.076   0.513   0.986 -2.4106  0.2281 -0.1495
15657TIP3    H268387   0.986   0.523   1.107 -0.4212 -0.7337  1.4574
15658TIP3   OH268388   5.142   1.449   3.426  0.1409  0.9753  0.1482
15658TIP3    H168389   5.209   1.515   3.442  1.7021 -0.3699 -0.4893
15658TIP3    H268390   5.188   1.366   3.440 -0.7146 -0.0658 -2.6492
15659TIP3   OH268391   1.663   1.180  17.076  0.4176  0.0531  0.1850
15659TIP3    H168392   1.722   1.128  17.020 -0.5141  0.1410 -0.9162
15659TIP3    H268393   1.577   1.140  17.064 -0.0113  0.8217  0.6383
15660TIP3   OH268394   1.343   5.020  17.223  0.1758 -0.4579 -0.0132
15660TIP3    H168395   1.256   5.060  17.211  0.6255  0.7960  0.6474
15660TIP3    H268396   1.404   5.093  17.211  0.9910 -0.6906  2.2541
15661TIP3   OH268397   5.644   3.246   2.880  0.5524 -0.1420  0.3296
15661TIP3    H168398   5.627   3.288   2.795 -0.0010  0.6389  0.8125
15661TIP3    H268399   5.705   3.305   2.924  2.1712 -1.3777 -0.1542
15662TIP3   OH268400   4.949   1.385  12.699 -0.1428 -0.4756  0.3881
15662TIP3    H168401   5.031   1.354  12.660  0.0099  1.5097 -1.0070
15662TIP3    H268402   4.888   1.388  12.626 -0.0229  2.7907  0.2974
15663TIP3   OH268403   1.754   4.536   1.962 -0.1579  0.4760 -0.2468
15663TIP3    H168404   1.765   4.631   1.963 -0.0194  0.4605 -0.2890
15663TIP3    H268405   1.843   4.501   1.967 -0.2554  0.3478  0.7168
15664TIP3   OH268406   1.945   2.855   4.142  0.3258  0.0356  0.0922
15664TIP3    H168407   2.026   2.906   4.145 -0.8117  1.9977 -0.8294
15664TIP3    H268408   1.935   2.829   4.051 -0.5203  0.6155 -0.0004
15665TIP3   OH268409   5.348   3.926   4.152 -0.2795 -0.4733 -0.7057
15665TIP3    H168410   5.442   3.936   4.167 -0.4016  0.9856 -0.7649
15665TIP3    H268411   5.330   3.835   4.176  0.8741 -0.3720  0.7513
15666TIP3   OH268412   1.715   2.670   6.097 -0.2181  1.0849 -0.5428
15666TIP3    H168413   1.651   2.684   6.028  0.4711 -0.4477 -1.5727
15666TIP3    H268414   1.664   2.662   6.177 -1.3614 -0.3265 -1.3703
15667TIP3   OH268415   0.178   0.744  11.107  0.3788  0.0271  0.4365
15667TIP3    H168416   0.121   0.667  11.105 -0.7017  0.7573  1.7053
15667TIP3    H268417   0.168   0.780  11.195  2.4437  0.4893  0.5391
15668TIP3   OH268418   2.096   6.194  14.032  0.1207  0.2310 -0.4820
15668TIP3    H168419   2.067   6.262  13.971 -4.5026 -0.5666  0.4599
15668TIP3    H268420   2.138   6.128  13.976  0.1302  1.5494 -2.0952
15669TIP3   OH268421   0.353   5.268  14.849 -0.4790 -0.0489  0.2225
15669TIP3    H168422   0.400   5.348  14.828  0.1689 -0.3381  0.5488
15669TIP3    H268423   0.331   5.229  14.764 -0.4191  0.2550  0.0682
15670TIP3   OH268424   5.237   6.367   3.170 -0.7797  0.4487 -0.0406
15670TIP3    H168425   5.301   6.398   3.106  0.5610 -0.2424  0.9133
15670TIP3    H268426   5.153   6.396   3.135 -0.0060  0.9881 -1.5724
15671TIP3   OH268427   5.944   2.468   5.038  0.0180  0.1066 -0.0354
15671TIP3    H168428   5.883   2.456   4.965 -1.6008 -1.1890  1.4398
15671TIP3    H268429   6.026   2.495   4.997 -0.8534 -0.5128 -2.3094
15672TIP3   OH268430   0.253   3.623   3.686  0.8214 -0.3042 -0.2706
15672TIP3    H168431   0.329   3.618   3.628  2.3739  1.1650  1.5126
15672TIP3    H268432   0.284   3.590   3.770  0.6912  3.5470  1.5102
15673TIP3   OH268433   4.030   3.146   3.396 -0.6541  0.0984 -0.1838
15673TIP3    H168434   4.022   3.097   3.314 -1.1083  0.8443 -0.5977
15673TIP3    H268435   3.945   3.135   3.438 -1.1637  1.4601 -0.8197
15674TIP3   OH268436   3.283   3.443  11.268  0.4829  0.2608 -0.1874
15674TIP3    H168437   3.361   3.427  11.322  0.5910 -0.1615 -0.4693
15674TIP3    H268438   3.219   3.479  11.330  0.7227  0.1159  0.1531
15675TIP3   OH268439   6.544   6.319  15.440 -0.0255  0.2853 -0.4017
15675TIP3    H168440   6.495   6.363  15.510  0.2886  0.1930 -0.1196
15675TIP3    H268441   6.490   6.330  15.362 -1.3618 -1.2709  0.2352
15676TIP3   OH268442   5.429   3.354   3.063 -0.3511 -0.0847  0.3242
15676TIP3    H168443   5.478   3.295   3.005 -1.0900  0.8435 -1.3208
15676TIP3    H268444   5.490   3.373   3.135 -0.3251 -3.3627  1.3327
15677TIP3   OH268445   3.594   3.014   1.364  0.4741 -0.7796  0.6025
15677TIP3    H168446   3.610   2.958   1.439  2.5886  1.1370  1.7096
15677TIP3    H268447   3.681   3.026   1.324 -0.3745 -0.5850 -1.2860
15678TIP3   OH268448   6.217   2.802  14.427  0.0462  0.3180 -0.2564
15678TIP3    H168449   6.185   2.743  14.359  0.0311  1.7578 -1.5493
15678TIP3    H268450   6.310   2.782  14.434 -0.0847 -0.3061 -0.1989
15679TIP3   OH268451   5.875   6.465  14.494  0.4571  0.1938  0.6016
15679TIP3    H168452   5.937   6.497  14.559 -1.1187  0.7475  1.9262
15679TIP3    H268453   5.812   6.413  14.545 -1.4087  1.4855 -0.2732
15680TIP3   OH268454   2.102   0.476   2.258 -0.3084  0.5982 -0.0262
15680TIP3    H168455   2.139   0.430   2.333 -1.2237  1.9067  1.2698
15680TIP3    H268456   2.008   0.475   2.272 -0.5997 -0.0668 -1.7424
15681TIP3   OH268457   1.160   3.696  11.589 -0.2275 -0.8548 -0.0941
15681TIP3    H168458   1.247   3.735  11.599  0.5656 -1.6837 -2.8793
15681TIP3    H268459   1.101   3.771  11.591  0.4752 -0.2780  1.9332
15682TIP3   OH268460   6.203   5.718   6.968  0.7006 -0.0092  0.0939
15682TIP3    H168461   6.298   5.718   6.981  0.6909  0.2617  0.1766
15682TIP3    H268462   6.192   5.743   6.876  0.7191 -0.3929 -0.0151
15683TIP3   OH268463   3.245   6.536   1.740  0.3979  0.1986  0.0385
15683TIP3    H168464   3.164   6.485   1.735 -0.0866  0.6403  2.5133
15683TIP3    H268465   3.248   6.569   1.829  2.5625  1.4828 -0.4341
15684TIP3   OH268466   0.597   6.206   6.296 -0.2479  0.1811 -0.6007
15684TIP3    H168467   0.688   6.230   6.310  0.1473  0.3472 -3.0492
15684TIP3    H268468   0.548   6.263   6.355  1.2040  0.1256  0.7133
15685TIP3   OH268469   3.828   3.241  14.489  0.1350 -0.5574  0.2641
15685TIP3    H168470   3.849   3.334  14.480 -2.6855  0.2353  0.7108
15685TIP3    H268471   3.905   3.195  14.457  0.8635  1.9421 -1.8974
15686TIP3   OH268472   2.973   6.317   3.012  0.7095 -0.1731  0.1420
15686TIP3    H168473   3.057   6.302   3.055  0.3984 -1.3982  0.3705
15686TIP3    H268474   2.924   6.371   3.074  0.5110 -1.3648  1.0647
15687TIP3   OH268475   0.081   0.686   6.299 -0.2614 -0.8779  0.4500
15687TIP3    H168476   0.150   0.748   6.278 -1.4058  0.2054 -0.2470
15687TIP3    H268477   0.094   0.665   6.391 -0.3289  1.0517  0.9413
15688TIP3   OH268478   2.428   0.092  11.900  0.7364 -0.1974 -0.5922
15688TIP3    H168479   2.482   0.142  11.961  0.0612  0.9559 -0.9057
15688TIP3    H268480   2.483   0.082  11.823  1.0851 -0.4375 -0.3159
15689TIP3   OH268481   2.647   1.996   0.070 -0.4724 -0.6383  0.2376
15689TIP3    H168482   2.561   1.982   0.111 -0.5349 -1.3934 -0.1311
15689TIP3    H268483   2.705   2.018   0.143  0.1494 -4.9898  1.3744
15690TIP3   OH268484   4.951   5.986  16.421  0.1841  0.0611 -0.6143
15690TIP3    H168485   4.989   6.031  16.345  2.5932 -2.1145 -0.8306
15690TIP3    H268486   4.948   6.053  16.489  0.1118  1.4794 -1.9469
15691TIP3   OH268487   1.855   1.718  17.251  0.1779  0.4288  0.9344
15691TIP3    H168488   1.920   1.787  17.240  0.9606 -0.5460 -1.2364
15691TIP3    H268489   1.906   1.638  17.260 -0.6450 -0.3836 -1.0420
15692TIP3   OH268490   2.772   0.773  15.492 -0.3383  0.7430  0.8153
15692TIP3    H168491   2.813   0.696  15.452 -0.7259  0.7979  0.2982
15692TIP3    H268492   2.678   0.755  15.486 -0.4057  0.8177  1.5844
15693TIP3   OH268493   0.878   2.303  12.370 -0.2588 -0.0118 -0.2271
15693TIP3    H168494   0.860   2.245  12.296 -2.0904 -0.2270  0.3393
15693TIP3    H268495   0.868   2.247  12.447 -1.0295  0.7901  0.2789
15694TIP3   OH268496   4.035   5.576   1.129  0.3332  0.2343 -0.6694
15694TIP3    H168497   4.030   5.570   1.225 -3.7849  0.3392 -0.6746
15694TIP3    H268498   4.049   5.669   1.112 -0.0010  0.3839 -0.1466
15695TIP3   OH268499   3.349   5.655  12.410 -0.0406  0.3738 -0.7872
15695TIP3    H168500   3.270   5.613  12.376 -0.9537  1.2813  0.1502
15695TIP3    H268501   3.332   5.749  12.400 -0.8443  0.7682  3.0064
15696TIP3   OH268502   2.527   1.638   0.242  0.0302  0.2438  0.4938
15696TIP3    H168503   2.488   1.675   0.321  0.6585 -2.6826  2.3146
15696TIP3    H268504   2.452   1.608   0.191 -0.3268 -1.7198  2.0697
15697TIP3   OH268505   3.204   0.617  14.291 -0.9696  0.0542 -0.5255
15697TIP3    H168506   3.166   0.639  14.376  0.5376 -0.2486  0.2870
15697TIP3    H268507   3.288   0.663  14.290  0.0058 -1.6311 -0.8979
15698TIP3   OH268508   3.308   3.998   0.114 -0.1650  0.1554  0.2083
15698TIP3    H168509   3.335   3.922   0.165 -1.5868  0.6211  1.7947
15698TIP3    H268510   3.389   4.036   0.082  1.2254  1.2204  4.2863
15699TIP3   OH268511   0.943   0.435   1.886  0.2205 -0.1590 -0.5312
15699TIP3    H168512   0.864   0.423   1.832 -0.4266 -0.2542  0.4212
15699TIP3    H268513   0.981   0.517   1.854 -1.3651  0.9596  0.3010
15700TIP3   OH268514   4.097   3.797  12.735  0.2221 -0.0481 -0.1826
15700TIP3    H168515   4.134   3.816  12.822 -2.0780 -1.2939  1.1687
15700TIP3    H268516   4.049   3.715  12.747  0.4593 -0.6759 -2.8714
15701TIP3   OH268517   5.391   4.324   4.398 -0.0591  0.1339  0.0390
15701TIP3    H168518   5.431   4.303   4.314 -0.3972 -0.0120 -0.0905
15701TIP3    H268519   5.430   4.262   4.460 -0.0644  0.0108 -0.0797
15702TIP3   OH268520   0.517   6.176   3.988 -0.1865 -0.3174  0.2259
15702TIP3    H168521   0.451   6.171   4.057 -0.2397 -2.3129  0.0915
15702TIP3    H268522   0.595   6.209   4.033 -0.6122 -0.1867  0.8969
15703TIP3   OH268523   1.816   2.112   1.392  0.1031 -0.1066  0.1550
15703TIP3    H168524   1.905   2.141   1.410 -0.1323  0.8611 -0.2015
15703TIP3    H268525   1.803   2.129   1.299 -1.2525  2.0456  0.6688
15704TIP3   OH268526   6.570   2.604  10.575  0.4999  0.3220 -0.0585
15704TIP3    H168527   6.536   2.525  10.533 -0.4264 -0.5765  2.1820
15704TIP3    H268528   6.662   2.584  10.592  0.1401 -0.5629  0.9994
15705TIP3   OH268529   2.323   1.121   4.897  0.5687 -0.3489 -0.0734
15705TIP3    H168530   2.367   1.206   4.903  0.2534  0.0062 -2.0077
15705TIP3    H268531   2.344   1.089   4.810 -1.0986 -1.2278 -0.2027
15706TIP3   OH268532   6.187   2.261  11.030 -0.2071  0.0299 -0.1999
15706TIP3    H168533   6.205   2.200  10.958 -0.5704 -0.3997  0.0693
15706TIP3    H268534   6.206   2.211  11.109  0.0160  0.4457  0.0129
15707TIP3   OH268535   2.968   6.262   4.687  0.0769  0.5708 -0.8521
15707TIP3    H168536   3.055   6.225   4.702 -0.4944 -0.2996  0.4533
15707TIP3    H268537   2.971   6.292   4.596  1.0935 -1.2358 -1.4708
15708TIP3   OH268538   5.743   2.919  13.834  0.5380  0.0218  0.4771
15708TIP3    H168539   5.798   2.876  13.769 -0.0828 -0.0875  0.0150
15708TIP3    H268540   5.667   2.862  13.844  0.9421 -0.3241  1.8307
15709TIP3   OH268541   3.818   0.113   4.746  0.1758  0.3541  0.1010
15709TIP3    H168542   3.909   0.125   4.716 -0.0429 -0.5237 -0.9875
15709TIP3    H268543   3.770   0.185   4.707 -0.0328 -0.5651 -1.4255
15710TIP3   OH268544   3.017   0.147   3.481  0.2121 -0.2474  0.2337
15710TIP3    H168545   3.071   0.162   3.404  0.1785 -1.5913 -0.0788
15710TIP3    H268546   2.933   0.115   3.446  0.1916 -0.8612  0.8122
15711TIP3   OH268547   2.769   3.654  12.061  0.0800 -0.2018  0.3008
15711TIP3    H168548   2.775   3.741  12.021 -1.5102 -0.2268 -0.0634
15711TIP3    H268549   2.749   3.671  12.153 -0.9343 -0.1671  0.0857
15712TIP3   OH268550   4.150   4.110   5.628  0.7891 -0.4863 -0.1152
15712TIP3    H168551   4.057   4.131   5.635  1.3391  2.8633 -0.9082
15712TIP3    H268552   4.181   4.109   5.718  0.4248  1.1839  0.0696
15713TIP3   OH268553   1.560   6.411   4.920 -0.0079  0.2580 -0.1291
15713TIP3    H168554   1.511   6.342   4.876  1.1979 -1.4946  1.1546
15713TIP3    H268555   1.619   6.445   4.853 -0.9619  0.4330 -0.9060
15714TIP3   OH268556   5.861   1.380  13.507 -0.0199 -0.0119 -0.1021
15714TIP3    H168557   5.803   1.381  13.583  0.4596 -1.2046  0.2964
15714TIP3    H268558   5.896   1.469  13.503 -1.1870  0.4812  0.1708
15715TIP3   OH268559   2.046   3.421   3.425 -0.3937  0.0225 -0.3007
15715TIP3    H168560   2.015   3.390   3.511 -0.5366  1.3375  0.1414
15715TIP3    H268561   2.068   3.513   3.439  3.1839 -0.6161 -0.7205
15716TIP3   OH268562   1.918   0.225   5.979  0.3779  0.2506  0.1903
15716TIP3    H168563   1.828   0.231   6.010  0.5209 -0.9007  0.8698
15716TIP3    H268564   1.937   0.312   5.943 -1.4556  0.1104 -1.2648
15717TIP3   OH268565   3.760   1.285  12.357 -0.3739  0.0537 -1.0263
15717TIP3    H168566   3.828   1.353  12.359  0.9366 -1.2191  0.4657
15717TIP3    H268567   3.706   1.307  12.281  1.0110  1.7787 -1.5729
15718TIP3   OH268568   3.234   2.705   4.111  0.4056 -0.5150 -0.4667
15718TIP3    H168569   3.275   2.619   4.108 -2.0131 -1.7275 -1.6140
15718TIP3    H268570   3.230   2.733   4.019  0.3540  0.4243 -0.1907
15719TIP3   OH268571   1.273   2.902  16.672 -0.0706  0.1758 -0.6319
15719TIP3    H168572   1.349   2.847  16.654  1.3665  1.8537  0.0187
15719TIP3    H268573   1.308   2.990  16.681 -2.0209  0.9296  0.2894
15720TIP3   OH268574   5.589   5.319  15.165  0.4166 -0.0196  0.4691
15720TIP3    H168575   5.543   5.265  15.101 -0.7915  1.7475 -0.2334
15720TIP3    H268576   5.548   5.406  15.157  1.6719  0.7832  2.1600
15721TIP3   OH268577   5.563   4.137  16.668 -0.0500 -0.2146 -0.3466
15721TIP3    H168578   5.548   4.042  16.665 -1.1257 -0.0589 -0.4028
15721TIP3    H268579   5.493   4.170  16.724  0.5020  0.5158 -0.0754
15722TIP3   OH268580   1.013   6.128   2.681 -0.3770 -0.3010  0.4594
15722TIP3    H168581   1.032   6.222   2.675 -0.9152 -0.0977  1.6573
15722TIP3    H268582   0.919   6.122   2.667 -0.0295 -0.9634 -2.1388
15723TIP3   OH268583   3.014   2.403   1.818 -0.3884  0.0018 -0.8781
15723TIP3    H168584   3.032   2.319   1.777 -1.3896  0.5596 -2.5755
15723TIP3    H268585   3.065   2.466   1.767 -0.6767  0.5849 -0.4617
15724TIP3   OH268586   4.988   4.573   4.919 -0.4501  0.6454 -0.6804
15724TIP3    H168587   5.035   4.496   4.951 -0.8190  0.1664 -1.2626
15724TIP3    H268588   5.057   4.632   4.889 -0.0878  1.1771  1.1016
15725TIP3   OH268589   1.649   0.174  15.696 -0.0596  0.3149  0.0348
15725TIP3    H168590   1.740   0.144  15.695 -0.1453 -0.0066  1.0898
15725TIP3    H268591   1.655   0.267  15.674  0.5788  0.4115  0.5855
15726TIP3   OH268592   1.939   6.453  14.471  0.1974 -0.1251 -0.4904
15726TIP3    H168593   2.025   6.421  14.496  0.3515  0.5456 -0.1180
15726TIP3    H268594   1.957   6.522  14.406 -0.0294  0.2586 -0.1540
15727TIP3   OH268595   4.435   3.772   3.596  0.0964  0.3307  0.1057
15727TIP3    H168596   4.368   3.709   3.622  0.5026 -0.4671 -0.7277
15727TIP3    H268597   4.486   3.727   3.529 -0.1123  1.8405 -1.1320
15728TIP3   OH268598   0.464   6.706   4.070 -0.2440  0.1321  0.7268
15728TIP3    H168599   0.400   6.770   4.039 -3.1022 -3.0861 -0.5528
15728TIP3    H268600   0.420   6.663   4.143  0.0205 -2.6996 -0.6824
15729TIP3   OH268601   0.586   6.560   0.787  0.9444  0.1279 -0.4533
15729TIP3    H168602   0.631   6.627   0.735  2.2310 -0.6167 -0.3503
15729TIP3    H268603   0.657   6.508   0.824 -0.0171 -0.8423  0.0657
15730TIP3   OH268604   1.018   5.061   4.409  0.3001 -0.3290  0.0642
15730TIP3    H168605   1.044   5.034   4.321  2.8155 -0.4854  0.7912
15730TIP3    H268606   0.989   4.980   4.451  0.3588 -0.4822 -0.1882
15731TIP3   OH268607   2.773   3.342  15.065 -0.0780  0.2585  0.1392
15731TIP3    H168608   2.724   3.317  14.987  0.3885 -0.2267 -0.0011
15731TIP3    H268609   2.711   3.330  15.137 -0.3064  0.0925 -0.0824
15732TIP3   OH268610   0.306   5.913   5.681  0.0076  0.6841  0.5703
15732TIP3    H168611   0.294   5.924   5.587 -2.9812 -0.0555  0.7639
15732TIP3    H268612   0.382   5.967   5.702  0.4062  1.3390 -2.1353
15733TIP3   OH268613   3.104   3.376  14.116 -0.2855 -0.2464  0.2149
15733TIP3    H168614   3.037   3.434  14.150 -2.0734 -2.2690  0.3353
15733TIP3    H268615   3.057   3.312  14.063  2.0043  0.5528 -3.0594
15734TIP3   OH268616   3.977   1.790  13.524 -0.2332  0.1252 -0.8717
15734TIP3    H168617   3.915   1.846  13.571 -0.4633 -0.5158 -0.3978
15734TIP3    H268618   4.059   1.839  13.524 -1.0357  1.5982 -2.6586
15735TIP3   OH268619   0.494   1.200   4.229  0.2023  0.6723 -0.6669
15735TIP3    H168620   0.432   1.266   4.262 -0.3220 -1.0662  2.1276
15735TIP3    H268621   0.578   1.246   4.226  0.1057  1.2967  2.4297
15736TIP3   OH268622   4.328   3.393   1.612 -0.1444  0.1338 -0.2717
15736TIP3    H168623   4.245   3.402   1.565 -0.9930  0.6957  1.2859
15736TIP3    H268624   4.314   3.439   1.695  0.7642 -2.1231  1.2249
15737TIP3   OH268625   1.988   5.634  17.350 -0.3049 -0.2703  0.2038
15737TIP3    H168626   2.079   5.637  17.320 -1.2226 -0.2040 -2.8548
15737TIP3    H268627   1.975   5.718  17.394  0.2516  1.2456 -2.3124
15738TIP3   OH268628   0.234   3.981   4.430 -0.0077 -0.1560 -0.1781
15738TIP3    H168629   0.214   3.969   4.522 -0.4889  1.6395 -0.0140
15738TIP3    H268630   0.330   3.982   4.426  0.0170 -0.0312  0.3426
15739TIP3   OH268631   1.668   3.064   1.709 -0.0528 -0.6641 -0.2223
15739TIP3    H168632   1.575   3.041   1.716 -0.2542 -0.0975 -0.8707
15739TIP3    H268633   1.710   2.983   1.682 -0.2457 -1.1046  0.7368
15740TIP3   OH268634   2.512   0.059   3.124 -0.0204  0.1868 -0.2093
15740TIP3    H168635   2.510   0.052   3.028  1.7116  0.2262 -0.2807
15740TIP3    H268636   2.474  -0.024   3.154  0.0628 -0.1323 -0.9399
15741TIP3   OH268637   0.562   2.807   3.589 -0.4230 -0.0734 -0.8234
15741TIP3    H168638   0.579   2.859   3.667  0.6889 -2.5224  0.6857
15741TIP3    H268639   0.616   2.847   3.521  0.4225  0.7315  0.2902
15742TIP3   OH268640   6.566   2.970   2.936 -0.4882 -0.6170 -0.0373
15742TIP3    H168641   6.529   2.925   3.012  0.2624 -2.4320 -0.6915
15742TIP3    H268642   6.660   2.953   2.941 -0.1451  1.0468 -0.2501
15743TIP3   OH268643   3.936   4.284   6.603 -0.7369  0.4691  0.3450
15743TIP3    H168644   3.883   4.280   6.682 -1.7039  1.7861 -0.1976
15743TIP3    H268645   3.874   4.267   6.532 -0.2835  1.2380 -0.2525
15744TIP3   OH268646   2.874   2.517   3.109  0.1757 -0.2579 -0.1015
15744TIP3    H168647   2.853   2.424   3.110 -0.9867 -0.0334 -1.1840
15744TIP3    H268648   2.847   2.547   3.022  1.8469  0.8119 -0.2842
15745TIP3   OH268649   3.826   2.109  14.737  0.5027 -0.0825 -0.2116
15745TIP3    H168650   3.902   2.050  14.742 -0.3521 -1.1584  0.5858
15745TIP3    H268651   3.770   2.083  14.810 -0.5579  0.8165 -0.6671
15746TIP3   OH268652   0.928   2.703  14.309 -0.7907 -0.6597  0.4490
15746TIP3    H168653   0.840   2.671  14.327 -0.2627 -1.6680  1.3283
15746TIP3    H268654   0.937   2.781  14.364 -1.9377  0.8614 -1.4011
15747TIP3   OH268655   1.497   4.781  14.730 -0.3533 -0.6946 -0.2691
15747TIP3    H168656   1.557   4.799  14.657  1.6498 -0.7680  1.2787
15747TIP3    H268657   1.517   4.850  14.794  1.3912 -3.2971  2.1980
15748TIP3   OH268658   6.313   5.288   3.688  0.3172  0.6313  0.4227
15748TIP3    H168659   6.346   5.365   3.735  1.2873  1.3667 -1.3806
15748TIP3    H268660   6.363   5.285   3.607  0.5652 -2.1356  0.5679
15749TIP3   OH268661   1.266   1.513   4.773 -0.0230 -0.1491  0.7339
15749TIP3    H168662   1.299   1.545   4.857  1.2258 -1.7617  0.8872
15749TIP3    H268663   1.333   1.538   4.709 -0.2445 -0.2541  0.4579
15750TIP3   OH268664   4.274   3.989   5.868  0.1422 -0.5139  0.8734
15750TIP3    H168665   4.192   3.942   5.880 -0.0532 -0.1270  1.0751
15750TIP3    H268666   4.331   3.927   5.821 -0.3274 -0.7107  0.5580
15751TIP3   OH268667   6.001   0.155   1.661 -0.5102 -0.8079 -0.0691
15751TIP3    H168668   6.032   0.238   1.698 -0.0728 -0.6796 -0.7106
15751TIP3    H268669   5.928   0.130   1.718  0.8706 -1.2057  1.6171
15752TIP3   OH268670   3.554   1.550  16.702 -0.1865 -0.7951 -0.1389
15752TIP3    H168671   3.470   1.578  16.737 -0.8540 -0.7563 -1.6932
15752TIP3    H268672   3.532   1.487  16.633  0.9038  0.9420 -2.2004
15753TIP3   OH268673   5.227   0.725  14.642  0.0046 -0.3701  0.5426
15753TIP3    H168674   5.196   0.803  14.597 -0.6414 -0.3815  0.9561
15753TIP3    H268675   5.260   0.668  14.572 -0.0275  0.0384  0.1898
15754TIP3   OH268676   3.453   6.579  16.285 -0.1859  0.1943  0.0307
15754TIP3    H168677   3.486   6.662  16.251 -1.3062  0.5411 -0.2603
15754TIP3    H268678   3.365   6.599  16.317 -0.0986 -0.6691  0.8918
15755TIP3   OH268679   0.914   0.005   1.388  0.5761 -0.0871  0.3898
15755TIP3    H168680   0.903  -0.089   1.395  0.4383  0.0547  2.6300
15755TIP3    H268681   0.987   0.026   1.447  2.7530  0.8968 -2.4070
15756TIP3   OH268682   0.435   4.031   2.582 -0.1464 -0.5879 -0.0076
15756TIP3    H168683   0.492   3.955   2.568  1.4995  0.6428 -0.3222
15756TIP3    H268684   0.487   4.089   2.638 -0.7920  0.9042 -0.9012
15757TIP3   OH268685   1.317   4.773   2.734  0.0787 -0.2240  0.0031
15757TIP3    H168686   1.404   4.752   2.701 -0.4040 -1.5146 -0.5001
15757TIP3    H268687   1.290   4.696   2.784  0.8596  1.7243  3.7806
15758TIP3   OH268688   5.463   2.650   0.488 -0.2790  0.4561  0.5117
15758TIP3    H168689   5.440   2.644   0.395 -0.2977  2.0598  0.3777
15758TIP3    H268690   5.525   2.723   0.493  1.8387 -1.2997  1.4197
15759TIP3   OH268691   3.689   5.287  12.011 -0.0968  0.8408 -0.2729
15759TIP3    H168692   3.718   5.357  12.069  0.7694  0.2921 -0.0261
15759TIP3    H268693   3.596   5.305  11.996 -0.7208  0.2192  2.3902
15760TIP3   OH268694   4.455   5.857  12.459  0.1645  0.4759 -0.7372
15760TIP3    H168695   4.464   5.815  12.544  1.9356  1.1243 -0.5608
15760TIP3    H268696   4.396   5.930  12.474 -0.0685  0.1864 -0.2305
15761TIP3   OH268697   3.030   3.797   1.368 -0.4923 -0.1664  0.2540
15761TIP3    H168698   3.067   3.730   1.425  1.9836 -0.4801 -1.5675
15761TIP3    H268699   2.983   3.747   1.301  0.0489 -0.0091 -0.2429
15762TIP3   OH268700   5.898   6.575   0.368  0.3288 -0.5953 -0.0252
15762TIP3    H168701   5.956   6.648   0.387 -1.7281  0.8072  1.2236
15762TIP3    H268702   5.956   6.508   0.329  2.5810  0.9775  0.4134
15763TIP3   OH268703   1.585   0.874   6.057 -0.2365 -1.0079  0.0617
15763TIP3    H168704   1.598   0.802   6.119  0.9819 -1.9334 -1.2018
15763TIP3    H268705   1.636   0.946   6.093 -2.0660 -0.4356  1.7400
15764TIP3   OH268706   2.315   4.651  12.467 -0.5767 -0.5803 -0.0840
15764TIP3    H168707   2.242   4.635  12.408 -0.2497  1.4347 -1.1025
15764TIP3    H268708   2.383   4.691  12.412  0.5260 -0.5381  1.2386
15765TIP3   OH268709   5.768   6.592   0.644  0.2598  0.1672 -0.7203
15765TIP3    H168710   5.756   6.523   0.709  1.5712  0.9409  0.3925
15765TIP3    H268711   5.807   6.548   0.569 -0.1870 -0.5309 -0.5495
15766TIP3   OH268712   4.701   1.863   3.663 -0.2685 -0.3705 -0.0722
15766TIP3    H168713   4.759   1.861   3.738 -0.6206 -0.9294  0.1893
15766TIP3    H268714   4.656   1.779   3.664 -1.4428  0.2300  0.0258
15767TIP3   OH268715   2.393   3.703   1.374 -0.1789 -0.0128 -0.1199
15767TIP3    H168716   2.408   3.609   1.366 -1.1994 -0.4555  2.4490
15767TIP3    H268717   2.303   3.716   1.344  0.3941  0.4100 -1.7709
15768TIP3   OH268718   2.972   1.525   0.736  0.5007  0.1304  0.0125
15768TIP3    H168719   3.014   1.450   0.692  0.1421 -0.1479  0.1403
15768TIP3    H268720   2.939   1.488   0.818 -1.4367 -0.0434 -0.8041
15769TIP3   OH268721   0.239   1.560   5.024 -0.0016  0.0443  0.0463
15769TIP3    H168722   0.206   1.648   5.004 -2.3902 -0.9275 -0.6157
15769TIP3    H268723   0.179   1.501   4.979 -0.0613 -2.0142  2.5912
15770TIP3   OH268724   2.350   3.062   2.675 -0.2805  0.1622 -0.1329
15770TIP3    H168725   2.424   3.012   2.711 -0.0391 -0.6537 -1.6895
15770TIP3    H268726   2.313   3.107   2.751  0.2306 -1.4519  1.1342
15771TIP3   OH268727   2.032   1.654  12.617  0.1937 -1.0940  0.3549
15771TIP3    H168728   2.103   1.704  12.656 -1.5920  2.0585 -0.1116
15771TIP3    H268729   1.954   1.681  12.665 -1.2310 -1.5079 -1.5994
15772TIP3   OH268730   0.640   1.620   2.699 -0.4149 -0.1548 -0.4741
15772TIP3    H168731   0.576   1.691   2.691 -0.4071 -0.2160 -1.1827
15772TIP3    H268732   0.591   1.540   2.683 -0.7228 -0.4659  1.7695
15773TIP3   OH268733   0.224   5.294   2.436  0.2912  0.1821 -0.0980
15773TIP3    H168734   0.301   5.248   2.402 -0.8494 -2.7186  0.8628
15773TIP3    H268735   0.153   5.230   2.428 -1.8616  2.4577 -0.2031
15774TIP3   OH268736   1.725   1.600   2.715 -0.0774 -0.1383 -0.0365
15774TIP3    H168737   1.718   1.508   2.692 -0.2105 -0.4616  1.2297
15774TIP3    H268738   1.801   1.605   2.772  0.6301  0.7417 -1.0289
15775TIP3   OH268739   1.168   2.814   5.603 -0.2628  0.4329 -0.1732
15775TIP3    H168740   1.199   2.749   5.539 -1.3298  0.4738 -0.7403
15775TIP3    H268741   1.187   2.898   5.563 -0.9676  0.4589 -0.4501
15776TIP3   OH268742   0.288   2.023   5.765  0.4624  1.1237 -0.1833
15776TIP3    H168743   0.335   1.940   5.771  0.3441  1.0767  0.1294
15776TIP3    H268744   0.337   2.083   5.821 -0.7463  0.6388  1.4868
15777TIP3   OH268745   2.801   0.942  17.358  0.2757  0.0295 -0.1594
15777TIP3    H168746   2.799   0.872  17.423  2.6535 -0.1126 -0.1437
15777TIP3    H268747   2.825   1.020  17.409 -0.2498  0.4157 -0.5004
15778TIP3   OH268748   5.553   2.173   1.524 -0.1129 -0.3390 -0.0036
15778TIP3    H168749   5.633   2.127   1.548 -0.8403 -1.2943  0.6451
15778TIP3    H268750   5.482   2.111   1.544 -0.9281 -0.2274 -2.2753
15779TIP3   OH268751   2.264   5.019   3.910 -0.2747 -0.1092  0.1387
15779TIP3    H168752   2.282   5.015   4.004  0.8582 -0.1315 -0.0660
15779TIP3    H268753   2.342   5.060   3.873 -0.8180  0.1172 -0.7678
15780TIP3   OH268754   3.485   6.223  15.342  0.3175 -0.2103  0.4039
15780TIP3    H168755   3.522   6.300  15.384 -1.9881  0.4654  1.3315
15780TIP3    H268756   3.462   6.252  15.254 -1.0684  0.3968  0.9306
15781TIP3   OH268757   5.588   5.244   5.235  0.3888  0.3713  0.6157
15781TIP3    H168758   5.683   5.230   5.235  0.3288 -0.2948 -0.8942
15781TIP3    H268759   5.576   5.328   5.279  1.3790 -1.0288  3.8099
15782TIP3   OH268760   0.487   4.331   5.858 -0.2249 -0.3677 -0.4699
15782TIP3    H168761   0.520   4.341   5.947 -0.9300 -2.4548  0.0759
15782TIP3    H268762   0.394   4.348   5.865 -0.5016 -1.7540 -0.5351
15783TIP3   OH268763   0.047   5.986  17.224 -0.1157  0.5929 -0.0021
15783TIP3    H168764   0.081   5.984  17.313 -0.6356 -1.9783  0.2139
15783TIP3    H268765   0.125   5.980  17.168  0.1247  0.7325  0.3174
15784TIP3   OH268766   2.541   3.785   2.666 -0.2281  0.2088  0.2253
15784TIP3    H168767   2.485   3.729   2.722  0.0647  0.5815  0.8957
15784TIP3    H268768   2.497   3.784   2.581  0.9993 -3.0007 -0.5266
15785TIP3   OH268769   0.186   1.166  17.065 -0.4205  0.3595 -0.3780
15785TIP3    H168770   0.242   1.101  17.106 -1.7245 -0.2632  0.5058
15785TIP3    H268771   0.190   1.242  17.124 -0.0547  0.5336 -0.6262
15786TIP3   OH268772   2.952   5.410  16.095  0.1811 -0.1798  0.2411
15786TIP3    H168773   2.989   5.322  16.091 -0.6799 -0.5748  0.6108
15786TIP3    H268774   2.862   5.396  16.125  0.3296  0.9101  1.2400
15787TIP3   OH268775   1.312   0.688  16.289 -0.1489 -0.2437 -0.2589
15787TIP3    H168776   1.266   0.659  16.368  0.4084  0.0832  0.1944
15787TIP3    H268777   1.275   0.634  16.219 -0.2552 -0.9327  0.3094
15788TIP3   OH268778   5.247   0.497  13.897  0.4295  0.3668 -0.5779
15788TIP3    H168779   5.306   0.563  13.932  2.4065 -1.5051 -0.1675
15788TIP3    H268780   5.197   0.543  13.830  0.6308  2.6140  0.7151
15789TIP3   OH268781   0.152   5.798  12.181  0.3557 -0.6450  0.3117
15789TIP3    H168782   0.070   5.798  12.132 -0.0552 -1.0387  1.0072
15789TIP3    H268783   0.171   5.706  12.197  0.2740 -0.5042  1.2558
15790TIP3   OH268784   4.726   5.929  12.467 -0.1768  0.4203  0.3037
15790TIP3    H168785   4.642   5.883  12.465 -0.1234  0.1857  2.3192
15790TIP3    H268786   4.739   5.958  12.376 -0.9906 -2.0978 -0.6858
15791TIP3   OH268787   6.570   1.256  14.849 -0.3379 -0.7596 -0.8142
15791TIP3    H168788   6.518   1.254  14.930 -0.3918 -0.9289 -0.8524
15791TIP3    H268789   6.659   1.273  14.878 -0.5452  0.3997 -0.8142
15792TIP3   OH268790   2.829   6.607   1.759 -0.3041 -0.0799 -0.0771
15792TIP3    H168791   2.881   6.526   1.764  0.1371  0.2195  0.2099
15792TIP3    H268792   2.751   6.588   1.812  0.0373 -0.1416  0.4129
15793TIP3   OH268793   5.052   0.981   6.809  0.1785  0.3856 -0.0486
15793TIP3    H168794   5.034   0.948   6.721  0.7211 -0.5633  0.1747
15793TIP3    H268795   4.971   0.967   6.858  0.1534  0.0983 -0.1705
15794TIP3   OH268796   0.860   3.796  11.571  0.4195  0.8306  0.5944
15794TIP3    H168797   0.916   3.851  11.625 -0.7119  1.2026  1.4132
15794TIP3    H268798   0.845   3.847  11.492 -1.3391  2.1406  1.7050
15795TIP3   OH268799   5.294   1.263  16.180 -0.3845 -0.3918  0.0132
15795TIP3    H168800   5.307   1.347  16.135 -1.7465 -0.9464 -1.5380
15795TIP3    H268801   5.381   1.224  16.183  0.1593  0.7885  0.1783
15796TIP3   OH268802   2.822   6.084   3.057 -0.1080  0.0037  0.4723
15796TIP3    H168803   2.862   6.164   3.024 -0.1959 -0.5713 -1.1307
15796TIP3    H268804   2.869   6.064   3.137 -0.0498  1.6186  0.8739
15797TIP3   OH268805   1.137   5.875  16.176  0.4500  0.5001 -0.4213
15797TIP3    H168806   1.050   5.836  16.190  0.7946 -0.0096  0.3968
15797TIP3    H268807   1.183   5.813  16.121  1.2432 -0.6764  1.4608
15798TIP3   OH268808   1.453   3.857   3.363 -0.0698 -0.3540 -0.4527
15798TIP3    H168809   1.505   3.883   3.287  0.2544 -0.0577 -0.1302
15798TIP3    H268810   1.401   3.934   3.384  0.6471 -0.0629  0.2966
15799TIP3   OH268811   6.087   3.545   1.987  0.0953  0.2708  0.4981
15799TIP3    H168812   6.169   3.496   1.998  0.1742  0.1285 -0.6377
15799TIP3    H268813   6.103   3.603   1.913 -1.0320 -0.1935 -0.1336
15800TIP3   OH268814   1.782   5.581   2.904 -0.0828  0.1089 -0.1481
15800TIP3    H168815   1.801   5.623   2.820 -0.1911  2.3541  0.8682
15800TIP3    H268816   1.687   5.586   2.912 -0.1537 -0.8922 -0.2538
15801TIP3   OH268817   5.666   0.087  15.825  0.5803 -0.3560 -0.1614
15801TIP3    H168818   5.587   0.086  15.880 -0.3815  0.5969 -1.4535
15801TIP3    H268819   5.640   0.040  15.746  0.6649  1.5299 -1.3747
15802TIP3   OH268820   0.608   3.908  14.027  0.0952  0.2285 -0.0026
15802TIP3    H168821   0.587   3.989  13.980  1.3251 -0.0547 -1.0865
15802TIP3    H268822   0.527   3.856  14.023 -0.4864  1.0981  0.1058
15803TIP3   OH268823   6.655   4.990  12.744 -0.0047 -0.3317  0.1081
15803TIP3    H168824   6.595   4.917  12.729 -1.6518  0.8819  0.5441
15803TIP3    H268825   6.649   5.043  12.664 -0.6631  0.5743  0.7472
15804TIP3   OH268826   0.637   6.689  17.390  0.3389  0.0181 -0.2266
15804TIP3    H168827   0.730   6.677  17.371  0.0436 -2.7274 -0.3555
15804TIP3    H268828   0.627   6.657  17.480 -0.5177 -0.0514 -0.3389
15805TIP3   OH268829   3.824   5.938   0.111  0.0548  0.0194 -0.1286
15805TIP3    H168830   3.898   5.938   0.172  0.9818 -0.0695 -1.2212
15805TIP3    H268831   3.855   5.989   0.036 -0.7601 -0.5547 -0.8752
15806TIP3   OH268832   4.657   5.917  15.563  0.5551  0.3069 -0.2170
15806TIP3    H168833   4.568   5.890  15.539  0.7192  1.0532 -1.7781
15806TIP3    H268834   4.713   5.870  15.502  1.1332  0.9879 -0.2197
15807TIP3   OH268835   1.424   2.994   1.645  0.5781  0.5941 -0.3030
15807TIP3    H168836   1.335   2.961   1.656  0.5145 -0.2832 -2.9151
15807TIP3    H268837   1.412   3.079   1.602  1.0104  0.2489 -1.1070
15808TIP3   OH268838   4.435   3.745  14.331 -0.1023  0.1578 -0.2277
15808TIP3    H168839   4.448   3.836  14.306  1.7401 -0.8948 -3.7960
15808TIP3    H268840   4.388   3.705  14.258 -0.5025 -1.8889  1.0342
15809TIP3   OH268841   0.918   0.405  14.863  0.0416  0.0722 -0.0529
15809TIP3    H168842   0.945   0.346  14.793 -0.2123  0.5978 -0.6114
15809TIP3    H268843   0.997   0.453  14.887 -0.0016  0.3453 -0.4394
15810TIP3   OH268844   3.743   3.800   2.821  0.1170 -0.4144 -0.0745
15810TIP3    H168845   3.798   3.790   2.743 -1.3647 -1.2800 -1.0590
15810TIP3    H268846   3.805   3.802   2.894  1.5191 -0.0543 -1.2188
15811TIP3   OH268847   6.377   3.076   1.269  0.1978  0.3153  0.4686
15811TIP3    H168848   6.332   3.043   1.191 -0.4644  0.1226  0.9179
15811TIP3    H268849   6.391   2.998   1.323  0.6416  0.4494  0.5514
15812TIP3   OH268850   6.736   1.667  12.190  0.3053  0.1312  0.7370
15812TIP3    H168851   6.808   1.723  12.217 -0.7917  0.3374  3.5680
15812TIP3    H268852   6.741   1.591  12.248  0.7686 -2.0283 -1.9117
15813TIP3   OH268853   4.554   2.289  13.268  0.8778 -0.1047 -0.3222
15813TIP3    H168854   4.581   2.199  13.288  3.1407  0.6509  0.2442
15813TIP3    H268855   4.519   2.284  13.179  0.9679 -1.5388 -0.3011
15814TIP3   OH268856   2.846   4.865   5.667 -0.5744  0.1902  0.3872
15814TIP3    H168857   2.912   4.843   5.733  0.2768 -0.3637 -0.6223
15814TIP3    H268858   2.896   4.900   5.593 -1.2953 -1.2478 -0.8292
15815TIP3   OH268859   6.009   1.816   1.590 -0.5581 -0.1806 -0.3848
15815TIP3    H168860   6.051   1.741   1.548 -0.1524  1.2120 -2.6324
15815TIP3    H268861   6.082   1.870   1.621 -0.8454 -1.2056  2.3610
15816TIP3   OH268862   1.944   4.913  16.961  0.3267 -0.0566 -0.3240
15816TIP3    H168863   2.019   4.923  17.019  0.2838  1.0084 -0.4414
15816TIP3    H268864   1.967   4.962  16.883  0.1612 -1.0470 -1.0105
15817TIP3   OH268865   3.905   0.568  11.582  0.0240 -0.1364 -0.7090
15817TIP3    H168866   3.893   0.609  11.668 -0.1581 -0.7083 -0.4580
15817TIP3    H268867   3.869   0.632  11.521 -0.7592 -0.1467 -0.2787
15818TIP3   OH268868   6.171   4.914   0.269  0.1835  0.1668  0.8996
15818TIP3    H168869   6.093   4.960   0.298 -0.8757 -2.0018  1.7436
15818TIP3    H268870   6.228   4.911   0.347 -0.3741 -1.1066  1.2863
15819TIP3   OH268871   0.128   0.018   4.440 -0.1245  0.1267  0.4990
15819TIP3    H168872   0.138   0.110   4.415 -1.9868  0.4382  0.7573
15819TIP3    H268873   0.081  -0.021   4.366 -0.5737 -0.2856  0.9980
15820TIP3   OH268874   1.475   6.370  15.257 -0.3031 -0.4409  0.3244
15820TIP3    H168875   1.408   6.356  15.324 -1.7675 -0.8287 -1.1743
15820TIP3    H268876   1.476   6.465  15.244 -2.1723 -0.5727 -1.1730
15821TIP3   OH268877   4.480   1.339  11.866  0.1132  0.5612  0.3462
15821TIP3    H168878   4.569   1.365  11.843  0.8458 -2.3891 -0.5552
15821TIP3    H268879   4.454   1.279  11.796 -1.2422 -1.2688  2.2995
15822TIP3   OH268880   5.344   2.148   2.461  0.2381  0.1520 -0.5962
15822TIP3    H168881   5.268   2.139   2.518  1.1463 -0.4365  0.5564
15822TIP3    H268882   5.314   2.114   2.376 -1.0860  0.9104 -0.4515
15823TIP3   OH268883   0.195   1.802   2.627 -0.0008  0.0428 -0.0794
15823TIP3    H168884   0.161   1.750   2.700  1.1798  0.1785  0.5939
15823TIP3    H268885   0.289   1.808   2.643  0.5940 -1.3336 -2.5365
15824TIP3   OH268886   3.727   4.215  13.426  0.6673  0.4612  0.1176
15824TIP3    H168887   3.643   4.184  13.393  0.8027 -1.7104  1.5893
15824TIP3    H268888   3.784   4.215  13.348  0.0792 -1.0744 -0.3525
15825TIP3   OH268889   2.333   4.965   3.242 -0.4951 -0.1246  0.0545
15825TIP3    H168890   2.351   4.871   3.230  1.0359  0.0740  0.5449
15825TIP3    H268891   2.359   4.982   3.333 -2.2443  0.4680  0.4772
15826TIP3   OH268892   2.164   5.419   6.084  0.7032  0.2939 -0.1540
15826TIP3    H168893   2.157   5.486   6.153  0.2992  0.3037 -0.1992
15826TIP3    H268894   2.194   5.341   6.130  0.1612  0.2214  0.0891
15827TIP3   OH268895   5.748   1.452  12.058  0.3458  0.1011 -0.2086
15827TIP3    H168896   5.740   1.547  12.058 -1.9375  0.0624  2.6202
15827TIP3    H268897   5.826   1.434  12.111  1.2296  0.3264 -1.3802
15828TIP3   OH268898   5.525   5.575  14.907  0.2040  0.1967  0.4655
15828TIP3    H168899   5.498   5.606  14.821 -1.2019  1.2465  1.2539
15828TIP3    H268900   5.619   5.558  14.898  0.7260  3.0420 -0.5184
15829TIP3   OH268901   3.530   1.283   4.283  0.1684 -0.2696  0.1429
15829TIP3    H168902   3.561   1.221   4.217 -1.6130  0.2148 -1.2095
15829TIP3    H268903   3.435   1.272   4.283 -0.0059  1.0862  1.2890
15830TIP3   OH268904   3.000   1.921  16.048  0.1634  0.1486  0.1448
15830TIP3    H168905   3.062   1.981  16.090  0.6995  0.0504 -0.4937
15830TIP3    H268906   2.970   1.967  15.970 -1.1556  0.5010  0.8175
15831TIP3   OH268907   5.792   2.297  16.490  0.8864 -0.3445 -0.4098
15831TIP3    H168908   5.802   2.205  16.466 -1.8056 -0.8341  0.0461
15831TIP3    H268909   5.786   2.296  16.586  0.9232  0.3121 -0.3954
15832TIP3   OH268910   2.739   6.001  10.841 -0.5379  0.0654  0.1292
15832TIP3    H168911   2.830   6.031  10.840 -0.3602 -0.4075  1.1088
15832TIP3    H268912   2.690   6.076  10.807  0.0492  0.9753  1.1998
15833TIP3   OH268913   4.562   6.297   1.111 -0.0136 -0.1508 -0.6552
15833TIP3    H168914   4.594   6.382   1.080 -1.5993  0.4085 -0.8649
15833TIP3    H268915   4.556   6.243   1.032  1.3863 -0.6418 -0.4695
15834TIP3   OH268916   6.270   1.216  17.346  0.3391  0.2517  0.1584
15834TIP3    H168917   6.234   1.234  17.433  1.4845 -2.1825  1.2209
15834TIP3    H268918   6.213   1.264  17.286 -1.2106  1.0323  2.1447
15835TIP3   OH268919   5.676   0.408   1.594 -0.2663  0.0732 -0.4300
15835TIP3    H168920   5.625   0.448   1.666  2.8879 -0.5547  2.4024
15835TIP3    H268921   5.636   0.322   1.582 -1.4637  0.5603 -0.1458
15836TIP3   OH268922   4.273   3.713   3.249  0.1085 -0.1292  0.5325
15836TIP3    H168923   4.267   3.626   3.209  0.9318  0.0229  0.0616
15836TIP3    H268924   4.348   3.706   3.309  1.5521  0.8547 -1.0798
15837TIP3   OH268925   0.294   3.534  14.578 -0.0595 -0.0929  0.0001
15837TIP3    H168926   0.363   3.503  14.636  0.8466 -0.0297 -1.0154
15837TIP3    H268927   0.309   3.629  14.573 -1.1893  0.1662  0.9904
15838TIP3   OH268928   4.009   4.051   5.190 -0.0460  0.6197  0.1929
15838TIP3    H168929   3.969   4.019   5.109  0.8484 -2.3553  0.8045
15838TIP3    H268930   3.936   4.060   5.251 -0.3491 -0.0894 -0.0603
15839TIP3   OH268931   2.173   6.204   1.750  0.4009  0.6222  0.0843
15839TIP3    H168932   2.182   6.221   1.656  2.2425  0.1988  0.1606
15839TIP3    H268933   2.203   6.284   1.792  0.8505  0.3241  0.3323
15840TIP3   OH268934   2.905   0.851  11.413 -0.2369  0.8023  0.0763
15840TIP3    H168935   2.930   0.912  11.344 -0.0327  1.3381  0.6119
15840TIP3    H268936   2.974   0.860  11.479  0.1315 -0.4618 -0.1052
15841TIP3   OH268937   4.988   2.516  12.860  0.7171 -0.0678 -0.1274
15841TIP3    H168938   4.948   2.518  12.773  0.6230 -2.8563 -0.2367
15841TIP3    H268939   4.924   2.472  12.915  1.6529 -0.2497  0.8423
15842TIP3   OH268940   5.572   2.208   1.240  0.0925 -0.4094  0.2118
15842TIP3    H168941   5.491   2.177   1.199 -0.7575 -0.2921  1.7098
15842TIP3    H268942   5.544   2.241   1.325  1.6061  0.4786  0.3974
15843TIP3   OH268943   5.888   6.575  10.709  0.2592 -0.2875  0.4401
15843TIP3    H168944   5.833   6.650  10.730  1.2096  0.7497 -0.6710
15843TIP3    H268945   5.971   6.613  10.682  0.6239 -1.7332 -0.5616
15844TIP3   OH268946   3.506   5.100   5.338  0.5347  0.1678  0.0317
15844TIP3    H168947   3.450   5.111   5.260 -1.5774 -0.2952  1.3906
15844TIP3    H268948   3.550   5.184   5.348 -0.1781  0.6850 -0.9269
15845TIP3   OH268949   2.558   1.634   1.727 -0.7249 -0.0655 -0.4131
15845TIP3    H168950   2.548   1.649   1.821  1.3928  0.3656 -0.2031
15845TIP3    H268951   2.475   1.663   1.689 -1.1769  0.8809  1.2018
15846TIP3   OH268952   2.895   2.606   4.695  0.4867  0.4264  0.2034
15846TIP3    H168953   2.869   2.562   4.776  1.5283  1.0636  0.9047
15846TIP3    H268954   2.816   2.603   4.640  0.7466 -3.1419 -0.2066
15847TIP3   OH268955   0.082   5.255  11.603  0.2829 -0.4897 -0.6811
15847TIP3    H168956   0.104   5.200  11.528  1.0942 -1.7969  0.4578
15847TIP3    H268957   0.063   5.192  11.673  1.5058  0.6795  0.7416
15848TIP3   OH268958   5.333   0.234   2.329  0.3383 -0.1199 -0.0600
15848TIP3    H168959   5.411   0.209   2.279 -0.3211 -2.5099 -0.0111
15848TIP3    H268960   5.361   0.233   2.420 -0.1851 -3.3130  0.1766
15849TIP3   OH268961   0.091   1.140  13.513  0.0756 -0.1217  0.3885
15849TIP3    H168962   0.114   1.233  13.515 -0.1810 -0.0662  0.6817
15849TIP3    H268963   0.152   1.098  13.573  0.2937 -0.1680  0.1390
15850TIP3   OH268964   2.479   2.332  11.513 -0.0807  0.0491  0.3145
15850TIP3    H168965   2.515   2.379  11.438  1.7767 -0.2406  0.9915
15850TIP3    H268966   2.445   2.401  11.570  0.3345  0.4070  0.1347
15851TIP3   OH268967   3.918   6.361  12.873  0.1223 -0.2876  0.1024
15851TIP3    H168968   3.830   6.399  12.873  0.6935  1.1450 -1.0386
15851TIP3    H268969   3.970   6.420  12.929  0.7015 -0.1884 -0.5265
15852TIP3   OH268970   0.198   6.573  16.142  0.2286  0.3759 -0.4877
15852TIP3    H168971   0.209   6.668  16.148  1.2542  0.3852 -1.9439
15852TIP3    H268972   0.285   6.541  16.120  0.5079 -1.1987  2.5020
15853TIP3   OH268973   2.916   1.774   2.627 -0.1689 -0.1237 -0.0084
15853TIP3    H168974   2.986   1.712   2.607 -1.0968 -1.2904  0.2034
15853TIP3    H268975   2.949   1.859   2.596  0.1742 -1.1122 -2.6624
15854TIP3   OH268976   0.509   5.955  14.316 -0.0767  0.5361  0.5216
15854TIP3    H168977   0.415   5.949  14.305 -0.1440  2.9219 -1.1730
15854TIP3    H268978   0.542   5.869  14.292 -1.8264 -0.5203  1.7236
15855TIP3   OH268979   4.370   3.178   1.427 -0.4288 -0.1444  0.2436
15855TIP3    H168980   4.350   3.234   1.502  1.7198  1.7837 -0.5362
15855TIP3    H268981   4.429   3.111   1.462  0.4446  0.6553  0.3179
15856TIP3   OH268982   0.002   4.973   4.699 -0.1778  0.0944 -0.5944
15856TIP3    H168983   0.019   4.891   4.746 -2.4171 -0.0978  0.0163
15856TIP3    H268984   0.027   4.954   4.609  0.2264 -0.9518 -0.2816
15857TIP3   OH268985   5.133   2.481   2.440  0.5719 -0.0782 -0.2789
15857TIP3    H168986   5.104   2.568   2.414 -0.5065 -0.7319 -1.3904
15857TIP3    H268987   5.125   2.428   2.360  1.7925 -1.0594  0.2103
15858TIP3   OH268988   4.064   5.889   0.254  0.7521  0.4265  0.7021
15858TIP3    H168989   4.137   5.908   0.195  0.3432 -0.9547 -0.3100
15858TIP3    H268990   4.076   5.949   0.328  1.2647  2.2336 -0.7882
15859TIP3   OH268991   5.106   6.294  17.323 -1.0187 -0.0048 -0.4911
15859TIP3    H168992   5.033   6.339  17.364  0.7572  3.6223 -0.8828
15859TIP3    H268993   5.109   6.329  17.234  1.7198  0.8627 -0.1674
15860TIP3   OH268994   5.685   0.966  14.054 -0.0537  0.0795  0.2889
15860TIP3    H168995   5.641   1.040  14.095 -0.5968  0.6289 -1.2024
15860TIP3    H268996   5.674   0.894  14.116 -2.1175  0.4979  0.4716
15861TIP3   OH268997   2.218   4.467   0.866 -0.2201 -0.5284 -0.3783
15861TIP3    H168998   2.159   4.493   0.937  0.1408 -0.6217 -0.0376
15861TIP3    H268999   2.305   4.494   0.896 -0.2856  1.2319 -1.6626
15862TIP3   OH269000   4.102   0.405   4.010 -0.5452 -0.2906 -0.0566
15862TIP3    H169001   4.124   0.487   4.053 -0.6212 -0.8133  0.9976
15862TIP3    H269002   4.044   0.431   3.938 -1.7588  0.4619  1.1281
15863TIP3   OH269003   0.172   6.653   0.934  0.1770 -0.1046 -0.1626
15863TIP3    H169004   0.174   6.745   0.906 -0.2108 -0.4266 -1.2941
15863TIP3    H269005   0.226   6.651   1.013  0.7705  0.9601 -0.5201
15864TIP3   OH269006   6.530   3.135   4.675 -0.1481 -0.4152  0.4688
15864TIP3    H169007   6.613   3.177   4.651 -0.2915 -0.6446 -0.4666
15864TIP3    H269008   6.464   3.184   4.626 -0.4784 -0.7570  0.5756
15865TIP3   OH269009   5.352   1.246   0.526  0.3593 -0.6534  0.2108
15865TIP3    H169010   5.286   1.275   0.589  1.5226 -0.3147  1.3301
15865TIP3    H269011   5.354   1.315   0.459 -0.5359 -0.7653  0.0650
15866TIP3   OH269012   4.529   1.913  12.186  0.0635  0.0566  0.3528
15866TIP3    H169013   4.539   1.980  12.118  1.1422  1.3622  1.7381
15866TIP3    H269014   4.618   1.897  12.217 -0.2426 -1.6478  0.4395
15867TIP3   OH269015   2.276   6.742   0.392  0.1240 -0.0301 -0.7618
15867TIP3    H169016   2.256   6.809   0.458  0.8571 -0.3438 -0.2110
15867TIP3    H269017   2.367   6.760   0.366  0.8292 -1.6525  0.4276
15868TIP3   OH269018   0.242   0.277   1.567 -0.5280 -0.0795  0.1999
15868TIP3    H169019   0.270   0.240   1.483 -1.3522 -1.9804  0.7142
15868TIP3    H269020   0.317   0.330   1.595  0.4334 -0.7651 -0.9407
15869TIP3   OH269021   2.867   4.953   4.577  0.3433  0.2115  0.2126
15869TIP3    H169022   2.842   4.895   4.506  0.6032 -0.4056  0.6165
15869TIP3    H269023   2.800   4.938   4.644  1.2032 -0.6957  0.8927
15870TIP3   OH269024   1.792   5.698   2.019  0.5440 -0.4311 -0.3466
15870TIP3    H169025   1.720   5.674   2.077  0.6255 -0.9796 -0.4719
15870TIP3    H269026   1.819   5.785   2.050 -0.3412 -0.0991 -0.4681
15871TIP3   OH269027   4.402   2.824   4.297  0.7811  0.6439  0.6512
15871TIP3    H169028   4.461   2.851   4.227  0.1087  2.0208  0.5979
15871TIP3    H269029   4.436   2.868   4.375  0.6494  0.2918  0.9126
15872TIP3   OH269030   1.940   5.702  11.879  0.3191  0.3793  0.3700
15872TIP3    H169031   1.987   5.725  11.799 -1.7006 -1.1943 -1.3907
15872TIP3    H269032   1.994   5.637  11.922  0.3237 -0.5900 -1.0391
15873TIP3   OH269033   5.424   3.820   0.714 -0.3379  0.2508  0.3015
15873TIP3    H169034   5.457   3.735   0.685 -0.3397  0.3092  0.1257
15873TIP3    H269035   5.496   3.880   0.699  0.1686  0.0372  1.7417
15874TIP3   OH269036   5.109   0.299   2.760  0.3759  0.7135 -0.2528
15874TIP3    H169037   5.104   0.207   2.731 -0.5278  0.7207 -0.1498
15874TIP3    H269038   5.123   0.293   2.855 -0.2725  0.6728 -0.1552
15875TIP3   OH269039   3.041   2.814   4.636 -0.3556 -0.2958  0.1712
15875TIP3    H169040   2.995   2.741   4.678 -0.6241 -0.9431 -1.1956
15875TIP3    H269041   2.972   2.877   4.616 -0.4313 -0.5990 -0.5281
15876TIP3   OH269042   0.420   5.066   0.696  0.7832 -0.4958  0.6201
15876TIP3    H169043   0.465   5.057   0.780  2.4055  1.6084  0.0853
15876TIP3    H269044   0.455   4.996   0.642  2.4397  0.2338  0.6695
15877TIP3   OH269045   5.091   6.508   2.732 -0.1063 -0.2089  0.2766
15877TIP3    H169046   4.997   6.530   2.738 -0.3635 -1.3924  0.8344
15877TIP3    H269047   5.093   6.413   2.724  1.0175 -0.0993 -1.0718
15878TIP3   OH269048   4.742   3.850  11.310  0.3214 -0.1708  0.7302
15878TIP3    H169049   4.799   3.797  11.253  0.9705 -0.4224  1.5935
15878TIP3    H269050   4.667   3.793  11.327  0.2906 -0.2289  0.4097
15879TIP3   OH269051   1.449   2.997   0.850 -0.2802 -0.4513  0.3795
15879TIP3    H169052   1.477   3.060   0.783 -1.2094 -0.4324 -0.0069
15879TIP3    H269053   1.491   3.028   0.930 -2.5760  2.1149  0.7409
15880TIP3   OH269054   6.326   5.991  14.751  0.2978  0.0454 -0.2049
15880TIP3    H169055   6.355   6.073  14.793  0.2680  1.2020 -2.2899
15880TIP3    H269056   6.393   5.974  14.684 -0.4796 -0.8197 -0.7751
15881TIP3   OH269057   1.131   2.856  12.750  0.3804  0.4963 -0.2561
15881TIP3    H169058   1.134   2.764  12.722 -2.3501  0.6254 -1.3152
15881TIP3    H269059   1.098   2.852  12.840  1.8586  0.4201  0.3117
15882TIP3   OH269060   6.591   0.127  12.764  0.0979  0.2309 -0.1833
15882TIP3    H169061   6.622   0.212  12.733 -0.3482  0.0537 -1.1688
15882TIP3    H269062   6.659   0.065  12.737 -0.8780 -0.1126 -2.0664
15883TIP3   OH269063   4.944   3.919  12.359  0.6868 -0.0044 -0.1991
15883TIP3    H169064   5.008   3.985  12.331 -0.9002  1.9109  0.4500
15883TIP3    H269065   4.912   3.881  12.277  1.8556 -0.2193 -0.5732
15884TIP3   OH269066   4.243   3.022   6.019  0.4640 -0.1600  0.1644
15884TIP3    H169067   4.287   3.015   6.104  0.7386 -1.5003 -0.0591
15884TIP3    H269068   4.314   3.019   5.955  0.1047 -2.4181 -0.2040
15885TIP3   OH269069   4.798   3.199  16.785 -0.2138  0.4325  0.4460
15885TIP3    H169070   4.833   3.246  16.861 -0.0951  0.0361  0.6405
15885TIP3    H269071   4.741   3.262  16.742 -0.1247  0.7283  0.7522
15886TIP3   OH269072   5.686   1.303  15.166 -0.1549 -0.7346 -0.3897
15886TIP3    H169073   5.723   1.324  15.080  0.4535  0.6280  0.1878
15886TIP3    H269074   5.759   1.268  15.216  0.4255  1.7564  0.6795
15887TIP3   OH269075   6.030   6.176  11.217  0.0993  0.4534 -0.6616
15887TIP3    H169076   6.046   6.204  11.127  2.7927  0.1293 -0.3840
15887TIP3    H269077   6.092   6.104  11.231  0.1447  0.8440  1.6108
15888TIP3   OH269078   0.348   4.884   0.228 -0.6404  0.3807 -0.9565
15888TIP3    H169079   0.296   4.914   0.303 -1.2388 -0.2324 -1.1175
15888TIP3    H269080   0.315   4.796   0.210  0.3695  0.0298 -1.1506
15889TIP3   OH269081   6.091   4.943  14.808 -0.0727 -0.1116 -0.0460
15889TIP3    H169082   6.174   4.925  14.852 -0.8154 -0.8958  1.0550
15889TIP3    H269083   6.085   5.039  14.808  1.3383  0.0179 -1.1397
15890TIP3   OH269084   2.084   4.216   0.985  0.4219  0.2518  0.6987
15890TIP3    H169085   2.063   4.189   1.075 -0.1685  0.0394  0.5054
15890TIP3    H269086   2.014   4.177   0.932  0.3451  0.9889  0.2377
15891TIP3   OH269087   2.860   3.291   1.332 -0.7764  0.1715  0.0022
15891TIP3    H169088   2.948   3.257   1.315 -0.4669 -0.7776  2.8759
15891TIP3    H269089   2.806   3.252   1.264  0.6387 -1.1997 -0.4048
15892TIP3   OH269090   6.654   6.150   1.734  0.0256  0.1633 -0.2507
15892TIP3    H169091   6.667   6.078   1.672 -0.4650  1.7532 -2.3029
15892TIP3    H269092   6.577   6.124   1.785 -1.0686 -0.1396 -1.9789
15893TIP3   OH269093   3.456   0.318   5.973 -0.3094  0.6350  0.0775
15893TIP3    H169094   3.492   0.366   6.048  1.6633 -1.0762  0.3265
15893TIP3    H269095   3.369   0.291   6.001  0.1281  0.6018  1.4953
15894TIP3   OH269096   0.063   5.107  13.755 -0.5652  0.0589  0.2800
15894TIP3    H169097   0.045   5.014  13.769 -0.1784 -0.6014 -2.7718
15894TIP3    H269098   0.159   5.113  13.752 -0.5855  0.1028 -1.5587
15895TIP3   OH269099   4.785   4.410  14.632  0.1733 -0.0670 -0.3719
15895TIP3    H169100   4.741   4.354  14.696  0.5114  1.0615  0.8916
15895TIP3    H269101   4.877   4.408  14.657  0.4320 -0.1999 -1.2946
15896TIP3   OH269102   6.135   5.413  15.995 -0.0446  0.2038 -0.0162
15896TIP3    H169103   6.064   5.437  15.935  0.1409  1.6607  0.3077
15896TIP3    H269104   6.208   5.390  15.937 -0.2533  0.3755 -0.3530
15897TIP3   OH269105   2.839   0.127   0.007 -0.1163 -0.1344  0.2154
15897TIP3    H169106   2.796   0.077   0.077  0.5410 -1.1416 -0.0730
15897TIP3    H269107   2.822   0.218   0.029 -1.9494 -0.4694  0.4015
15898TIP3   OH269108   4.558   5.353   0.076  0.7826 -0.2760  0.7439
15898TIP3    H169109   4.492   5.325   0.139  0.3901 -0.7683  0.1301
15898TIP3    H269110   4.634   5.377   0.129  0.5560 -0.9558  1.3852
15899TIP3   OH269111   1.442   1.723  16.115  0.1564  0.5621  0.5457
15899TIP3    H169112   1.450   1.638  16.158  0.2885  0.1414 -0.2940
15899TIP3    H269113   1.522   1.732  16.063 -0.4784  0.5668 -0.4616
15900TIP3   OH269114   5.573   2.358  11.477  0.3348 -0.4154 -0.4774
15900TIP3    H169115   5.550   2.437  11.428  0.0565 -0.9124 -1.1776
15900TIP3    H269116   5.497   2.301  11.467 -0.1326 -0.1584  1.3855
15901TIP3   OH269117   2.277   2.443   0.692 -0.1980 -0.4412  0.0618
15901TIP3    H169118   2.237   2.373   0.742 -1.9602  0.1498 -0.4676
15901TIP3    H269119   2.277   2.412   0.602 -2.4690  0.8207 -0.4292
15902TIP3   OH269120   3.312   4.717   0.546  0.2875  0.4933  0.5008
15902TIP3    H169121   3.286   4.765   0.467 -0.8034 -0.9779 -0.0908
15902TIP3    H269122   3.236   4.723   0.604  0.4874  0.2408  0.7915
15903TIP3   OH269123   0.876   4.143   1.242 -0.4825  0.2334  0.4327
15903TIP3    H169124   0.816   4.217   1.238  0.0050  0.5970 -0.1821
15903TIP3    H269125   0.958   4.179   1.276  0.0502  0.1845 -0.7364
15904TIP3   OH269126   1.953   3.246   2.049  0.1318 -0.1809 -0.5985
15904TIP3    H169127   2.019   3.237   2.119 -0.8067  1.3980  0.5526
15904TIP3    H269128   1.869   3.241   2.094 -0.5239 -0.1624 -1.7746
15905TIP3   OH269129   1.285   6.630  11.841 -0.4298 -0.3608  0.0333
15905TIP3    H169130   1.297   6.687  11.765 -0.9899 -2.0007 -1.3311
15905TIP3    H269131   1.373   6.623  11.880  0.2932 -1.0621 -1.6317
15906TIP3   OH269132   2.023   4.630   4.736 -0.5908  0.3918  0.4205
15906TIP3    H169133   2.097   4.591   4.782 -0.4272 -0.6924 -0.7114
15906TIP3    H269134   2.051   4.720   4.719  2.0574 -0.8502 -3.0371
15907TIP3   OH269135   4.066   6.694  15.388  0.4377  0.2868  0.7507
15907TIP3    H169136   4.072   6.762  15.456 -1.3676 -0.7553  2.0272
15907TIP3    H269137   4.016   6.623  15.429  1.7950 -1.6213 -0.7230
15908TIP3   OH269138   4.517   0.442  11.511 -0.2710  0.2018  0.5982
15908TIP3    H169139   4.596   0.407  11.470  0.7716  0.3418  2.3787
15908TIP3    H269140   4.445   0.392  11.473  0.6732 -0.0407 -0.9438
15909TIP3   OH269141   0.369   4.677   5.303 -0.0989 -0.1766 -0.0700
15909TIP3    H169142   0.273   4.678   5.302 -0.1027 -0.8538 -0.4873
15909TIP3    H269143   0.393   4.756   5.351 -0.8387  1.0536 -1.6259
15910TIP3   OH269144   3.800   0.261   0.115  0.3813 -0.0458 -0.1648
15910TIP3    H169145   3.861   0.261   0.041  0.5830 -1.0849 -0.0132
15910TIP3    H269146   3.743   0.186   0.100 -0.1647  0.2800  0.2571
15911TIP3   OH269147   1.853   1.548   4.718  0.2383 -0.6320  0.1342
15911TIP3    H169148   1.895   1.526   4.801 -1.7105  0.8688  1.6025
15911TIP3    H269149   1.827   1.464   4.681  0.5483 -1.2969  1.3657
15912TIP3   OH269150   4.915   1.980  13.764  0.3933 -0.4453  0.2412
15912TIP3    H169151   4.824   2.000  13.741  0.6256  0.4640  0.0699
15912TIP3    H269152   4.962   2.063  13.750  1.5669 -1.3178 -1.2706
15913TIP3   OH269153   3.272   2.553   1.881 -0.8157 -0.1887 -0.6315
15913TIP3    H169154   3.307   2.501   1.953 -1.5105 -0.4908 -0.5090
15913TIP3    H269155   3.326   2.528   1.805 -0.5340 -0.3815 -0.3706
15914TIP3   OH269156   1.523   5.251  16.889 -0.1714  0.5039 -0.0503
15914TIP3    H169157   1.569   5.184  16.838 -2.9520 -1.4605 -0.1977
15914TIP3    H269158   1.527   5.221  16.979  2.5328  2.6629  0.6758
15915TIP3   OH269159   3.853   3.603   3.411 -0.1700 -0.6518  0.2532
15915TIP3    H169160   3.794   3.675   3.388  0.0074 -0.1899  1.1719
15915TIP3    H269161   3.911   3.594   3.336 -0.5824 -0.2399 -0.1220
15916TIP3   OH269162   6.602   3.848   5.467  0.1105  0.7277 -0.3341
15916TIP3    H169163   6.554   3.807   5.539 -0.1787 -0.2385 -1.0564
15916TIP3    H269164   6.539   3.850   5.395  1.1888 -0.7827 -1.3762
15917TIP3   OH269165   6.482   2.878  10.606 -0.2258  0.6115  0.0750
15917TIP3    H169166   6.489   2.783  10.603 -0.0674  0.5952  0.8342
15917TIP3    H269167   6.452   2.903  10.518  0.9425 -0.0372 -0.5282
15918TIP3   OH269168   2.852   1.975  12.466 -0.0963  0.7399  0.3643
15918TIP3    H169169   2.898   1.930  12.396 -2.1778  0.2149 -0.7599
15918TIP3    H269170   2.884   1.934  12.547  0.6992 -0.2156 -0.4222
15919TIP3   OH269171   5.449   1.596  17.417 -0.3167 -0.1708  0.1887
15919TIP3    H169172   5.505   1.519  17.404 -1.1606 -0.8447  0.3846
15919TIP3    H269173   5.415   1.616  17.329 -2.0809 -1.6175  0.4827
15920TIP3   OH269174   6.421   5.535  16.215 -0.1364 -0.0494  0.8509
15920TIP3    H169175   6.365   5.476  16.165  0.5875  0.1584 -0.2209
15920TIP3    H269176   6.375   5.619  16.213  0.3309  0.1832 -0.2370
15921TIP3   OH269177   1.088   4.733   2.221 -0.3043 -0.1729  0.5793
15921TIP3    H169178   1.013   4.706   2.273 -1.7521  0.9364 -0.8317
15921TIP3    H269179   1.131   4.651   2.196 -1.2836 -0.8466  1.0614
15922TIP3   OH269180   3.490   2.841  12.670  0.2858 -0.3033 -0.1959
15922TIP3    H169181   3.471   2.774  12.735  1.7188 -0.6093 -0.0657
15922TIP3    H269182   3.569   2.884  12.702  0.1572  0.5438 -0.9766
15923TIP3   OH269183   2.985   4.563   2.507  0.0775  1.1545 -0.2800
15923TIP3    H169184   3.026   4.623   2.569 -0.9566  0.8365  0.7393
15923TIP3    H269185   2.891   4.583   2.512 -0.4255 -1.0842  0.7626
15924TIP3   OH269186   4.704   5.428  14.007 -0.7245 -0.4845  0.0728
15924TIP3    H169187   4.789   5.387  14.028  0.6346  2.1136  0.0873
15924TIP3    H269188   4.691   5.410  13.914  0.5960  0.2539 -0.2868
15925TIP3   OH269189   0.365   5.812   3.252 -0.0100 -0.4284 -0.2642
15925TIP3    H169190   0.382   5.743   3.316 -0.6574 -0.6265 -0.2948
15925TIP3    H269191   0.292   5.862   3.290  0.1592 -0.0337 -0.4506
15926TIP3   OH269192   1.817   2.924  11.360 -0.2290 -0.2102 -0.3468
15926TIP3    H169193   1.773   2.921  11.275 -0.9494 -0.6729  0.0304
15926TIP3    H269194   1.863   2.840  11.365  0.2517  0.0416 -0.5045
15927TIP3   OH269195   5.463   2.525  12.682 -0.1748 -0.3809 -0.4642
15927TIP3    H169196   5.503   2.560  12.762 -0.4601 -0.6985 -0.1726
15927TIP3    H269197   5.471   2.430  12.693 -1.8671 -0.4927  0.0672
15928TIP3   OH269198   1.601   2.362   2.451  0.4933  0.5474 -0.1625
15928TIP3    H169199   1.570   2.410   2.528 -0.0762  0.5988 -0.4176
15928TIP3    H269200   1.684   2.404   2.428  0.5802  0.6468  0.3140
15929TIP3   OH269201   3.476   4.044   6.702  0.4689  0.0488 -0.3686
15929TIP3    H169202   3.472   4.132   6.665 -1.0120 -0.4818 -1.6083
15929TIP3    H269203   3.504   4.057   6.792  0.9635  1.7132 -0.7232
15930TIP3   OH269204   5.046   2.610   3.598  0.1772 -0.0342 -0.4273
15930TIP3    H169205   5.061   2.530   3.649  0.1607  0.5969  0.5969
15930TIP3    H269206   5.079   2.681   3.654 -1.1657  0.8197 -0.6652
15931TIP3   OH269207   5.922   6.618  15.781  0.0956 -0.8452  0.2940
15931TIP3    H169208   5.925   6.713  15.776 -0.7517 -0.8792 -1.4789
15931TIP3    H269209   5.874   6.600  15.862  0.1469  0.2177  0.5759
15932TIP3   OH269210   4.095   1.975  14.636 -0.5165  0.0120  0.1190
15932TIP3    H169211   4.056   1.918  14.701 -0.2429 -0.0712  0.2147
15932TIP3    H269212   4.084   1.928  14.553 -1.2926  0.3392  0.0328
15933TIP3   OH269213   2.082   6.149   3.707 -0.1183  0.1873 -0.7145
15933TIP3    H169214   2.159   6.203   3.694  0.3926 -0.8944 -2.4702
15933TIP3    H269215   2.014   6.191   3.654 -0.2182  0.1042 -0.6530
15934TIP3   OH269216   3.443   1.667   2.693 -0.4404  0.2588  0.1432
15934TIP3    H169217   3.466   1.575   2.704  1.0660  0.5057 -0.6951
15934TIP3    H269218   3.479   1.691   2.608 -0.0325  1.8365  0.7200
15935TIP3   OH269219   2.590   3.140  14.527  0.1845  0.0368  0.3109
15935TIP3    H169220   2.660   3.143  14.593 -1.4824 -0.6637  2.2007
15935TIP3    H269221   2.529   3.074  14.559 -0.2223 -1.1252 -2.5120
15936TIP3   OH269222   5.585   2.809   3.181 -0.0554  0.1344 -0.1966
15936TIP3    H169223   5.658   2.747   3.190  0.5184  1.0556  2.4396
15936TIP3    H269224   5.615   2.873   3.116  1.1865  0.0761  0.2892
15937TIP3   OH269225   3.629   6.129   1.753 -0.6080 -0.3396 -0.1934
15937TIP3    H169226   3.658   6.131   1.844 -2.4431 -0.1074  0.4260
15937TIP3    H269227   3.542   6.090   1.756 -1.7229  1.8230 -1.5123
15938TIP3   OH269228   1.979   5.751  13.658 -0.0239 -0.5469 -0.5328
15938TIP3    H169229   1.917   5.690  13.697 -0.1142 -0.0855  0.0637
15938TIP3    H269230   2.063   5.706  13.660 -0.1840 -0.8490 -0.5704
15939TIP3   OH269231   1.850   6.702  16.364  0.2776  0.2831 -0.5421
15939TIP3    H169232   1.856   6.642  16.289 -0.8886 -1.2326  0.5140
15939TIP3    H269233   1.798   6.776  16.331 -0.6645 -0.6045 -1.1097
15940TIP3   OH269234   3.845   1.463  16.808 -0.0144 -0.4403  0.0323
15940TIP3    H169235   3.811   1.440  16.722 -1.4239 -1.7329  0.8862
15940TIP3    H269236   3.795   1.541  16.833  2.7520  2.0931 -1.6439
15941TIP3   OH269237   3.409   0.829   5.775  0.5166  0.2589  0.1776
15941TIP3    H169238   3.369   0.863   5.855  1.4541  0.6258  0.5065
15941TIP3    H269239   3.441   0.742   5.800 -1.7422 -0.8771 -0.6195
15942TIP3   OH269240   2.375   2.070  13.955  0.0237 -0.0547  0.2307
15942TIP3    H169241   2.464   2.047  13.978 -0.7650 -2.9123  0.8535
15942TIP3    H269242   2.358   2.021  13.874 -1.6498 -1.4651  1.3661
15943TIP3   OH269243   1.990   2.317   5.098  0.3117  0.1309  0.0545
15943TIP3    H169244   1.943   2.251   5.149 -0.2887 -0.2564 -0.9558
15943TIP3    H269245   2.082   2.294   5.108  0.1807 -0.1671  0.6455
15944TIP3   OH269246   3.307   6.447   4.201 -0.1095 -0.2641  0.1282
15944TIP3    H169247   3.241   6.485   4.259 -2.1037 -2.3057 -0.6849
15944TIP3    H269248   3.271   6.458   4.113  0.9342 -0.8789 -0.3916
15945TIP3   OH269249   2.913   5.813   3.628  0.2512 -0.4054 -0.1855
15945TIP3    H169250   2.894   5.733   3.580  0.7821 -0.6870  0.0676
15945TIP3    H269251   2.968   5.864   3.569 -1.2706  0.4254 -0.9325
15946TIP3   OH269252   4.221   2.177   1.250 -0.5748 -0.6133  0.5695
15946TIP3    H169253   4.233   2.168   1.155 -2.4743 -0.6950  0.3100
15946TIP3    H269254   4.180   2.263   1.261  0.9646  0.0462  1.4743
15947TIP3   OH269255   4.806   1.931   1.779  0.2423 -0.3375 -0.2925
15947TIP3    H169256   4.774   1.858   1.725  0.6171  0.4324 -1.6173
15947TIP3    H269257   4.779   2.009   1.730  1.4404  0.3740  0.1572
15948TIP3   OH269258   3.648   5.992   5.602  0.1001  0.0785 -0.3146
15948TIP3    H169259   3.629   5.898   5.597 -1.2588  0.3709 -1.1631
15948TIP3    H269260   3.676   6.015   5.513 -0.7561  0.7098 -0.4244
15949TIP3   OH269261   6.441   2.512   1.189  0.0998  0.0298 -0.2316
15949TIP3    H169262   6.475   2.573   1.253 -2.7101 -0.1276  1.5688
15949TIP3    H269263   6.514   2.497   1.129  1.6619  3.1438  0.6900
15950TIP3   OH269264   4.428   3.508  17.180 -0.4110  0.0704 -0.2425
15950TIP3    H169265   4.391   3.467  17.102 -1.1218  0.6030 -0.1983
15950TIP3    H269266   4.392   3.597  17.179  0.5380  0.4684  0.0368
15951TIP3   OH269267   5.744   5.058  13.486 -0.3006 -0.0306 -0.0800
15951TIP3    H169268   5.836   5.082  13.472 -0.2707  0.0532  0.2415
15951TIP3    H269269   5.708   5.130  13.537 -0.0262 -0.9697  1.5200
15952TIP3   OH269270   2.089   6.388  13.563 -0.1426  0.5057  0.6591
15952TIP3    H169271   1.999   6.420  13.561 -0.1568  0.5216  1.3116
15952TIP3    H269272   2.131   6.427  13.486 -1.0182 -0.4915 -0.3559
15953TIP3   OH269273   2.002   0.322  12.531  0.1130  0.1854 -0.3966
15953TIP3    H169274   2.035   0.295  12.617  0.0906  1.6358  0.0887
15953TIP3    H269275   2.079   0.317  12.474  1.0515  2.5918  0.5138
15954TIP3   OH269276   4.594   6.403  12.857 -0.3704 -0.3506  0.4355
15954TIP3    H169277   4.572   6.331  12.797  0.4253 -0.6405  0.4717
15954TIP3    H269278   4.690   6.401  12.861 -0.4338 -0.7679  2.2507
15955TIP3   OH269279   2.481   0.306   1.324 -0.4737 -0.6124 -0.0470
15955TIP3    H169280   2.511   0.219   1.297  0.1523 -0.4091 -0.0125
15955TIP3    H269281   2.428   0.290   1.402 -0.1211 -0.9383  0.1296
15956TIP3   OH269282   3.072   6.126  13.610  0.1441 -0.1871 -0.2027
15956TIP3    H169283   3.076   6.176  13.529  1.1992 -0.0632 -0.0867
15956TIP3    H269284   3.160   6.133  13.647  0.5471 -2.6868 -0.5132
15957TIP3   OH269285   4.251   5.403   2.014  0.0776  0.5863 -0.2011
15957TIP3    H169286   4.329   5.459   2.017 -0.4270  1.2580  1.1436
15957TIP3    H269287   4.205   5.422   2.095 -1.1273 -0.3450 -0.6400
15958TIP3   OH269288   6.011   2.205  12.420 -0.0260 -0.2758 -0.2505
15958TIP3    H169289   6.048   2.123  12.388 -0.1927 -0.3393 -0.2822
15958TIP3    H269290   5.970   2.245  12.344  1.7310  0.7809 -0.6794
15959TIP3   OH269291   2.518   1.998  16.458  0.5878 -0.3996  0.4993
15959TIP3    H169292   2.468   1.942  16.399  0.3704 -0.8075  1.0525
15959TIP3    H269293   2.507   2.086  16.423 -0.8923 -0.4119  0.8347
15960TIP3   OH269294   3.937   6.437  13.820 -0.3605 -0.3201 -0.0204
15960TIP3    H169295   3.983   6.451  13.736 -0.3026 -1.3572 -0.1715
15960TIP3    H269296   3.869   6.505  13.821  1.6961  1.8778  0.6253
15961TIP3   OH269297   1.325   4.266  12.258 -0.6415  0.2274 -0.7735
15961TIP3    H169298   1.360   4.181  12.285  1.7808  1.0773 -1.0622
15961TIP3    H269299   1.307   4.256  12.165  1.0825  0.4382 -1.1574
15962TIP3   OH269300   4.756   1.316  11.766  0.7234 -0.3863 -0.1480
15962TIP3    H169301   4.789   1.239  11.812  0.7483  0.1972  0.8588
15962TIP3    H269302   4.828   1.343  11.710  0.3947 -1.6055 -1.2042
15963TIP3   OH269303   4.480   6.231   3.159  0.6338 -0.2418  0.0692
15963TIP3    H169304   4.391   6.197   3.155  0.2391  0.6921  0.6193
15963TIP3    H269305   4.536   6.153   3.151 -0.2268 -0.8684  0.0507
15964TIP3   OH269306   4.792   3.314   3.386 -0.1391 -0.3585 -0.0090
15964TIP3    H169307   4.717   3.368   3.364 -0.5131  0.4750  2.9064
15964TIP3    H269308   4.761   3.224   3.375 -0.9736 -0.0246 -0.4774
15965TIP3   OH269309   0.992   3.081   0.616 -0.5429  0.6683  0.0308
15965TIP3    H169310   0.997   3.139   0.540  2.1103 -0.7336 -0.9932
15965TIP3    H269311   0.984   2.993   0.580  2.6699 -0.2349  1.1372
15966TIP3   OH269312   0.155   5.206   3.581 -0.2197 -0.4565  0.1252
15966TIP3    H169313   0.103   5.127   3.594  0.7257 -1.0337  0.4407
15966TIP3    H269314   0.190   5.227   3.667  0.1985 -0.1623 -0.1092
15967TIP3   OH269315   4.265   5.882  17.204 -0.2224  0.0552 -0.0300
15967TIP3    H169316   4.360   5.882  17.199 -0.2282  0.7453 -0.3358
15967TIP3    H269317   4.236   5.882  17.113 -0.5087  0.0061  0.0606
15968TIP3   OH269318   0.974   4.662  12.395  0.0020 -0.1783 -0.2878
15968TIP3    H169319   1.012   4.681  12.480 -0.0857 -2.6256  0.3675
15968TIP3    H269320   0.884   4.693  12.401 -0.2836 -1.1622  0.8845
15969TIP3   OH269321   1.754   1.663  15.549 -0.5420 -0.4549  0.3601
15969TIP3    H169322   1.660   1.651  15.534 -0.0580 -2.1379 -1.7416
15969TIP3    H269323   1.796   1.621  15.474  1.8932  1.3984  0.5736
15970TIP3   OH269324   1.927   0.104   0.292  0.1677  0.1771 -0.0407
15970TIP3    H169325   1.957   0.094   0.382  0.8966 -2.1349 -0.4583
15970TIP3    H269326   1.836   0.132   0.299  0.6228  1.3877  1.3663
15971TIP3   OH269327   2.395   3.096   1.961  0.0828 -0.4187  0.1697
15971TIP3    H169328   2.400   3.164   2.029 -0.0676 -0.2086 -0.0289
15971TIP3    H269329   2.332   3.033   1.995  0.5676 -0.7022  0.5693
15972TIP3   OH269330   3.994   3.344   3.708  0.5675 -0.4585 -0.8525
15972TIP3    H169331   3.910   3.348   3.754  1.0951  1.5208  0.0357
15972TIP3    H269332   4.059   3.351   3.778  1.4166  1.0790 -1.7539
15973TIP3   OH269333   4.881   3.107  16.356  0.4949  0.1481 -0.6923
15973TIP3    H169334   4.879   3.187  16.305 -1.8547  0.3393 -0.4160
15973TIP3    H269335   4.883   3.136  16.448 -0.7060 -0.0569 -0.5809
15974TIP3   OH269336   4.757   3.577  16.870 -0.5938 -0.3926 -0.0222
15974TIP3    H169337   4.772   3.513  16.939  0.2771  2.3029  2.5069
15974TIP3    H269338   4.845   3.610  16.847 -1.0523  0.4120 -0.7242
15975TIP3   OH269339   3.720   0.786   0.445 -0.6480 -0.3659 -0.1577
15975TIP3    H169340   3.658   0.832   0.501 -1.1648 -0.4778 -0.6226
15975TIP3    H269341   3.806   0.819   0.471 -0.9983  0.7529 -0.3881
15976TIP3   OH269342   1.588   2.171  15.237  0.0846  0.1170 -0.0131
15976TIP3    H169343   1.495   2.186  15.224  0.4534  1.1253 -1.6579
15976TIP3    H269344   1.592   2.093  15.293 -1.7235 -0.0953 -0.1368
15977TIP3   OH269345   5.644   4.209  16.126 -0.7301  0.1270 -0.2669
15977TIP3    H169346   5.605   4.191  16.212 -0.6160  1.1438  0.0141
15977TIP3    H269347   5.673   4.300  16.132  1.4455 -0.5027 -0.5641
15978TIP3   OH269348   0.191   2.343   0.623  0.2221  0.0106 -0.0126
15978TIP3    H169349   0.103   2.382   0.626 -0.6948 -1.9899  2.7430
15978TIP3    H269350   0.181   2.269   0.563  0.5514  0.7703 -1.0454
15979TIP3   OH269351   3.587   4.567  16.998  0.4597  0.5508  0.3431
15979TIP3    H169352   3.672   4.606  16.977  0.3602 -0.7350 -3.2080
15979TIP3    H269353   3.598   4.474  16.976 -1.5410  0.1253  0.9436
15980TIP3   OH269354   1.844   0.840  13.336  0.1799 -0.7561  0.4868
15980TIP3    H169355   1.832   0.769  13.399 -3.1651 -0.0467  0.8325
15980TIP3    H269356   1.767   0.836  13.280  0.7341  1.5416 -0.5566
15981TIP3   OH269357   5.313   5.873   4.682  0.4291 -0.3346  0.6399
15981TIP3    H169358   5.366   5.944   4.718 -3.1183  1.5439  2.7227
15981TIP3    H269359   5.331   5.798   4.739 -0.3685  0.8084  2.4981
15982TIP3   OH269360   6.655   2.632   2.376 -0.0634  0.2286  0.8654
15982TIP3    H169361   6.578   2.673   2.337 -0.5743 -1.0146  0.5239
15982TIP3    H269362   6.620   2.567   2.437  0.6183 -1.6533 -0.6214
15983TIP3   OH269363   2.946   6.381  13.514 -0.0330 -0.1706 -0.0303
15983TIP3    H169364   2.950   6.378  13.418 -1.0092 -0.3992 -0.0769
15983TIP3    H269365   2.967   6.471  13.536 -0.8865  0.1641 -0.5314
15984TIP3   OH269366   5.371   4.614  13.846  0.4485 -0.0985  0.1552
15984TIP3    H169367   5.459   4.593  13.815  1.5128  2.1938  1.4158
15984TIP3    H269368   5.372   4.709  13.859 -2.2623  0.0143  0.1208
15985TIP3   OH269369   6.141   6.316  11.554 -0.5394 -0.5143 -0.5648
15985TIP3    H169370   6.171   6.398  11.593  1.2854 -1.2396 -0.3846
15985TIP3    H269371   6.088   6.275  11.622 -0.6804  0.0585 -0.3175
15986TIP3   OH269372   6.287   5.539   5.905 -0.2407  0.8249  0.3973
15986TIP3    H169373   6.264   5.568   5.817 -3.2248  1.5736  1.2961
15986TIP3    H269374   6.280   5.618   5.959  2.9636  0.7125  1.1969
15987TIP3   OH269375   0.661   6.399  11.942 -0.1453  0.2396 -0.2705
15987TIP3    H169376   0.708   6.396  12.026 -0.4707 -0.2839 -0.0993
15987TIP3    H269377   0.583   6.451  11.960 -0.1206  0.2847 -0.2946
15988TIP3   OH269378   5.970   2.643   0.474  0.5119  0.5623 -0.5867
15988TIP3    H169379   5.971   2.722   0.528 -1.2022 -0.6160  1.3077
15988TIP3    H269380   5.891   2.652   0.421  1.6698  1.2506 -2.2791
15989TIP3   OH269381   6.534   4.137  11.334  0.3740  0.3917  0.1521
15989TIP3    H169382   6.500   4.160  11.247  0.4142 -0.8539 -0.2162
15989TIP3    H269383   6.455   4.120  11.386  0.2523  2.9134  0.9446
15990TIP3   OH269384   6.590   5.145  11.912  0.0338 -0.0498  0.0177
15990TIP3    H169385   6.555   5.198  11.840 -1.1371 -0.4943  0.2363
15990TIP3    H269386   6.662   5.096  11.873 -0.5638 -0.2537 -0.8439
15991TIP3   OH269387   1.732   3.464  11.533  0.3284 -0.3829  0.3809
15991TIP3    H169388   1.798   3.429  11.473  1.2315  0.9229  0.5664
15991TIP3    H269389   1.658   3.487  11.477  0.6641 -0.3762 -0.0603
15992TIP3   OH269390   5.874   6.700   2.082  0.2325  0.1171 -0.1725
15992TIP3    H169391   5.928   6.779   2.081  0.0338  0.2562 -1.0044
15992TIP3    H269392   5.826   6.704   2.164  0.0356  1.0055 -0.3219
15993TIP3   OH269393   4.730   2.485  14.345  0.2546 -0.0897 -0.0977
15993TIP3    H169394   4.698   2.396  14.360 -0.8697  0.2982 -0.1206
15993TIP3    H269395   4.685   2.538  14.411 -0.1156  0.6700 -0.9488
15994TIP3   OH269396   6.109   1.917  15.964 -0.5590  0.0134 -0.2329
15994TIP3    H169397   6.103   1.949  15.874  1.6933 -0.0667 -0.4532
15994TIP3    H269398   6.055   1.978  16.014 -2.7994 -0.6086 -1.7378
15995TIP3   OH269399   1.650   5.351   0.231 -0.6978 -0.4391 -0.2894
15995TIP3    H169400   1.737   5.386   0.214 -1.8928  2.0902 -1.7902
15995TIP3    H269401   1.594   5.428   0.241 -2.7658 -1.9576  0.9262
15996TIP3   OH269402   5.119   0.024   2.692 -0.0001  0.3940  0.3845
15996TIP3    H169403   5.214   0.031   2.682 -0.3082  2.1184 -2.1530
15996TIP3    H269404   5.102  -0.071   2.690  1.5546  0.1040 -0.3221
15997TIP3   OH269405   3.230   0.893   4.558  0.0978  0.7729 -0.3589
15997TIP3    H169406   3.242   0.873   4.465  0.8247  0.9208 -0.3013
15997TIP3    H269407   3.264   0.982   4.568 -0.2663  0.8736 -0.0102
15998TIP3   OH269408   1.353   6.234   0.039  0.0578 -0.3251  0.0204
15998TIP3    H169409   1.448   6.221   0.030  0.0126 -1.5707  1.0802
15998TIP3    H269410   1.325   6.265  -0.047  0.9203 -3.2107 -1.4278
15999TIP3   OH269411   2.037   3.590  17.410  0.5270  0.4389  0.4649
15999TIP3    H169412   1.952   3.631  17.392  0.2360 -0.8118 -1.2318
15999TIP3    H269413   2.016   3.498  17.429  1.4190  0.3394  1.0449
16000TIP3   OH269414   3.824   1.842  12.384 -0.3740 -0.2591  0.5386
16000TIP3    H169415   3.781   1.793  12.454  0.8990 -0.9765  0.8669
16000TIP3    H269416   3.876   1.908  12.430 -1.3853  0.8454  0.1376
16001TIP3   OH269417   1.831   5.621   0.763  0.0855 -0.3892 -0.2597
16001TIP3    H169418   1.914   5.642   0.719  0.1522 -1.1455 -0.5144
16001TIP3    H269419   1.788   5.559   0.704  0.3994 -1.8198  0.9514
16002TIP3   OH269420   5.334   1.115  13.962 -0.1899 -0.4061  0.3269
16002TIP3    H169421   5.334   1.020  13.962 -0.0927 -0.4062 -0.5435
16002TIP3    H269422   5.410   1.140  13.909 -0.0712  0.1561  0.7458
16003TIP3   OH269423   3.198   5.871  17.010  0.0117 -0.2783 -0.1945
16003TIP3    H169424   3.113   5.909  16.991  0.0300  1.1421  2.1345
16003TIP3    H269425   3.179   5.781  17.038 -0.5268 -0.5108 -1.2849
16004TIP3   OH269426   4.849   3.281  11.949  0.0036 -0.1221 -0.2613
16004TIP3    H169427   4.853   3.324  11.864  1.5037 -1.7633 -1.1001
16004TIP3    H269428   4.812   3.194  11.930 -1.3578  0.1228  1.0831
16005TIP3   OH269429   5.273   3.363  12.551  0.2007  0.4070 -0.0771
16005TIP3    H169430   5.254   3.438  12.607 -0.5145 -0.7102  1.2649
16005TIP3    H269431   5.216   3.374  12.476 -0.5753  0.7535  0.5448
16006TIP3   OH269432   5.920   3.592   1.615 -0.4177  0.1131 -0.2065
16006TIP3    H169433   5.855   3.604   1.545 -0.4371 -1.2895 -0.4678
16006TIP3    H269434   5.904   3.664   1.675 -1.8724  0.0965 -0.5392
16007TIP3   OH269435   0.714   2.973   0.683 -0.1390  0.8720  0.3792
16007TIP3    H169436   0.767   2.893   0.682  0.3370  1.1657  1.1901
16007TIP3    H269437   0.628   2.944   0.715  0.8016  1.0900  3.4248
16008TIP3   OH269438   2.969   5.328   3.923 -0.5078  0.3247  0.5777
16008TIP3    H169439   2.905   5.376   3.976 -1.2330 -1.6552  1.5917
16008TIP3    H269440   2.925   5.314   3.839  0.4466  3.0150 -0.4784
16009TIP3   OH269441   4.327   5.510  14.092  0.2966  1.0597 -0.0589
16009TIP3    H169442   4.291   5.456  14.163  2.6261 -0.8531 -0.1909
16009TIP3    H269443   4.257   5.515  14.027  0.0266 -2.1937 -0.1895
16010TIP3   OH269444   1.266   5.781  14.768 -0.6458 -0.4708  0.1746
16010TIP3    H169445   1.257   5.741  14.854  0.5727  0.1589  0.6174
16010TIP3    H269446   1.268   5.875  14.785 -1.5324 -0.2746 -0.6662
16011TIP3   OH269447   3.384   5.825   5.039  0.2478 -0.1742  0.5501
16011TIP3    H169448   3.383   5.910   5.083 -1.0177 -0.6653  1.5671
16011TIP3    H269449   3.440   5.770   5.094  0.3137 -0.2393  0.4171
16012TIP3   OH269450   2.401   1.434   4.254  0.4368 -0.6639 -0.9080
16012TIP3    H169451   2.337   1.492   4.213  0.2686  0.3141  0.6480
16012TIP3    H269452   2.386   1.445   4.348  1.7861 -1.6926 -0.5485
16013TIP3   OH269453   5.582   1.267  16.187 -0.1573 -0.1196  0.1554
16013TIP3    H169454   5.643   1.277  16.260  0.0508 -0.1753 -0.0108
16013TIP3    H269455   5.638   1.256  16.110 -0.3751 -0.1544 -0.0014
16014TIP3   OH269456   3.955   1.563  16.453  0.0959 -0.4729 -0.4264
16014TIP3    H169457   3.887   1.630  16.465 -0.0352 -0.9727  2.1424
16014TIP3    H269458   3.913   1.496  16.400  0.1714  1.2926 -2.9250
16015TIP3   OH269459   5.432   3.193  13.229 -0.1535  0.4409  0.4176
16015TIP3    H169460   5.373   3.266  13.208  0.1581  0.7003  0.4286
16015TIP3    H269461   5.439   3.144  13.147 -0.4904  0.3280  0.4527
16016TIP3   OH269462   1.946   2.138   0.478 -0.0837 -0.1682  0.5280
16016TIP3    H169463   1.902   2.188   0.409  0.1743  0.7995  1.0348
16016TIP3    H269464   1.940   2.195   0.555  0.5165 -0.7895  1.0373
16017TIP3   OH269465   4.612   4.478  11.712 -0.1203  1.0172  0.3600
16017TIP3    H169466   4.695   4.463  11.666  0.1555 -0.1665  1.2128
16017TIP3    H269467   4.545   4.467  11.644  0.4120  2.7884 -0.5245
16018TIP3   OH269468   0.894   1.053  15.718 -0.2308 -0.3231 -0.3345
16018TIP3    H169469   0.961   1.020  15.658  0.6955  1.3376 -0.2617
16018TIP3    H269470   0.925   1.029  15.805 -0.4032 -0.6929 -0.3720
16019TIP3   OH269471   4.519   2.784  13.265  0.3757  0.2245 -0.1026
16019TIP3    H169472   4.489   2.818  13.349  1.1809 -1.0514  0.7276
16019TIP3    H269473   4.448   2.727  13.235 -0.0672  0.9527 -0.4984
16020TIP3   OH269474   4.190   5.792  12.679  0.6661  0.2593 -0.5722
16020TIP3    H169475   4.164   5.701  12.692 -0.0572  0.1096 -2.6945
16020TIP3    H269476   4.286   5.791  12.686  0.5515 -0.2624  1.4172
16021TIP3   OH269477   3.670   4.787  11.963  0.0764 -0.0308 -0.3900
16021TIP3    H169478   3.686   4.703  12.005 -1.8470 -0.4758 -0.4756
16021TIP3    H269479   3.738   4.845  11.998 -0.0577 -0.9871  1.5542
16022TIP3   OH269480   2.385   0.041   5.736  0.0930 -0.6676  0.3241
16022TIP3    H169481   2.355   0.091   5.812  3.1293 -0.3193  1.4267
16022TIP3    H269482   2.450  -0.020   5.772  1.4121 -0.6842 -1.9240
16023TIP3   OH269483   6.253   2.868  11.456 -0.0084  0.1634 -0.6157
16023TIP3    H169484   6.297   2.953  11.462 -0.0540  0.1187  0.7778
16023TIP3    H269485   6.191   2.878  11.385 -0.3703  1.4851 -0.1425
16024TIP3   OH269486   0.144   4.815  12.574  0.3623 -0.4464 -0.0890
16024TIP3    H169487   0.146   4.738  12.631 -1.0565  0.1351  0.7735
16024TIP3    H269488   0.191   4.882  12.623 -0.7112  0.0046  0.3399
16025TIP3   OH269489   3.131   4.202  17.338  0.0333 -0.0097  0.0366
16025TIP3    H169490   3.164   4.129  17.392 -1.3534  0.0224  0.9971
16025TIP3    H269491   3.116   4.273  17.401  0.1301  0.6642 -0.6921
16026TIP3   OH269492   0.761   2.077  13.728 -0.1576  0.2735 -0.1446
16026TIP3    H169493   0.752   2.003  13.788  1.1420 -1.2110 -1.6738
16026TIP3    H269494   0.711   2.051  13.651  1.4515  0.2965 -1.2533
16027TIP3   OH269495   3.907   4.589   2.485  0.4418 -0.0013  0.1403
16027TIP3    H169496   3.948   4.647   2.548  0.0601  1.9238 -1.3154
16027TIP3    H269497   3.929   4.625   2.399 -2.9726  0.3176 -0.7530
16028TIP3   OH269498   0.309   6.313  14.335  0.1702  0.6075 -0.3145
16028TIP3    H169499   0.399   6.279  14.343 -0.7183 -1.8978  0.1065
16028TIP3    H269500   0.291   6.311  14.241  0.5628  1.2199 -0.4108
16029TIP3   OH269501   1.220   0.563   4.768  0.1116  0.1747  0.2354
16029TIP3    H169502   1.186   0.622   4.835  0.1001 -1.1662  1.4383
16029TIP3    H269503   1.315   0.578   4.769  0.1060  0.1916  0.5029
16030TIP3   OH269504   2.518   5.132  13.756 -0.5494  0.2744 -0.0978
16030TIP3    H169505   2.556   5.061  13.704  4.1992  1.3353  1.3613
16030TIP3    H269506   2.534   5.211  13.704  1.3700  0.9839  1.4369
16031TIP3   OH269507   1.080   2.712  16.118  0.1938  0.0659  0.2333
16031TIP3    H169508   1.115   2.719  16.207 -0.3930 -1.2051  0.6050
16031TIP3    H269509   1.060   2.802  16.092  0.6348  0.4790  1.2767
16032TIP3   OH269510   0.972   4.829   3.628 -0.0523 -0.9035 -0.2557
16032TIP3    H169511   0.996   4.906   3.577 -0.6901  0.4072  1.3230
16032TIP3    H269512   0.949   4.763   3.563  1.2126 -0.0133 -1.6604
16033TIP3   OH269513   2.487   4.948  14.771  0.5274 -0.0117 -0.5077
16033TIP3    H169514   2.434   4.947  14.691  0.2759 -0.9243 -0.3354
16033TIP3    H269515   2.500   4.856  14.793  1.9252  0.1946 -0.3650
16034TIP3   OH269516   5.054   0.956  13.993  0.3774  0.0249  0.0113
16034TIP3    H169517   5.014   1.038  14.023 -0.5542 -0.1541 -0.6713
16034TIP3    H269518   5.122   0.937  14.057 -1.5468 -0.3863  2.0387
16035TIP3   OH269519   2.605   5.899  11.051 -0.0871 -0.2990 -0.2532
16035TIP3    H169520   2.625   5.909  10.958  2.6546 -0.0896  0.2598
16035TIP3    H269521   2.606   5.988  11.085  0.3694 -0.4783  0.2107
16036TIP3   OH269522   6.354   6.459  14.898  0.0090 -0.1519 -0.0174
16036TIP3    H169523   6.410   6.517  14.847  1.7902 -0.9442  0.9473
16036TIP3    H269524   6.356   6.496  14.987  0.1337 -0.9502  0.3203
16037TIP3   OH269525   0.393   0.627   4.796 -0.2778 -0.0136  0.5877
16037TIP3    H169526   0.404   0.701   4.855  0.4346  2.1976 -2.1261
16037TIP3    H269527   0.481   0.608   4.765 -0.8637  0.6484 -1.6818
16038TIP3   OH269528   5.045   1.788  13.428  0.2626  0.4025  0.3604
16038TIP3    H169529   4.974   1.737  13.390 -0.8005  0.9368  1.5471
16038TIP3    H269530   5.078   1.842  13.356  1.9092 -2.3570 -1.1306
16039TIP3   OH269531   5.151   5.281   1.121  0.2030 -0.0292  0.2278
16039TIP3    H169532   5.093   5.302   1.195  0.6502 -1.9516  1.1782
16039TIP3    H269533   5.234   5.323   1.145 -0.3813  1.6601 -0.5377
16040TIP3   OH269534   5.039   5.593  14.236 -0.0069 -0.1167 -0.7485
16040TIP3    H169535   5.121   5.572  14.191 -0.9823 -1.0132 -2.2151
16040TIP3    H269536   5.063   5.658  14.302  2.4777 -2.7876  1.1948
16041TIP3   OH269537   0.666   4.069   0.599 -0.8275 -0.0773  0.2603
16041TIP3    H169538   0.717   4.091   0.677 -3.5849  3.4655  1.2749
16041TIP3    H269539   0.589   4.024   0.632  0.6680 -4.1355 -1.1524
16042TIP3   OH269540   4.139   5.572   2.409 -0.8327 -0.3113 -0.1847
16042TIP3    H169541   4.106   5.604   2.493  0.9864 -0.1160  0.4984
16042TIP3    H269542   4.203   5.638   2.382  0.3030 -1.5222 -0.5586
16043TIP3   OH269543   2.781   6.016   4.605 -0.1207  0.7301  0.3749
16043TIP3    H169544   2.802   6.087   4.665  1.9671 -0.5969  1.3501
16043TIP3    H269545   2.847   5.949   4.624 -2.6960 -2.0085  0.3960
16044TIP3   OH269546   6.430   0.957   0.582 -0.1106 -0.0641 -0.0690
16044TIP3    H169547   6.401   0.943   0.491 -0.3244  1.5738 -0.2876
16044TIP3    H269548   6.438   0.869   0.618  1.3848 -0.8704 -2.1020
16045TIP3   OH269549   4.730   3.413  16.504 -0.3270  0.5279  0.2434
16045TIP3    H169550   4.757   3.498  16.539  1.6921 -0.2246  0.6474
16045TIP3    H269551   4.787   3.399  16.429  0.3003 -1.0397  0.9774
16046TIP3   OH269552   3.668   0.254   1.975  0.0262 -0.3597  0.2099
16046TIP3    H169553   3.589   0.218   2.014 -0.2022  1.1221  1.2130
16046TIP3    H269554   3.638   0.303   1.899  0.0515 -0.2890  0.2453
16047TIP3   OH269555   1.855   5.429   1.709 -0.4371 -0.1595 -0.6145
16047TIP3    H169556   1.900   5.512   1.692 -1.9553  0.8176 -0.1001
16047TIP3    H269557   1.873   5.411   1.801 -0.4451 -0.1815 -0.6173
16048TIP3   OH269558   0.791   1.409  12.545  0.1056 -0.5661 -0.4454
16048TIP3    H169559   0.759   1.493  12.511  1.2714 -0.6469 -1.8034
16048TIP3    H269560   0.827   1.432  12.631 -1.5638 -0.1007  0.1779
16049TIP3   OH269561   0.262   3.727   5.630 -0.1993 -0.3224 -0.5455
16049TIP3    H169562   0.280   3.730   5.536  0.8821  0.8880 -0.3324
16049TIP3    H269563   0.348   3.731   5.671 -0.6765 -0.3996  0.5051
16050TIP3   OH269564   5.565   4.649   6.124  0.4208  0.8559  0.2207
16050TIP3    H169565   5.479   4.617   6.099  1.9927 -1.4852 -2.9694
16050TIP3    H269566   5.573   4.735   6.082  0.5462 -0.1322 -1.9052
16051TIP3   OH269567   4.381   2.267   4.252  0.0415  0.1473 -0.3681
16051TIP3    H169568   4.423   2.270   4.167  2.2323 -1.3941  0.5610
16051TIP3    H269569   4.430   2.330   4.305  1.2338 -1.5805  0.6960
16052TIP3   OH269570   6.521   1.078  12.279 -0.2643 -0.2808  0.0623
16052TIP3    H169571   6.502   1.009  12.216 -1.5480 -0.2001  0.3471
16052TIP3    H269572   6.437   1.122  12.294 -0.0274 -0.3797  1.9347
16053TIP3   OH269573   0.692   1.156   2.672  0.8088  0.1043  0.2762
16053TIP3    H169574   0.658   1.066   2.665  1.7208 -0.4736  2.4977
16053TIP3    H269575   0.748   1.166   2.595  0.5968 -1.1993 -0.0707
16054TIP3   OH269576   4.423   4.857  15.071  0.1711  0.3111 -0.3206
16054TIP3    H169577   4.493   4.797  15.044  0.9759  0.3857  1.4750
16054TIP3    H269578   4.347   4.830  15.019  0.9351 -1.2197 -0.7055
16055TIP3   OH269579   6.030   0.047   3.781 -0.4117  0.2828  0.3100
16055TIP3    H169580   6.057   0.082   3.697 -0.9391  1.5540  0.6380
16055TIP3    H269581   5.987  -0.036   3.761  1.0560 -0.3174 -0.4769
16056TIP3   OH269582   0.750   5.557  13.102 -0.5695  0.0031 -0.1303
16056TIP3    H169583   0.685   5.592  13.163  0.8012  0.1703  1.2902
16056TIP3    H269584   0.701   5.495  13.048 -1.6908 -0.6902  1.5923
16057TIP3   OH269585   2.446   2.450  12.296  0.0923  0.4369  0.4936
16057TIP3    H169586   2.536   2.435  12.266 -0.5160 -0.9234 -0.7597
16057TIP3    H269587   2.449   2.535  12.339  1.8735  0.6599 -0.0013
16058TIP3   OH269588   4.695   3.137  12.755 -0.1529 -0.2241  0.3907
16058TIP3    H169589   4.683   3.162  12.663  0.0698  1.8692  0.8848
16058TIP3    H269590   4.626   3.073  12.772 -0.9194  0.2347 -0.9103
16059TIP3   OH269591   1.691   3.876  15.759 -0.2201 -0.3518 -0.2630
16059TIP3    H169592   1.678   3.960  15.714 -0.4943  0.0278  0.5126
16059TIP3    H269593   1.749   3.897  15.832 -1.7576 -0.4399  1.0497
16060TIP3   OH269594   3.396   1.552  12.436 -0.1482 -0.3207 -0.5007
16060TIP3    H169595   3.365   1.550  12.346  0.8970 -0.9393 -0.8564
16060TIP3    H269596   3.420   1.644  12.450 -0.3709 -0.2097 -0.8274
16061TIP3   OH269597   3.838   6.452   5.413  0.2926  0.1096  0.1798
16061TIP3    H169598   3.806   6.430   5.326  0.8707 -2.3963  0.5422
16061TIP3    H269599   3.892   6.530   5.399  2.0566 -1.4007 -2.0953
16062TIP3   OH269600   0.887   5.630   3.095 -0.5151 -0.4463  0.3772
16062TIP3    H169601   0.860   5.672   3.014 -0.4980  0.2037  0.6995
16062TIP3    H269602   0.969   5.673   3.118 -1.7015  1.1092  1.9834
16063TIP3   OH269603   0.188   2.750   0.671 -0.8291  0.0289  0.3335
16063TIP3    H169604   0.190   2.690   0.597  0.2238  0.2308  0.1883
16063TIP3    H269605   0.131   2.707   0.735 -0.5678 -0.8361 -0.0005
16064TIP3   OH269606   5.164   4.410   3.995  0.2665 -0.2384  0.3486
16064TIP3    H169607   5.133   4.384   4.081 -1.0236 -0.9482 -0.3005
16064TIP3    H269608   5.221   4.485   4.011  0.5463 -0.7486  1.8644
16065TIP3   OH269609   1.507   1.834  12.026 -0.6449 -0.2664  0.6459
16065TIP3    H169610   1.581   1.855  11.970  0.2193 -1.2536  1.3753
16065TIP3    H269611   1.483   1.744  12.001  0.2976 -1.0528  2.3773
16066TIP3   OH269612   6.591   6.290   4.839  0.4746  0.7201  0.7122
16066TIP3    H169613   6.527   6.220   4.850  1.7635 -0.4155  1.2851
16066TIP3    H269614   6.646   6.284   4.917  2.1532  0.7289 -0.4358
16067TIP3   OH269615   0.751   5.411   4.978  0.0637 -0.0231 -0.2546
16067TIP3    H169616   0.706   5.451   4.904 -1.0100 -0.8128 -0.0520
16067TIP3    H269617   0.841   5.442   4.971  0.1179 -0.5036 -2.1825
16068TIP3   OH269618   6.740   1.467  11.708  0.1950 -0.5004  0.5848
16068TIP3    H169619   6.738   1.440  11.800 -0.2924 -0.1761  0.6765
16068TIP3    H269620   6.820   1.519  11.700  1.4186 -2.3572  0.2814
16069TIP3   OH269621   5.633   3.449   3.585 -0.1365  0.3045  0.3281
16069TIP3    H169622   5.579   3.517   3.545 -0.5540 -0.2227 -0.0257
16069TIP3    H269623   5.719   3.458   3.544 -0.3383  0.2839 -0.0988
16070TIP3   OH269624   3.029   1.331   1.383 -0.1029 -0.0084  0.0783
16070TIP3    H169625   2.993   1.395   1.321 -1.5851 -2.2001 -1.4991
16070TIP3    H269626   3.123   1.330   1.365 -0.0281  1.7433  0.2160
16071TIP3   OH269627   2.804   4.134  13.284  0.0420 -0.4028 -0.1668
16071TIP3    H169628   2.848   4.060  13.242 -0.5892 -1.1479  0.4551
16071TIP3    H269629   2.872   4.200  13.293  0.6984 -1.0255 -0.4400
16072TIP3   OH269630   4.355   2.274   3.058 -0.1294  0.0564 -0.2335
16072TIP3    H169631   4.371   2.189   3.018 -2.4758 -0.7641  0.4406
16072TIP3    H269632   4.394   2.268   3.145 -0.6625 -0.4979 -0.0287
16073TIP3   OH269633   0.247   6.750  15.935  0.3523 -0.9747  0.2936
16073TIP3    H169634   0.216   6.807  16.005 -0.0776 -0.3484 -0.3881
16073TIP3    H269635   0.177   6.685  15.924  0.1233 -0.6773  0.0003
16074TIP3   OH269636   6.665   5.554  10.804  0.1033 -0.0766 -0.8146
16074TIP3    H169637   6.707   5.563  10.889 -0.0742  0.7638 -0.8138
16074TIP3    H269638   6.714   5.611  10.746  0.5012 -0.9770 -1.3916
16075TIP3   OH269639   1.078   4.700  12.625 -0.6209 -0.0248  0.0491
16075TIP3    H169640   1.027   4.620  12.643  1.8460 -1.1852  2.7184
16075TIP3    H269641   1.129   4.713  12.705  1.8062  2.1557 -1.7264
16076TIP3   OH269642   1.152   1.905   1.479  0.0391  0.5791  0.4511
16076TIP3    H169643   1.168   1.932   1.388  1.1533 -2.9506 -0.5608
16076TIP3    H269644   1.058   1.917   1.492  0.1043  2.5970 -0.5863
16077TIP3   OH269645   2.912   1.265  10.467  0.3377  0.1786 -0.7662
16077TIP3    H169646   2.912   1.171  10.488 -0.4148  0.0850 -1.1616
16077TIP3    H269647   2.930   1.268  10.373  0.6256  0.4545 -0.7053
16078TIP3   OH269648   1.270   5.593  12.429 -0.2263 -0.1508  0.5923
16078TIP3    H169649   1.200   5.608  12.491  1.0820  0.4164  1.9949
16078TIP3    H269650   1.320   5.521  12.466  0.5067  0.1193  0.1550
16079TIP3   OH269651   4.271   2.816   1.299 -0.6441 -0.5057 -0.0092
16079TIP3    H169652   4.347   2.872   1.313 -0.7155 -0.5923  0.7956
16079TIP3    H269653   4.245   2.833   1.209  0.5152 -0.7030 -0.4085
16080TIP3   OH269654   0.802   5.161   5.423 -0.2692 -0.4052  0.2392
16080TIP3    H169655   0.794   5.193   5.333  0.0314 -1.2244 -0.0991
16080TIP3    H269656   0.869   5.093   5.417 -2.5592 -2.8398  0.4012
16081TIP3   OH269657   1.607   5.975   6.084  0.6799 -0.1807  0.0749
16081TIP3    H169658   1.527   6.022   6.059  1.2854  0.0145 -1.6212
16081TIP3    H269659   1.585   5.883   6.074  0.0262 -0.2288  1.7142
16082TIP3   OH269660   4.561   4.946  14.295 -0.0541 -0.3325 -0.0843
16082TIP3    H169661   4.575   5.028  14.341  1.3289 -1.0104  0.7452
16082TIP3    H269662   4.586   4.878  14.358 -1.1141 -1.4000 -0.7674
16083TIP3   OH269663   6.723   1.106  16.724 -0.0909  0.4871  0.0071
16083TIP3    H169664   6.813   1.083  16.747  0.9017  2.5599 -1.5726
16083TIP3    H269665   6.707   1.189  16.768 -0.2281  1.5199 -1.8953
16084TIP3   OH269666   6.355   1.196  11.474 -0.4293  0.1169 -0.3326
16084TIP3    H169667   6.415   1.270  11.486 -0.7719  0.1391  1.7105
16084TIP3    H269668   6.370   1.167  11.384  4.0767 -1.1455  0.5583
16085TIP3   OH269669   3.761   2.843  15.545 -0.6852  0.0314  0.4128
16085TIP3    H169670   3.755   2.914  15.481  1.1367 -1.4453 -1.5424
16085TIP3    H269671   3.828   2.873  15.607  0.3585 -0.0594 -0.6158
16086TIP3   OH269672   6.399   6.656  12.816 -0.1673  0.2507  0.2864
16086TIP3    H169673   6.447   6.734  12.790  0.2708 -0.3799 -0.8559
16086TIP3    H269674   6.317   6.660  12.768  0.0357 -0.1931 -0.1117
16087TIP3   OH269675   6.158   3.482   5.085 -0.2352 -0.1070  0.2334
16087TIP3    H169676   6.169   3.398   5.041 -0.1075  0.6610 -1.2704
16087TIP3    H269677   6.071   3.512   5.057 -0.2469  0.2961  0.6932
16088TIP3   OH269678   1.630   5.266   1.860 -0.2587  0.3469 -0.1614
16088TIP3    H169679   1.672   5.226   1.784 -0.9350 -1.2772  0.2701
16088TIP3    H269680   1.694   5.329   1.893  1.5126 -1.4359 -0.0109
16089TIP3   OH269681   3.059   1.605   4.176  0.4511 -0.0818 -0.2011
16089TIP3    H169682   3.075   1.697   4.195 -0.6469  0.3793 -1.3828
16089TIP3    H269683   3.065   1.599   4.080  0.2678 -1.1915 -0.1561
16090TIP3   OH269684   0.027   1.611  14.242 -0.8553  0.0092  0.1510
16090TIP3    H169685   0.077   1.591  14.322 -0.3908  0.7852  0.0637
16090TIP3    H269686   0.090   1.599  14.171 -1.5714 -1.8434 -0.2365
16091TIP3   OH269687   2.178   0.659  13.183  0.3722  0.1920  0.0451
16091TIP3    H169688   2.256   0.621  13.143  0.6686  1.3993 -0.5675
16091TIP3    H269689   2.112   0.590  13.178  1.7036 -1.3042  1.6846
16092TIP3   OH269690   5.348   2.612   3.059 -0.7459 -0.4665  0.0183
16092TIP3    H169691   5.291   2.595   3.134 -0.3476  0.6519  0.5849
16092TIP3    H269692   5.416   2.670   3.092 -1.2267  1.0444 -1.4803
16093TIP3   OH269693   6.037   4.988  14.522  0.9180  0.5454  0.1789
16093TIP3    H169694   6.108   5.048  14.500  1.1317  0.8617  1.5923
16093TIP3    H269695   6.045   4.975  14.617  1.0808 -1.9749 -0.1108
16094TIP3   OH269696   0.031   4.261   2.767 -0.4483 -0.4065 -0.2723
16094TIP3    H169697   0.032   4.357   2.766  0.5106 -0.3892 -1.9389
16094TIP3    H269698  -0.047   4.238   2.817 -2.4708  1.2647 -2.4752
16095TIP3   OH269699   3.201   5.814  16.299 -0.1780 -0.1199  0.2298
16095TIP3    H169700   3.152   5.871  16.358  0.9622  0.4626  0.6634
16095TIP3    H269701   3.157   5.730  16.302 -1.3745  0.4953  0.2742
16096TIP3   OH269702   4.283   6.046  12.315 -0.9343 -0.2311  0.1101
16096TIP3    H169703   4.296   6.058  12.409 -0.0580 -0.6581  0.0574
16096TIP3    H269704   4.203   5.994  12.308 -0.7608 -0.5733  0.6451
16097TIP3   OH269705   3.508   0.686  11.167 -0.0854  0.4678 -0.3474
16097TIP3    H169706   3.561   0.730  11.101  0.3047  1.4600  0.5941
16097TIP3    H269707   3.523   0.592  11.152  0.4303  0.6912 -1.2871
16098TIP3   OH269708   0.125   2.241  12.228 -0.5213 -0.2775 -0.1557
16098TIP3    H169709   0.164   2.309  12.172 -0.3039 -0.1085  0.2024
16098TIP3    H269710   0.043   2.219  12.183  0.0587 -0.7641 -1.0104
16099TIP3   OH269711   4.358   1.166   3.503  0.1881 -0.4512 -0.6189
16099TIP3    H169712   4.308   1.092   3.538 -0.3220 -0.0293 -0.4350
16099TIP3    H269713   4.427   1.126   3.450  0.4480 -1.0772  0.1805
16100TIP3   OH269714   2.766   0.909  12.103  0.3623  0.2499  0.4188
16100TIP3    H169715   2.712   0.834  12.130 -0.9618  1.0472  0.0969
16100TIP3    H269716   2.726   0.940  12.022  1.9110  0.3043 -0.3648
16101TIP3   OH269717   0.791   1.088  11.070  0.7035 -0.0469  0.2171
16101TIP3    H169718   0.810   1.004  11.029  1.8919  0.2009  0.2277
16101TIP3    H269719   0.696   1.087  11.084  0.7347 -1.4723  0.4406
16102TIP3   OH269720   5.988   6.024  16.018  0.3683  0.0572  0.1854
16102TIP3    H169721   5.986   5.952  16.082  0.7876  0.3530  0.5380
16102TIP3    H269722   5.914   6.079  16.042  1.1009  0.7053  1.0711
16103TIP3   OH269723   5.750   0.940   1.971  1.3208 -0.5653 -0.1714
16103TIP3    H169724   5.761   0.968   2.062  1.3623  1.3098 -0.7129
16103TIP3    H269725   5.824   0.980   1.925  0.3286 -0.0184 -1.3319
16104TIP3   OH269726   3.511   0.825   2.790  0.0386 -0.5142 -0.1070
16104TIP3    H169727   3.577   0.889   2.814  1.5506 -1.8098 -0.5994
16104TIP3    H269728   3.457   0.869   2.724  0.7520  0.3984 -0.0942
16105TIP3   OH269729   5.016   5.239  13.221 -0.2468 -0.0215  0.2405
16105TIP3    H169730   4.980   5.164  13.269 -2.6360  1.4261  0.8548
16105TIP3    H269731   5.021   5.309  13.287 -0.9916  1.2259 -0.9777
16106TIP3   OH269732   1.069   4.462   6.483 -0.0546  0.1300  0.1740
16106TIP3    H169733   1.106   4.432   6.566  1.7139  2.1515  0.2016
16106TIP3    H269734   0.974   4.450   6.493  0.1723 -0.3768  2.1594
16107TIP3   OH269735   2.407   0.611   2.482 -0.2411  0.3511  0.0785
16107TIP3    H169736   2.353   0.664   2.540  0.5528  0.7300  0.4739
16107TIP3    H269737   2.361   0.527   2.478 -1.2485  0.9017 -0.1796
16108TIP3   OH269738   3.318   2.983   1.126 -0.4472 -0.0686 -0.2644
16108TIP3    H169739   3.408   2.967   1.157 -0.6251 -0.0624  0.2636
16108TIP3    H269740   3.269   2.906   1.157 -0.4453 -0.5056 -1.3144
16109TIP3   OH269741   2.842   1.836   1.975  0.0041  0.6829 -0.6333
16109TIP3    H169742   2.767   1.860   1.921 -0.0464 -0.3840 -1.0603
16109TIP3    H269743   2.808   1.768   2.034  0.4008  0.8740 -0.1736
16110TIP3   OH269744   3.567   1.111  13.760  0.6212  0.0603 -0.5162
16110TIP3    H169745   3.513   1.114  13.839  0.9187  0.8763 -0.3423
16110TIP3    H269746   3.645   1.162  13.781  1.3865 -0.9449 -0.8394
16111TIP3   OH269747   3.289   3.656   0.621  0.0620 -0.2451  0.5865
16111TIP3    H169748   3.250   3.659   0.708 -1.1013  0.4737  0.0617
16111TIP3    H269749   3.269   3.569   0.588  0.4676 -0.5027  1.0102
16112TIP3   OH269750   6.468   4.167  14.295  0.0918  0.1404  0.0602
16112TIP3    H169751   6.507   4.243  14.254 -3.0897  0.6238 -2.4950
16112TIP3    H269752   6.391   4.200  14.341  0.4340 -1.1881  1.7364
16113TIP3   OH269753   2.595   2.871  10.761 -0.0252  0.0018  0.0336
16113TIP3    H169754   2.645   2.823  10.827  1.0403  0.8152 -0.1443
16113TIP3    H269755   2.504   2.861  10.787 -0.0078 -3.2637 -0.7680
16114TIP3   OH269756   3.374   6.704  13.285  0.0015  0.1420  0.4793
16114TIP3    H169757   3.450   6.707  13.227  0.3892  0.5883  0.9920
16114TIP3    H269758   3.399   6.643  13.354 -1.3303 -2.1730 -0.9725
16115TIP3   OH269759   5.823   1.840   0.588 -0.4745  0.2297  0.7851
16115TIP3    H169760   5.746   1.867   0.538 -0.5937  1.0328  1.3693
16115TIP3    H269761   5.788   1.787   0.659 -0.2896 -1.0468 -0.0625
16116TIP3   OH269762   0.020   1.464   2.522 -0.3131 -0.0806 -0.2377
16116TIP3    H169763   0.014   1.558   2.505 -0.9400 -0.4542 -2.3621
16116TIP3    H269764  -0.066   1.429   2.498 -0.6490 -1.0486  2.0243
16117TIP3   OH269765   5.021   2.051  12.577 -0.3793  0.0623  0.6054
16117TIP3    H169766   5.040   2.121  12.640  2.1709  0.5554 -0.6091
16117TIP3    H269767   4.926   2.054  12.567 -0.4536  2.7856  1.2483
16118TIP3   OH269768   0.515   6.383  13.132  0.2020 -0.0438  0.1394
16118TIP3    H169769   0.434   6.434  13.133  0.9528  1.1980  1.8033
16118TIP3    H269770   0.553   6.397  13.219  0.5684 -3.3017  0.6408
16119TIP3   OH269771   1.347   1.570   5.500  0.7060  0.0440  0.0502
16119TIP3    H169772   1.349   1.499   5.436 -0.9606 -1.0359  1.1347
16119TIP3    H269773   1.349   1.526   5.585  1.1652  1.3742  0.7591
16120TIP3   OH269774   5.123   1.159   3.195  0.5996 -0.5056 -0.0614
16120TIP3    H169775   5.185   1.156   3.121 -0.0352 -0.7146 -0.5983
16120TIP3    H269776   5.170   1.116   3.266  1.0955 -0.6266 -0.4492
16121TIP3   OH269777   0.325   3.202   4.785  0.0169  0.0998 -0.2475
16121TIP3    H169778   0.357   3.118   4.753 -0.3002 -0.1145 -0.0215
16121TIP3    H269779   0.399   3.262   4.776 -0.0137 -0.0012 -1.1800
16122TIP3   OH269780   4.122   2.072   3.596  0.2565 -0.4326 -0.0477
16122TIP3    H169781   4.153   2.162   3.583  0.9019 -0.6400  0.0638
16122TIP3    H269782   4.026   2.080   3.596  0.2999  0.5353  1.9438
16123TIP3   OH269783   2.491   3.003   3.052 -0.1851 -0.2312 -0.2785
16123TIP3    H169784   2.531   3.065   3.113  0.3238  0.3467 -1.1763
16123TIP3    H269785   2.427   2.955   3.105 -0.2860  0.7650  0.5287
16124TIP3   OH269786   5.503   3.757  12.684 -0.2804  0.0810 -0.1072
16124TIP3    H169787   5.562   3.805  12.625  2.7357 -0.4975  2.2208
16124TIP3    H269788   5.485   3.675  12.638 -1.1118  1.1416 -1.7917
16125TIP3   OH269789   1.544   5.650  12.400 -0.2715  0.0056  0.5164
16125TIP3    H169790   1.592   5.657  12.318 -1.7045 -1.6530 -0.5224
16125TIP3    H269791   1.462   5.697  12.385  0.4162  1.7555  1.8641
16126TIP3   OH269792   6.359   4.970  12.404 -0.3313  0.0047 -0.7465
16126TIP3    H169793   6.351   5.056  12.445  0.2267 -0.4548  0.3730
16126TIP3    H269794   6.285   4.920  12.439 -0.2649 -0.1807 -0.8680
16127TIP3   OH269795   6.018   6.119   4.484 -0.6406  0.3475 -0.0021
16127TIP3    H169796   6.003   6.127   4.390 -0.5394 -0.6193 -0.1096
16127TIP3    H269797   6.103   6.160   4.499  0.3129 -1.2947 -0.6704
16128TIP3   OH269798   3.071   3.568  12.958 -0.0218 -0.3081 -0.0550
16128TIP3    H169799   3.012   3.533  13.025  0.3146  0.9641  0.9603
16128TIP3    H269800   3.038   3.656  12.941  1.3229  0.2894  0.2535
16129TIP3   OH269801   0.330   1.919  15.638 -0.7570 -0.2459 -0.0479
16129TIP3    H169802   0.332   2.014  15.627 -0.5378  0.0433  2.0268
16129TIP3    H269803   0.298   1.906  15.727 -2.2623 -2.1919 -0.7830
16130TIP3   OH269804   2.596   2.525  12.705  0.3425  0.3777  0.2552
16130TIP3    H169805   2.522   2.564  12.658  0.8697  0.2583 -0.6988
16130TIP3    H269806   2.668   2.588  12.694  0.1854  0.8915  1.8643
16131TIP3   OH269807   0.521   2.306   5.426  0.7862  0.1737 -0.0928
16131TIP3    H169808   0.512   2.389   5.472  1.9438 -0.2251  0.9010
16131TIP3    H269809   0.605   2.312   5.381  1.8551 -1.1837  1.6106
16132TIP3   OH269810   4.154   0.066  13.803  0.4417  0.2163 -0.1629
16132TIP3    H169811   4.200  -0.009  13.842  1.3419 -0.1894 -1.9143
16132TIP3    H269812   4.222   0.117  13.760 -0.3877  1.1780 -0.3826
16133TIP3   OH269813   1.507   5.689  15.112  0.5367  0.2085 -0.0075
16133TIP3    H169814   1.466   5.759  15.061  0.8033  0.6529  0.3802
16133TIP3    H269815   1.524   5.728  15.197  1.8960  0.0789 -0.2001
16134TIP3   OH269816   2.082   6.388  13.840  0.1696  0.6310  0.4353
16134TIP3    H169817   2.146   6.458  13.829  1.2954 -0.3009  0.8099
16134TIP3    H269818   2.058   6.362  13.751  0.3407  0.9443  0.2959
16135TIP3   OH269819   3.338   2.107   3.328 -0.1434  0.2216  0.1321
16135TIP3    H169820   3.350   2.150   3.244  0.0899  0.7603  0.4353
16135TIP3    H269821   3.403   2.148   3.385 -0.6815  0.2663  0.7228
16136TIP3   OH269822   0.805   1.253  16.799  0.0143 -0.1056  0.4637
16136TIP3    H169823   0.784   1.274  16.890  1.2784  1.9581  0.3370
16136TIP3    H269824   0.880   1.194  16.804 -1.1377 -1.6110  0.7514
16137TIP3   OH269825   5.739   3.477   0.149  0.1788 -0.1564  0.1035
16137TIP3    H169826   5.658   3.434   0.178  1.3599 -2.5817  0.0722
16137TIP3    H269827   5.805   3.448   0.211  1.4123  0.1772 -1.0123
16138TIP3   OH269828   1.005   3.977   5.405  0.2051  0.6944  0.1501
16138TIP3    H169829   0.992   3.971   5.500 -1.0812  1.9035  0.0955
16138TIP3    H269830   0.978   3.891   5.371 -1.4940  0.9622  0.7129
16139TIP3   OH269831   5.867   1.432   2.189 -0.6580  0.3838  0.4882
16139TIP3    H169832   5.793   1.491   2.183 -1.7933 -1.0827 -0.7247
16139TIP3    H269833   5.828   1.344   2.190  1.0816 -0.5592 -2.4396
16140TIP3   OH269834   0.202   4.018  13.673 -0.1458 -0.2186 -0.2552
16140TIP3    H169835   0.172   3.981  13.590 -0.9000  1.1844 -0.6456
16140TIP3    H269836   0.298   4.008  13.670 -0.3424 -2.9807  0.1354
16141TIP3   OH269837   1.792   0.142  13.032  0.1803 -0.0507 -0.1118
16141TIP3    H169838   1.780   0.047  13.027 -1.0824  0.0675  0.4416
16141TIP3    H269839   1.779   0.173  12.943 -1.2683 -0.2177  0.0163
16142TIP3   OH269840   1.313   0.992  14.127 -0.0803 -0.0310 -0.5971
16142TIP3    H169841   1.360   0.935  14.188 -0.1790  0.4448 -0.0568
16142TIP3    H269842   1.303   1.074  14.175 -0.3973  0.2674 -1.1644
16143TIP3   OH269843   4.788   2.587  15.637  0.2601 -0.5184 -0.0776
16143TIP3    H169844   4.751   2.525  15.574  0.7911 -1.9092  0.9227
16143TIP3    H269845   4.712   2.624  15.682 -0.0223 -1.6598  0.4111
16144TIP3   OH269846   4.917   5.255  11.886  0.3242 -0.3272 -0.7845
16144TIP3    H169847   4.853   5.326  11.894 -1.9949 -2.3374 -0.4862
16144TIP3    H269848   4.963   5.255  11.970 -0.5969 -0.0283 -0.2630
16145TIP3   OH269849   5.995   5.782  12.951  0.3733 -0.9188 -0.3078
16145TIP3    H169850   5.990   5.692  12.983  0.5539 -0.0194  2.4558
16145TIP3    H269851   6.086   5.809  12.967 -0.5301  0.8939  2.4801
16146TIP3   OH269852   0.762   1.255   0.084  0.1482  0.4526 -0.5929
16146TIP3    H169853   0.856   1.251   0.063  0.3194  0.0840  0.1900
16146TIP3    H269854   0.718   1.233   0.002  0.7922 -1.1419 -0.5502
16147TIP3   OH269855   0.678   1.412   4.216 -0.9874  0.3428  0.5187
16147TIP3    H169856   0.633   1.473   4.158 -1.2988  0.9028  1.3359
16147TIP3    H269857   0.725   1.468   4.278 -0.6427 -0.2473  0.8042
16148TIP3   OH269858   6.181   0.282   0.069  0.1002 -0.0048 -0.1646
16148TIP3    H169859   6.235   0.331   0.130 -0.0660 -1.0982  0.9033
16148TIP3    H269860   6.093   0.320   0.078  0.3447  0.7327 -0.7519
16149TIP3   OH269861   4.529   5.889   5.566  0.4959  0.4603  0.4755
16149TIP3    H169862   4.499   5.978   5.548 -0.8138  0.2539  1.4941
16149TIP3    H269863   4.586   5.899   5.642  0.1690  0.4016  0.7288
16150TIP3   OH269864   6.741   4.781  11.370  0.5645 -0.2243  0.6379
16150TIP3    H169865   6.700   4.794  11.285  0.2841 -1.3279  0.5859
16150TIP3    H269866   6.818   4.838  11.369  0.0420  0.4897  0.0255
16151TIP3   OH269867   6.096   4.992   5.154  0.0320  0.2341 -0.1413
16151TIP3    H169868   6.035   4.937   5.106  2.1264 -0.0274 -2.7426
16151TIP3    H269869   6.055   5.078   5.156 -0.9461 -0.2143 -0.7223
16152TIP3   OH269870   1.549   6.645   0.048  0.3485  0.2727  0.3282
16152TIP3    H169871   1.559   6.551   0.064  5.7983  0.6213  0.7059
16152TIP3    H269872   1.567   6.656  -0.045  0.7689  1.0290  0.4938
16153TIP3   OH269873   2.872   6.483   1.322 -0.3563 -0.0566  0.4874
16153TIP3    H169874   2.867   6.570   1.362  0.5515 -0.7356  2.1724
16153TIP3    H269875   2.964   6.474   1.296 -0.6602 -0.1497 -0.6141
16154TIP3   OH269876   6.359   4.527  14.024  0.3293  0.1499 -0.4403
16154TIP3    H169877   6.268   4.530  14.054  0.1081  1.3859 -1.1535
16154TIP3    H269878   6.356   4.566  13.936  1.1926 -1.9030 -1.4633
16155TIP3   OH269879   0.809   5.719   3.903 -0.4010  0.7968  0.2248
16155TIP3    H169880   0.769   5.648   3.953  0.7988  0.3723  0.6195
16155TIP3    H269881   0.834   5.783   3.970  1.2166  0.2247  0.2065
16156TIP3   OH269882   5.700   5.074  16.048  0.4968 -0.2622 -0.1862
16156TIP3    H169883   5.791   5.098  16.066  1.3185  0.0750 -3.9816
16156TIP3    H269884   5.700   4.979  16.051  0.3005 -0.2386  2.2760
16157TIP3   OH269885   3.598   2.052  14.229  0.4415 -0.5760 -0.3577
16157TIP3    H169886   3.660   2.110  14.273  0.4885  0.4207 -1.6622
16157TIP3    H269887   3.623   2.056  14.137 -1.5748 -0.0791 -0.9428
16158TIP3   OH269888   2.618   3.540  13.336  0.0128 -1.4404  0.4919
16158TIP3    H169889   2.558   3.466  13.346 -2.5814  0.0048 -2.5479
16158TIP3    H269890   2.563   3.617  13.349  1.1905 -0.0407 -2.0693
16159TIP3   OH269891   2.400   0.303   0.156  0.7147  0.0593 -0.5818
16159TIP3    H169892   2.442   0.382   0.190  0.7752 -0.0897 -0.3101
16159TIP3    H269893   2.309   0.311   0.182  0.8782 -0.3432  0.1528
16160TIP3   OH269894   5.692   1.604   1.453 -0.2253  0.5430  0.6760
16160TIP3    H169895   5.743   1.659   1.394  2.4150 -0.6081  1.7599
16160TIP3    H269896   5.611   1.587   1.405  0.4780  2.2188 -1.2472
16161TIP3   OH269897   4.518   4.840   3.685  0.3426  0.5744 -0.1126
16161TIP3    H169898   4.599   4.810   3.644  0.2820  1.3241 -0.8041
16161TIP3    H269899   4.544   4.916   3.737 -0.2632  2.4716 -2.3760
16162TIP3   OH269900   3.842   4.959   3.003 -0.2959 -0.2177 -0.0156
16162TIP3    H169901   3.876   4.878   3.042  0.9351 -0.1756 -0.9573
16162TIP3    H269902   3.748   4.942   2.991 -0.1522 -1.3017  0.2791
16163TIP3   OH269903   1.873   3.849  13.681  0.6457  0.3454  0.0466
16163TIP3    H169904   1.846   3.933  13.718  1.2439 -0.4669  2.4919
16163TIP3    H269905   1.879   3.790  13.756  0.4520 -1.8601 -1.5544
16164TIP3   OH269906   3.716   4.781  14.756 -0.3826 -0.6150 -0.2280
16164TIP3    H169907   3.730   4.750  14.666 -0.2131  0.9341 -0.7630
16164TIP3    H269908   3.679   4.868  14.746  0.9520  0.1664  1.1862
16165TIP3   OH269909   3.640   3.350   0.916 -0.0243 -0.3532  0.4688
16165TIP3    H169910   3.552   3.340   0.879  0.5309 -0.8201 -0.7703
16165TIP3    H269911   3.640   3.293   0.993 -1.0843  0.3525  1.0174
16166TIP3   OH269912   4.430   6.717  12.112 -0.6348 -0.5626 -0.0319
16166TIP3    H169913   4.489   6.785  12.080 -0.0743 -0.9430  0.1627
16166TIP3    H269914   4.369   6.762  12.171 -0.1978 -0.2521  0.1853
16167TIP3   OH269915   4.473   1.592  14.116  0.5578 -0.1870  0.2917
16167TIP3    H169916   4.389   1.624  14.148 -0.1954 -1.1626 -0.6128
16167TIP3    H269917   4.452   1.550  14.032  1.8886 -0.7634  0.2203
16168TIP3   OH269918   0.380   5.838   6.307  0.1671 -0.1348  0.7352
16168TIP3    H169919   0.309   5.778   6.331  1.4646 -1.6524  0.9151
16168TIP3    H269920   0.453   5.814   6.363  1.4167  0.1407 -0.6873
16169TIP3   OH269921   6.183   3.596   6.171 -0.2336  0.7928  0.9634
16169TIP3    H169922   6.262   3.629   6.215 -0.0737  1.6987  0.0295
16169TIP3    H269923   6.126   3.673   6.163 -2.0155 -0.1690  3.2080
16170TIP3   OH269924   3.558   4.365   1.275  0.2685  0.2732 -0.4824
16170TIP3    H169925   3.503   4.332   1.204  0.9858 -0.3539 -0.7621
16170TIP3    H269926   3.518   4.449   1.299 -0.0510  0.4507 -1.5548
16171TIP3   OH269927   1.535   0.464   4.164  0.1728  0.3374 -0.4488
16171TIP3    H169928   1.537   0.423   4.251  1.4942 -1.9279 -1.4273
16171TIP3    H269929   1.463   0.526   4.168  0.2161  0.3493  2.2672
16172TIP3   OH269930   2.494   0.913  11.559  0.5785 -0.2233 -0.4746
16172TIP3    H169931   2.530   0.996  11.590  1.9668 -0.6989 -0.7291
16172TIP3    H269932   2.415   0.937  11.511 -0.0016  0.7829  0.9118
16173TIP3   OH269933   1.459   5.981  16.559 -1.3242  0.3487 -0.4309
16173TIP3    H169934   1.430   5.981  16.650 -1.8074 -0.6580 -0.5619
16173TIP3    H269935   1.527   5.913  16.556 -1.9719 -0.2942 -0.9945
16174TIP3   OH269936   4.095   3.125  11.869  0.0853 -0.2162 -0.7596
16174TIP3    H169937   4.075   3.032  11.873  2.2092 -0.8963 -3.4551
16174TIP3    H269938   4.077   3.150  11.778  0.5605  1.7749 -0.3639
16175TIP3   OH269939   0.269   5.532  12.199  0.0042  0.3360  0.2881
16175TIP3    H169940   0.300   5.459  12.251 -0.1659 -0.3756 -0.5870
16175TIP3    H269941   0.348   5.574  12.166  0.0939 -1.1607 -1.5124
16176TIP3   OH269942   3.322   5.485  11.454 -0.0596  0.8645  0.5275
16176TIP3    H169943   3.356   5.483  11.543  1.6782  2.1776 -0.0506
16176TIP3    H269944   3.250   5.548  11.457  0.2032  1.1503  0.9607
16177TIP3   OH269945   2.178   1.982  14.213  0.0996 -0.9589  0.2082
16177TIP3    H169946   2.231   1.993  14.292 -0.1865 -0.4955  0.3398
16177TIP3    H269947   2.106   1.925  14.240 -1.1924  0.8864  0.8839
16178TIP3   OH269948   4.148   0.941   5.720 -0.0984  0.2443 -0.2452
16178TIP3    H169949   4.124   1.031   5.739 -0.1378  0.3087 -0.5888
16178TIP3    H269950   4.143   0.896   5.804  0.5672  0.7061  0.0538
16179TIP3   OH269951   0.431   0.060  10.620  0.7343 -0.1528 -0.1051
16179TIP3    H169952   0.357   0.018  10.576 -1.3610  2.1080  1.0457
16179TIP3    H269953   0.459  -0.004  10.686  0.9092 -1.6690 -1.5724
16180TIP3   OH269954   2.240   0.179   6.365 -0.2389  0.0714  0.1286
16180TIP3    H169955   2.276   0.190   6.453  0.5953 -0.5495 -0.1178
16180TIP3    H269956   2.260   0.261   6.321 -1.2512  0.6472  0.7017
16181TIP3   OH269957   4.330   3.770  17.064  0.5724  0.4117  0.3410
16181TIP3    H169958   4.253   3.767  17.008  0.7891  0.4197  0.0397
16181TIP3    H269959   4.404   3.761  17.004  0.8760  1.9749  0.4360
16182TIP3   OH269960   4.894   3.078   0.904  0.3783  0.2996  0.4136
16182TIP3    H169961   4.838   3.017   0.857  0.4761  2.3686 -2.6773
16182TIP3    H269962   4.983   3.052   0.880  0.4080  1.9270 -1.5308
16183TIP3   OH269963   1.677   2.451  16.989 -0.6326  0.1776 -0.0514
16183TIP3    H169964   1.759   2.431  16.943 -0.8931  1.7983 -1.3164
16183TIP3    H269965   1.669   2.382  17.054  0.5520 -1.3546 -1.4385
16184TIP3   OH269966   4.604   3.349  11.067 -0.4033 -0.1290  0.1975
16184TIP3    H169967   4.522   3.316  11.031  0.4273 -1.1554 -0.8282
16184TIP3    H269968   4.624   3.426  11.013  0.7436 -1.5567 -1.5134
16185TIP3   OH269969   0.254   5.925   2.392 -0.2344 -0.0426 -0.5035
16185TIP3    H169970   0.311   5.861   2.435 -0.0971 -2.1047 -3.4316
16185TIP3    H269971   0.297   5.942   2.308 -2.2848  0.8949 -1.4268
16186TIP3   OH269972   2.843   1.938   4.426  0.7501  0.1869  0.2971
16186TIP3    H169973   2.868   2.016   4.376  0.8246 -0.2878 -0.4200
16186TIP3    H269974   2.895   1.868   4.389 -0.1883 -0.4378  0.1249
16187TIP3   OH269975   6.269   1.260  12.861 -0.3594 -0.0141 -0.4036
16187TIP3    H169976   6.291   1.235  12.951 -1.7341 -0.1140 -0.0621
16187TIP3    H269977   6.275   1.179  12.811 -0.3288 -0.1131 -0.2423
16188TIP3   OH269978   3.077   5.847  14.228  0.9043 -0.2890 -0.2326
16188TIP3    H169979   3.132   5.850  14.150  0.9957  0.5473 -0.1366
16188TIP3    H269980   3.103   5.923  14.280  0.6874 -0.7068  0.5097
16189TIP3   OH269981   5.710   6.663   2.298 -0.1141  0.3007  0.1602
16189TIP3    H169982   5.760   6.639   2.376  0.0225  2.0796  0.6591
16189TIP3    H269983   5.647   6.592   2.288  1.8884 -1.5707  0.0221
16190TIP3   OH269984   6.233   6.590  12.578  0.0566  0.3348 -0.5320
16190TIP3    H169985   6.173   6.603  12.652  1.6671  1.5007  0.6788
16190TIP3    H269986   6.244   6.678  12.541  0.2224 -0.0339 -1.3655
16191TIP3   OH269987   4.817   3.151  13.046  0.2753 -0.0859  0.4812
16191TIP3    H169988   4.817   3.071  12.993 -0.9442  0.8274 -0.9845
16191TIP3    H269989   4.910   3.168  13.063  0.6737 -0.7364 -0.8781
16192TIP3   OH269990   0.461   0.756  13.277  0.7316  0.4762  0.3775
16192TIP3    H169991   0.399   0.747  13.350  1.3586  0.2854  0.8952
16192TIP3    H269992   0.407   0.789  13.204 -0.0743 -0.1623  0.6637
16193TIP3   OH269993   2.978   6.409   0.082  0.2504  0.2087  0.2921
16193TIP3    H169994   3.003   6.498   0.058 -0.1044  0.3543  0.4555
16193TIP3    H269995   2.984   6.407   0.178  0.1898  0.0774  0.2945
16194TIP3   OH269996   1.481   3.585  12.808  0.0210  0.3030  0.4242
16194TIP3    H169997   1.557   3.627  12.768 -0.2385  1.0758  0.7192
16194TIP3    H269998   1.428   3.557  12.734 -0.7998  2.3508  0.1616
16195TIP3   OH269999   6.691   6.639   4.245 -0.0873  0.0234  0.1935
16195TIP3    H170000   6.600   6.666   4.233  0.0217  0.3779  0.1441
16195TIP3    H270001   6.686   6.551   4.282 -0.4525  0.1465  0.4415
16196TIP3   OH270002   5.083   2.126  14.750 -0.6564 -0.1870  0.3887
16196TIP3    H170003   5.042   2.194  14.803  1.3108  0.3287  1.3363
16196TIP3    H270004   5.021   2.111  14.678 -2.1910  0.9395  1.4034
16197TIP3   OH270005   0.882   5.116   2.938  0.0091  0.5532  0.1956
16197TIP3    H170006   0.858   5.132   2.847 -3.0398  0.4697  0.8868
16197TIP3    H270007   0.924   5.030   2.937  0.6857  0.8723 -1.1841
16198TIP3   OH270008   3.378   0.766   1.294 -1.1471 -0.3090 -0.2760
16198TIP3    H170009   3.302   0.774   1.352 -0.3784  0.0943  0.7095
16198TIP3    H270010   3.420   0.852   1.298  0.4902 -1.1049  0.8413
16199TIP3   OH270011   6.238   5.740   1.737  0.2651 -0.6664  0.0949
16199TIP3    H170012   6.248   5.818   1.792  3.6798 -1.1935  0.4036
16199TIP3    H270013   6.194   5.676   1.794  1.1154 -0.2574  1.2477
16200TIP3   OH270014   0.607   1.598   5.813  0.3657 -0.6047 -0.7132
16200TIP3    H170015   0.610   1.532   5.745 -0.6538 -1.0078 -0.3842
16200TIP3    H270016   0.611   1.549   5.895  0.5954 -0.1928 -0.4703
16201TIP3   OH270017   5.402   2.845   4.651 -0.1058  0.0810 -0.1076
16201TIP3    H170018   5.315   2.859   4.688 -0.7175 -1.4839 -0.8693
16201TIP3    H270019   5.421   2.924   4.602 -1.6344 -0.0247 -0.9209
16202TIP3   OH270020   6.373   5.910  13.912  0.7063 -0.1120 -0.0657
16202TIP3    H170021   6.450   5.922  13.855 -0.3608  1.0198 -1.3429
16202TIP3    H270022   6.316   5.984  13.891 -0.6678 -0.8185  0.9909
16203TIP3   OH270023   3.753   6.549  13.049  0.6011  0.1753  0.3173
16203TIP3    H170024   3.783   6.623  12.996 -0.3454 -0.3005 -0.9297
16203TIP3    H270025   3.659   6.544  13.031  0.7427 -1.6643 -0.0805
16204TIP3   OH270026   0.636   5.740   1.441 -0.3048 -0.5774  0.9250
16204TIP3    H170027   0.569   5.786   1.491  0.2325  0.3135  0.8440
16204TIP3    H270028   0.617   5.647   1.455 -1.6995 -0.3532  0.6992
16205TIP3   OH270029   6.326   5.231   2.865  0.3674 -0.1434 -0.1858
16205TIP3    H170030   6.297   5.156   2.917  0.2468  1.2540  1.8993
16205TIP3    H270031   6.245   5.270   2.833  0.4271 -0.8176 -1.2109
16206TIP3   OH270032   1.341   1.267   2.917 -0.3982 -0.0438  0.8789
16206TIP3    H170033   1.254   1.303   2.934 -1.3752 -1.3535 -0.9647
16206TIP3    H270034   1.381   1.328   2.854 -1.1976 -0.9805 -0.5755
16207TIP3   OH270035   1.952   3.565   2.036  0.1313  0.3209  0.0406
16207TIP3    H170036   2.018   3.600   2.095  0.7625  0.4834 -0.7557
16207TIP3    H270037   1.973   3.472   2.029  0.7080  0.5006 -0.7515
16208TIP3   OH270038   2.298   2.173   3.108 -0.2451 -0.4351 -0.1371
16208TIP3    H170039   2.268   2.097   3.057 -0.5703  0.3278 -1.1243
16208TIP3    H270040   2.225   2.235   3.103  0.3794  0.3173 -0.1527
16209TIP3   OH270041   0.602   3.968  17.252  0.4222 -0.2165 -0.3250
16209TIP3    H170042   0.508   3.958  17.266  0.6163  0.5397  2.0336
16209TIP3    H270043   0.618   4.062  17.260  1.6818 -0.5519  2.1742
16210TIP3   OH270044   3.756   3.252   4.794 -0.2488 -0.1711  0.0971
16210TIP3    H170045   3.758   3.312   4.869  0.4087  0.5016 -0.4375
16210TIP3    H270046   3.835   3.199   4.805  0.8163  1.1036 -1.0202
16211TIP3   OH270047   6.384   0.329  12.604  0.0317 -0.3614  0.4394
16211TIP3    H170048   6.314   0.351  12.665  0.2256  0.2207  0.4556
16211TIP3    H270049   6.461   0.372  12.640  0.4236 -1.1001  0.4844
16212TIP3   OH270050   3.170   3.524   7.072  0.0259  0.0379  0.2068
16212TIP3    H170051   3.095   3.540   7.014  0.3961 -0.0393 -0.2959
16212TIP3    H270052   3.246   3.551   7.022  0.7616 -3.5289 -0.8893
16213TIP3   OH270053   3.068   2.771  15.782 -0.0212 -0.5232  0.0940
16213TIP3    H170054   2.992   2.724  15.748 -0.7475 -0.2223  1.2441
16213TIP3    H270055   3.055   2.862  15.756  0.5910 -0.6785 -0.7835
16214TIP3   OH270056   4.131   1.377   6.406 -0.1841  0.5917  0.1278
16214TIP3    H170057   4.170   1.453   6.448  0.2786  0.8411 -0.7207
16214TIP3    H270058   4.206   1.324   6.378 -0.4565 -1.4204  2.7828
16215TIP3   OH270059   1.724   1.174  16.749 -0.2592  0.5472  0.3671
16215TIP3    H170060   1.815   1.181  16.779 -0.2716 -0.7372  0.7605
16215TIP3    H270061   1.727   1.110  16.678 -0.9326  0.0387  0.7838
16216TIP3   OH270062   4.140   0.046  13.508 -0.4185  0.9305 -0.1300
16216TIP3    H170063   4.213   0.103  13.533  0.7049 -0.7111  0.5752
16216TIP3    H270064   4.146   0.040  13.413  1.0348  0.0542 -0.0228
16217TIP3   OH270065   1.749   2.240  12.117 -0.2674 -0.6946 -0.3187
16217TIP3    H170066   1.662   2.257  12.078  0.1347  0.1317 -0.9002
16217TIP3    H270067   1.810   2.251  12.044  0.4213 -0.1283  0.3307
16218TIP3   OH270068   5.078   2.801  12.636  0.0221  0.2516 -0.3719
16218TIP3    H170069   5.159   2.760  12.666  0.2595  0.9629 -0.0391
16218TIP3    H270070   5.105   2.855  12.561 -0.2235  0.1345 -0.5478
16219TIP3   OH270071   2.976   2.324  11.008 -0.3106 -0.0075 -0.0596
16219TIP3    H170072   2.921   2.401  10.992 -0.0978  0.2213  0.3013
16219TIP3    H270073   2.943   2.258  10.948 -0.8067  0.2168 -0.0347
16220TIP3   OH270074   4.266   4.114   4.102 -0.0776 -0.1822 -0.0432
16220TIP3    H170075   4.254   4.037   4.158  0.3073 -0.2067  0.0059
16220TIP3    H270076   4.251   4.189   4.160  0.1279 -0.2114  0.0482
16221TIP3   OH270077   0.543   6.269  14.492  0.1703 -0.5773 -0.7444
16221TIP3    H170078   0.542   6.337  14.560 -0.9789 -0.7675 -0.5514
16221TIP3    H270079   0.582   6.193  14.535 -4.2561 -2.1171  1.2222
16222TIP3   OH270080   3.654   5.389  11.680 -0.7605  0.3889 -0.1791
16222TIP3    H170081   3.707   5.434  11.746 -2.5484  2.6010 -0.0863
16222TIP3    H270082   3.615   5.315  11.727  2.2265 -1.4114 -0.3045
16223TIP3   OH270083   0.103   5.048  14.474  0.5087  0.5582  0.0858
16223TIP3    H170084   0.126   5.109  14.544 -0.9602  0.9701  0.2444
16223TIP3    H270085   0.026   5.087  14.432 -0.1207 -0.8860 -0.1868
16224TIP3   OH270086   1.096   1.923  16.548 -0.1644  0.2861 -0.5080
16224TIP3    H170087   1.117   1.991  16.485 -0.3285  0.1154 -0.7486
16224TIP3    H270088   1.162   1.855  16.535  0.4845  0.7541  0.2850
16225TIP3   OH270089   3.482   5.305   3.553  0.3176 -0.9926 -0.2180
16225TIP3    H170090   3.404   5.309   3.608  0.6893  2.0499  0.2183
16225TIP3    H270091   3.550   5.270   3.610 -0.2586 -1.9585 -0.0859
16226TIP3   OH270092   4.638   1.640   1.838  0.1363  0.1003 -0.3861
16226TIP3    H170093   4.665   1.678   1.755  1.5007 -1.5096 -0.7262
16226TIP3    H270094   4.553   1.680   1.857  0.7542  2.0244 -1.5062
16227TIP3   OH270095   4.648   4.765   4.692  0.6496  0.3476  0.1593
16227TIP3    H170096   4.700   4.841   4.719  1.8948 -0.2858 -0.3321
16227TIP3    H270097   4.654   4.764   4.597  0.3698 -0.1766  0.1412
16228TIP3   OH270098   1.200   3.627   4.415  0.2523 -0.0235 -0.2615
16228TIP3    H170099   1.218   3.707   4.464 -1.3203  0.5745 -0.5996
16228TIP3    H270100   1.196   3.655   4.323 -0.5422 -0.4322 -0.3613
16229TIP3   OH270101   5.384   5.913  14.300 -0.3442 -0.2097  0.1393
16229TIP3    H170102   5.460   5.933  14.245 -0.3488  0.0706  0.2332
16229TIP3    H270103   5.398   5.823  14.328 -0.2067 -0.2659 -0.1046
16230TIP3   OH270104   5.838   5.215   3.496 -0.0144 -0.3761  0.2607
16230TIP3    H170105   5.896   5.290   3.502 -0.3072 -0.1367  0.0906
16230TIP3    H270106   5.752   5.249   3.519  0.2527 -1.1724  2.6918
16231TIP3   OH270107   0.302   6.686   1.556 -0.2324  0.1701 -0.0738
16231TIP3    H170108   0.314   6.628   1.481 -1.9980  0.4281 -0.5967
16231TIP3    H270109   0.365   6.756   1.542 -0.6584  0.3095 -1.4251
16232TIP3   OH270110   4.249   3.574  15.532  0.1646  0.4079  0.1983
16232TIP3    H170111   4.240   3.569  15.437  4.5901 -0.3395 -0.3884
16232TIP3    H270112   4.307   3.648  15.547  0.4468 -0.1636  2.2031
16233TIP3   OH270113   5.588   3.046  15.745 -0.2141  0.6410  0.1393
16233TIP3    H170114   5.654   3.008  15.803  0.5439 -0.1067 -1.1662
16233TIP3    H270115   5.610   3.139  15.741 -0.6622  0.8330  1.5176
16234TIP3   OH270116   6.340   0.168   2.945  0.5371  0.0773 -0.3175
16234TIP3    H170117   6.287   0.092   2.920  1.1687 -0.6862  0.6294
16234TIP3    H270118   6.277   0.230   2.982  0.1814 -0.4795  0.0176
16235TIP3   OH270119   5.824   5.945   1.285 -0.0228 -0.2804  0.2365
16235TIP3    H170120   5.759   5.950   1.215 -1.2404  0.5569  1.3710
16235TIP3    H270121   5.907   5.930   1.240 -0.7257  0.4990 -1.4016
16236TIP3   OH270122   1.589   6.187  17.111  0.1311 -0.0444  0.0907
16236TIP3    H170123   1.600   6.242  17.033  1.4939 -0.4886 -0.0532
16236TIP3    H270124   1.627   6.103  17.086  0.0174 -0.3817  1.0353
16237TIP3   OH270125   5.015   1.459  15.422 -0.1520 -0.2927 -0.7923
16237TIP3    H170126   5.027   1.475  15.516  3.8974  0.5869 -1.2749
16237TIP3    H270127   5.067   1.381  15.404 -1.2815 -0.7498 -2.2546
16238TIP3   OH270128   6.131   3.967  13.344  0.3692 -0.0655  0.3813
16238TIP3    H170129   6.047   3.933  13.314  0.7237 -0.0134 -0.7366
16238TIP3    H270130   6.109   4.033  13.410 -0.4476 -0.3307  0.3798
16239TIP3   OH270131   6.061   5.596  14.139  0.1033  0.3939 -0.5672
16239TIP3    H170132   6.045   5.584  14.046 -1.7833  0.1773 -0.2454
16239TIP3    H270133   6.005   5.670  14.164 -1.4840 -1.2286  0.9001
16240TIP3   OH270134   2.156   3.776   0.869 -0.4891  0.6677  0.3541
16240TIP3    H170135   2.076   3.738   0.833 -0.8490  1.2658  0.5158
16240TIP3    H270136   2.185   3.838   0.802 -0.1412  0.4299  0.2816
16241TIP3   OH270137   5.919   0.560  14.508  0.4085  0.8219 -0.8776
16241TIP3    H170138   5.877   0.554  14.593 -0.5791 -1.0275 -1.4389
16241TIP3    H270139   5.858   0.610  14.454  0.3172  0.6859 -0.9002
16242TIP3   OH270140   0.060   4.729  13.108  0.2073  0.2265  0.2200
16242TIP3    H170141   0.123   4.696  13.043 -0.7902  1.6230 -1.5551
16242TIP3    H270142   0.072   4.824  13.107  0.4985  0.2650  2.5034
16243TIP3   OH270143   3.053   0.593  14.555  0.1360  0.6618  0.0322
16243TIP3    H170144   3.033   0.506  14.519  0.9103  0.5585 -0.1733
16243TIP3    H270145   2.974   0.645  14.539 -0.1838  0.1073 -0.2049
16244TIP3   OH270146   1.731   6.230   6.012  0.0634  0.2659  0.0394
16244TIP3    H170147   1.694   6.266   5.932  0.8137  1.1415  0.0666
16244TIP3    H270148   1.713   6.136   6.007 -1.3673  0.5365 -0.3497
16245TIP3   OH270149   3.109   6.209  13.332 -0.7631 -0.2637 -0.2676
16245TIP3    H170150   3.185   6.167  13.372 -0.6037  0.5004  0.2462
16245TIP3    H270151   3.068   6.139  13.281 -0.2671 -0.9323  0.2220
16246TIP3   OH270152   3.583   0.908  15.566 -0.1296 -0.4079 -0.3342
16246TIP3    H170153   3.651   0.849  15.535  0.5927 -1.0440  2.2447
16246TIP3    H270154   3.501   0.863  15.547  0.3070 -1.0396 -0.7366
16247TIP3   OH270155   0.406   0.366   1.003  0.0604 -0.2313 -0.4654
16247TIP3    H170156   0.323   0.411   1.017 -0.2399 -0.9956  0.2582
16247TIP3    H270157   0.443   0.356   1.091  0.7594 -0.2129 -0.7469
16248TIP3   OH270158   3.530   2.562  16.385  0.3160 -0.1022 -0.3589
16248TIP3    H170159   3.624   2.550  16.399  0.7422  1.3948 -1.6018
16248TIP3    H270160   3.504   2.487  16.331  1.1438  0.2488 -1.2763
16249TIP3   OH270161   6.533   6.289   5.950  0.3772  0.4757 -0.4659
16249TIP3    H170162   6.486   6.359   5.996  1.5257  0.8256  0.1997
16249TIP3    H270163   6.518   6.308   5.857 -2.4907 -0.5912 -0.3484
16250TIP3   OH270164   4.134   1.608   0.529 -0.4227  0.2375  0.2595
16250TIP3    H170165   4.106   1.537   0.587 -3.0833  1.6314  0.8841
16250TIP3    H270166   4.056   1.662   0.519  1.8317  4.0164  1.1665
16251TIP3   OH270167   6.608   1.428  15.593  0.1238 -0.0571 -0.0750
16251TIP3    H170168   6.637   1.389  15.510  0.5341  0.3713 -0.1380
16251TIP3    H270169   6.655   1.378  15.660  0.9101  0.5228 -0.1700
16252TIP3   OH270170   1.593   0.830   1.203 -0.7631  0.0837 -0.4652
16252TIP3    H170171   1.638   0.746   1.208 -1.4455 -0.2589  0.1912
16252TIP3    H270172   1.647   0.883   1.145  1.4691  0.3255  1.6693
16253TIP3   OH270173   2.324   2.191   4.392 -0.6130  0.7516 -0.4289
16253TIP3    H170174   2.235   2.203   4.360 -1.3898 -1.6915  0.5298
16253TIP3    H270175   2.339   2.096   4.385  1.2137  0.8721  1.1195
16254TIP3   OH270176   4.242   2.502   4.150 -0.4192 -0.2382  0.6280
16254TIP3    H170177   4.205   2.470   4.233  0.9453 -0.4998  1.1677
16254TIP3    H270178   4.335   2.478   4.155 -0.5664 -1.4222 -1.5675
16255TIP3   OH270179   4.969   2.247   5.238  0.1353  0.8781 -0.2351
16255TIP3    H170180   4.988   2.258   5.145  0.3082 -1.8611 -0.6139
16255TIP3    H270181   4.873   2.246   5.242  0.1244 -0.0015 -0.5521
16256TIP3   OH270182   0.753   6.466  14.928  0.4840 -0.2137 -0.4083
16256TIP3    H170183   0.760   6.561  14.918  1.3686 -0.4050 -1.7575
16256TIP3    H270184   0.700   6.438  14.854 -0.0090 -0.7576  0.1379
16257TIP3   OH270185   6.479   6.590   0.305  0.3156  0.7453  0.6775
16257TIP3    H170186   6.479   6.629   0.218 -0.6337 -0.3014  0.1736
16257TIP3    H270187   6.534   6.647   0.358 -1.2966  2.9843  0.0800
16258TIP3   OH270188   1.782   4.523  13.010 -0.2094  0.0111 -0.1452
16258TIP3    H170189   1.753   4.583  13.079  0.5031 -0.0509  0.2094
16258TIP3    H270190   1.707   4.519  12.950 -1.6119 -1.4469  1.5798
16259TIP3   OH270191   5.817   4.768  16.037 -0.0207 -0.3542 -0.1664
16259TIP3    H170192   5.905   4.800  16.015 -0.4223 -0.2440 -1.7332
16259TIP3    H270193   5.796   4.706  15.967 -0.8034 -1.1210  0.7335
16260TIP3   OH270194   0.678   3.799   1.588 -0.0552 -0.1407  0.2059
16260TIP3    H170195   0.730   3.723   1.612 -1.9520 -1.1043  1.5477
16260TIP3    H270196   0.627   3.770   1.513  0.4139  0.3765 -0.3186
16261TIP3   OH270197   4.741   3.254   1.029  0.3761  0.4108  0.2730
16261TIP3    H170198   4.796   3.202   0.971  2.1563  3.1218 -0.6830
16261TIP3    H270199   4.786   3.253   1.113 -0.1276 -0.3740  0.5389
16262TIP3   OH270200   1.320   0.311   0.563 -0.8075 -0.2848  0.1828
16262TIP3    H170201   1.364   0.228   0.582  1.7554  0.6086 -1.3058
16262TIP3    H270202   1.316   0.314   0.467 -3.1422  0.2676  0.2293
16263TIP3   OH270203   6.035   6.414   5.384 -0.1945 -0.2396  0.7586
16263TIP3    H170204   6.108   6.363   5.421 -0.7987 -1.8354 -0.1671
16263TIP3    H270205   6.021   6.485   5.448  1.2036 -0.7479  1.6834
16264TIP3   OH270206   3.790   3.963  16.681  0.0639 -0.3666 -0.1503
16264TIP3    H170207   3.769   3.913  16.602 -0.5901  0.9396 -0.8192
16264TIP3    H270208   3.821   3.897  16.743 -0.4455 -1.5540 -1.1237
16265TIP3   OH270209   4.813   5.143  13.022  0.8921 -0.4682  0.5725
16265TIP3    H170210   4.848   5.059  12.991  2.0400  0.2027 -0.0037
16265TIP3    H270211   4.887   5.184  13.067  1.0294  1.1853 -1.0647
16266TIP3   OH270212   1.312   4.674   5.671  0.4930 -0.0372 -0.3787
16266TIP3    H170213   1.278   4.667   5.582  1.1776 -1.1873 -0.5689
16266TIP3    H270214   1.324   4.583   5.699 -0.2954  0.2996  1.1237
16267TIP3   OH270215   4.689   0.866   4.436  0.1807 -0.1784 -0.1837
16267TIP3    H170216   4.721   0.856   4.525  0.0753  0.5378 -0.0649
16267TIP3    H270217   4.666   0.958   4.428 -0.7453 -0.4322 -0.6338
16268TIP3   OH270218   6.180   1.279   3.131  0.7980  0.5898  0.2334
16268TIP3    H170219   6.262   1.302   3.174  0.4772  1.8212  0.2302
16268TIP3    H270220   6.189   1.186   3.110  3.5052  1.2960 -2.5618
16269TIP3   OH270221   1.104   1.324  12.847 -0.1231  0.2916 -0.0642
16269TIP3    H170222   1.136   1.304  12.759  1.4910 -0.0034  0.5530
16269TIP3    H270223   1.183   1.332  12.900 -1.0147 -3.0017  2.1151
16270TIP3   OH270224   1.544   3.894  16.524  0.7431 -0.0527 -0.8236
16270TIP3    H170225   1.480   3.885  16.595  1.0322  2.0564 -0.2257
16270TIP3    H270226   1.586   3.808  16.518  0.2139 -0.4865  1.0927
16271TIP3   OH270227   1.047   3.647   5.617  0.6306 -0.0041  0.1247
16271TIP3    H170228   1.119   3.593   5.649  1.1122  1.2739  1.3180
16271TIP3    H270229   0.969   3.596   5.636  1.0971 -0.5026  0.7546
16272TIP3   OH270230   4.231   3.591   0.239  0.3688 -0.1253  0.1125
16272TIP3    H170231   4.137   3.592   0.224  0.5927 -0.4675 -1.5022
16272TIP3    H270232   4.241   3.616   0.331 -1.2295  1.0003  0.0254
16273TIP3   OH270233   6.492   5.893   4.269  0.4696  0.2231 -0.0825
16273TIP3    H170234   6.487   5.814   4.215  0.4617 -0.4557  0.8973
16273TIP3    H270235   6.431   5.954   4.227  0.3320 -0.3527 -0.7413
16274TIP3   OH270236   3.043   3.621  11.910 -0.0692  0.1663  0.0187
16274TIP3    H170237   2.992   3.551  11.950  0.7964 -1.5900 -1.8141
16274TIP3    H270238   2.977   3.683  11.878 -0.8206  1.0337  2.8879
16275TIP3   OH270239   1.026   4.226  13.504 -0.2728 -0.1223  0.8290
16275TIP3    H170240   1.012   4.311  13.546 -1.7155 -0.8290  1.8461
16275TIP3    H270241   1.047   4.247  13.413  0.5406  1.3497  1.3298
16276TIP3   OH270242   3.722   6.107  12.595 -0.3165  0.4477 -0.5075
16276TIP3    H170243   3.810   6.070  12.592 -1.2485 -2.1568  1.2570
16276TIP3    H270244   3.669   6.049  12.540 -1.2223  1.1026 -0.3572
16277TIP3   OH270245   2.274   1.368   3.913  0.1926 -0.0700 -0.5242
16277TIP3    H170246   2.336   1.375   3.841  0.7018  1.6684  0.0252
16277TIP3    H270247   2.239   1.456   3.923  0.0061 -0.3067  1.2344
16278TIP3   OH270248   1.325   3.867   4.508 -0.0709  0.1390 -0.2413
16278TIP3    H170249   1.387   3.833   4.444 -0.1651  3.2597 -2.1873
16278TIP3    H270250   1.374   3.934   4.555 -0.4113 -1.1848  2.1655
16279TIP3   OH270251   6.124   1.319   5.970  0.5797  0.4751 -0.2181
16279TIP3    H170252   6.123   1.229   6.005 -0.0013  0.5964  0.0958
16279TIP3    H270253   6.164   1.310   5.884  0.2797 -0.1302 -0.3030
16280TIP3   OH270254   0.009   6.486  11.250 -0.0504  0.1999 -0.5249
16280TIP3    H170255   0.008   6.572  11.207  0.7025  0.2160 -0.5214
16280TIP3    H270256  -0.071   6.443  11.218  0.6424  0.0816 -2.2261
16281TIP3   OH270257   4.192   1.863   5.086  0.1476 -0.3817 -0.3708
16281TIP3    H170258   4.107   1.876   5.044  0.3672  0.4350 -0.5807
16281TIP3    H270259   4.172   1.818   5.168 -0.5062 -0.0443 -0.3416
16282TIP3   OH270260   4.951   1.714   2.326  0.4137 -0.0130  0.0862
16282TIP3    H170261   4.925   1.690   2.415 -0.8449 -1.3745 -0.6030
16282TIP3    H270262   5.047   1.714   2.328  0.4127 -0.8621  1.2329
16283TIP3   OH270263   2.837   5.539  14.673 -0.0904 -0.2131 -0.1628
16283TIP3    H170264   2.803   5.531  14.584  1.8487 -3.1330 -0.7948
16283TIP3    H270265   2.769   5.502  14.729 -0.6681  0.1671 -0.6118
16284TIP3   OH270266   1.111   5.698   1.632 -0.4897 -0.0837  0.3375
16284TIP3    H170267   1.183   5.725   1.575  0.3002  0.7814  1.6680
16284TIP3    H270268   1.033   5.709   1.579  0.3177 -0.6590 -1.0229
16285TIP3   OH270269   2.166   2.754  11.782 -0.0773 -0.2906 -0.2177
16285TIP3    H170270   2.133   2.674  11.823 -1.4829  0.0763 -0.5627
16285TIP3    H270271   2.087   2.801  11.755  0.7442  0.1932 -1.9589
16286TIP3   OH270272   4.545   1.751  17.384 -0.3707 -0.3483  0.9692
16286TIP3    H170273   4.520   1.837  17.419 -2.1309  0.1483 -1.2629
16286TIP3    H270274   4.492   1.689  17.434 -1.2125  0.1403  0.7113
16287TIP3   OH270275   5.924   4.822  13.142 -0.3904  0.4887  0.4276
16287TIP3    H170276   5.847   4.879  13.146 -0.8732 -0.0878 -0.2769
16287TIP3    H270277   5.926   4.793  13.051  1.8783  2.1268 -0.1428
16288TIP3   OH270278   2.427   4.994   6.216 -0.5874 -0.0501 -0.3654
16288TIP3    H170279   2.482   5.053   6.268  2.5857 -0.6742 -2.7357
16288TIP3    H270280   2.391   4.934   6.280  0.1119  1.4312  1.5353
16289TIP3   OH270281   4.680   1.034  14.697 -0.9496  0.8375 -0.6397
16289TIP3    H170282   4.776   1.033  14.695 -0.8848 -1.2272  0.5297
16289TIP3    H270283   4.656   1.122  14.668  1.2800  1.2926 -1.2867
16290TIP3   OH270284   2.571   0.231  15.427  0.3866  0.0869  0.2724
16290TIP3    H170285   2.629   0.251  15.500  0.8888 -1.4957  0.3406
16290TIP3    H270286   2.570   0.135  15.422 -0.3277  0.1388 -1.2469
16291TIP3   OH270287   6.557   5.767  12.580  0.5301 -0.0137  0.7052
16291TIP3    H170288   6.607   5.848  12.568  3.0461 -1.5167  0.3100
16291TIP3    H270289   6.612   5.698  12.542 -2.0290 -1.8097 -0.0377
16292TIP3   OH270290   4.045   2.762   1.460  0.7130  0.2031 -0.4205
16292TIP3    H170291   4.121   2.777   1.404  0.2301 -2.3846 -1.9135
16292TIP3    H270292   4.082   2.733   1.543  1.3893  0.6353 -0.5646
16293TIP3   OH270293   5.375   1.888  16.887 -0.1761 -0.6480  0.0967
16293TIP3    H170294   5.332   1.802  16.883  0.1216 -0.7888 -0.1716
16293TIP3    H270295   5.463   1.872  16.853 -0.2102 -0.1761 -0.2306
16294TIP3   OH270296   2.921   3.806  12.802  0.4870 -0.3428  0.2848
16294TIP3    H170297   2.986   3.873  12.780 -1.3288  1.3916 -0.1207
16294TIP3    H270298   2.885   3.779  12.718  0.7389 -1.3504  0.4932
16295TIP3   OH270299   3.407   0.451   1.167 -0.0838 -0.0463 -0.5263
16295TIP3    H170300   3.366   0.471   1.251  0.7896 -1.2400  0.2153
16295TIP3    H270301   3.430   0.537   1.131 -0.3866  0.4816  0.4944
16296TIP3   OH270302   5.841   0.294   3.956 -0.5126  0.4760  0.1731
16296TIP3    H170303   5.928   0.255   3.965 -0.0014  1.5993  0.3529
16296TIP3    H270304   5.784   0.222   3.929  0.6461 -0.0877 -0.8257
16297TIP3   OH270305   5.393   0.263   6.527 -0.4588 -0.2934 -0.0171
16297TIP3    H170306   5.305   0.293   6.506 -1.3920 -0.9133  2.5527
16297TIP3    H270307   5.389   0.168   6.518  0.0383 -0.2973 -0.2081
16298TIP3   OH270308   5.495   1.768   2.362 -0.4417 -0.6173 -0.0972
16298TIP3    H170309   5.533   1.832   2.302  1.6667 -0.9781  0.7646
16298TIP3    H270310   5.535   1.787   2.447 -3.8348  0.3288  1.4697
16299TIP3   OH270311   1.262   4.083  16.607  0.0873 -0.0775  0.3561
16299TIP3    H170312   1.299   4.043  16.529  1.0323  1.1438  0.1427
16299TIP3    H270313   1.172   4.049  16.612 -0.3277  0.5608 -1.8083
16300TIP3   OH270314   2.507   2.527   1.015 -0.1552  0.3746 -0.1862
16300TIP3    H170315   2.463   2.603   1.052  1.1148  0.6537  0.8226
16300TIP3    H270316   2.600   2.544   1.029  0.2500 -0.5466 -1.5610
16301TIP3   OH270317   0.503   3.299   0.079  0.3696 -0.0604  0.5269
16301TIP3    H170318   0.468   3.355   0.010 -0.5675 -1.3317 -0.0748
16301TIP3    H270319   0.589   3.272   0.047  0.6473  0.6870  0.6315
16302TIP3   OH270320   3.267   4.866   0.849  0.3134 -0.1204 -0.3259
16302TIP3    H170321   3.253   4.913   0.767  0.1157  0.1173 -0.1598
16302TIP3    H270322   3.360   4.876   0.867  0.1637  0.7689  0.0376
16303TIP3   OH270323   1.859   0.445  13.437  0.0724 -0.0491 -0.1617
16303TIP3    H170324   1.800   0.446  13.361 -1.9585 -0.8160  1.2966
16303TIP3    H270325   1.843   0.528  13.481  0.9733  0.2427 -0.3812
16304TIP3   OH270326   2.992   0.208  14.788 -0.1127 -0.2971  0.1269
16304TIP3    H170327   2.922   0.223  14.724 -0.6352 -0.0228  0.7524
16304TIP3    H270328   3.026   0.121  14.766 -0.5550 -0.3754 -0.2701
16305TIP3   OH270329   6.257   3.231   1.808  0.0198 -0.6095 -0.1791
16305TIP3    H170330   6.243   3.258   1.717 -0.0817  0.0296  0.0178
16305TIP3    H270331   6.172   3.245   1.850 -0.1458 -1.6271 -0.1549
16306TIP3   OH270332   2.321   0.375  13.750 -0.2136 -0.5217 -0.4712
16306TIP3    H170333   2.365   0.431  13.815 -0.6304 -0.3365 -0.3403
16306TIP3    H270334   2.377   0.379  13.673  1.0655 -1.9200  0.3395
16307TIP3   OH270335   6.145   3.472  12.246 -1.0476 -0.3512  0.3027
16307TIP3    H170336   6.087   3.418  12.193 -1.9146 -0.0246  0.8994
16307TIP3    H270337   6.231   3.462  12.205 -1.2045 -2.0794  0.3205
16308TIP3   OH270338   3.068   4.534   1.199  0.3153  0.3247  0.0491
16308TIP3    H170339   3.103   4.459   1.247  0.3394 -0.0170 -0.4902
16308TIP3    H270340   3.131   4.547   1.128 -0.3446  0.0707 -0.5902
16309TIP3   OH270341   1.249   4.062   2.890  0.6234  0.5830 -0.4068
16309TIP3    H170342   1.227   4.103   2.806  1.3150  0.5110 -0.6269
16309TIP3    H270343   1.189   4.103   2.953 -0.2014  0.3095 -1.0062
16310TIP3   OH270344   2.678   3.672   5.015 -0.1554 -0.5492 -0.6569
16310TIP3    H170345   2.771   3.656   5.028  0.2265  1.7086 -0.2016
16310TIP3    H270346   2.639   3.585   5.011  1.4690 -1.6482  2.8859
16311TIP3   OH270347   4.345   4.553   5.857 -0.7102  0.1325 -0.2848
16311TIP3    H170348   4.333   4.566   5.763 -1.3319 -0.4356 -0.2861
16311TIP3    H270349   4.440   4.554   5.869 -0.5448 -1.5524 -1.1893
16312TIP3   OH270350   1.049   1.040   2.087  0.4374  0.3210  0.8176
16312TIP3    H170351   1.111   0.981   2.044  0.3818  0.1391  0.9895
16312TIP3    H270352   1.101   1.120   2.104  1.2445 -0.5474  2.8262
16313TIP3   OH270353   3.498   2.217   3.740 -0.0708  0.9801  0.9647
16313TIP3    H170354   3.403   2.205   3.745 -0.3370  0.4340 -2.7624
16313TIP3    H270355   3.509   2.311   3.732 -0.5122  0.9593 -0.2362
16314TIP3   OH270356   6.110   3.938   4.334 -0.3090  0.3434 -0.3095
16314TIP3    H170357   6.033   3.929   4.390  0.3540  0.3271  0.6359
16314TIP3    H270358   6.150   3.851   4.334 -0.9176  0.0335 -1.7759
16315TIP3   OH270359   5.718   0.255   0.623  0.2509  0.7422 -0.0086
16315TIP3    H170360   5.767   0.294   0.696  0.2737  0.2573  0.2417
16315TIP3    H270361   5.627   0.279   0.640 -0.1284 -1.5153  1.6376
16316TIP3   OH270362   2.746   1.273  13.841 -0.3443 -0.4829 -0.1575
16316TIP3    H170363   2.831   1.270  13.886  0.6723  0.5277 -1.8957
16316TIP3    H270364   2.718   1.181  13.838  0.6990 -0.8484  0.4336
16317TIP3   OH270365   3.745   3.200  12.913  0.2594  0.1319 -0.5020
16317TIP3    H170366   3.651   3.184  12.919  0.1219  1.2356  0.5229
16317TIP3    H270367   3.755   3.294  12.928  1.4920  0.1203 -1.0937
16318TIP3   OH270368   1.182   1.594   4.447  0.1524 -0.3319  0.5281
16318TIP3    H170369   1.235   1.551   4.381  1.3161 -1.9581  2.4224
16318TIP3    H270370   1.216   1.684   4.451 -0.7361  0.1830 -1.8169
16319TIP3   OH270371   4.611   1.750  15.691 -0.1030 -0.3447 -0.3656
16319TIP3    H170372   4.607   1.680  15.756 -1.0646  0.4506  0.4629
16319TIP3    H270373   4.609   1.831  15.743  1.4670  0.3141 -1.2757
16320TIP3   OH270374   0.456   4.310   4.275 -0.1757 -0.0566  0.2553
16320TIP3    H170375   0.464   4.320   4.369 -0.2799  1.3106  0.1492
16320TIP3    H270376   0.368   4.273   4.262 -0.1433 -0.2869  0.6922
16321TIP3   OH270377   0.620   3.347  13.380  0.0954 -0.1880  0.2398
16321TIP3    H170378   0.541   3.300  13.406  0.0229 -1.7795 -2.4866
16321TIP3    H270379   0.595   3.440  13.385 -1.2043 -0.5627  1.4576
16322TIP3   OH270380   5.298   1.986   2.816 -0.3758  0.0066  0.4844
16322TIP3    H170381   5.319   1.904   2.772  2.1172  0.9520 -0.2610
16322TIP3    H270382   5.285   2.048   2.744  0.6522  0.8839  1.0325
16323TIP3   OH270383   1.515   5.625   4.931 -0.4065  0.4160 -0.5341
16323TIP3    H170384   1.557   5.669   4.857 -1.9513  0.0429 -1.6697
16323TIP3    H270385   1.558   5.539   4.936  0.0243  0.6213 -0.6957
16324TIP3   OH270386   1.298   3.843   1.064 -0.1859 -0.5578 -0.7468
16324TIP3    H170387   1.235   3.817   1.131 -0.2206  0.1717 -0.4885
16324TIP3    H270388   1.371   3.881   1.113  0.5532 -1.5758 -1.0310
16325TIP3   OH270389   1.670   3.052  12.661  0.2817 -0.0376 -0.3302
16325TIP3    H170390   1.703   3.067  12.572 -0.6346  2.8719 -0.2945
16325TIP3    H270391   1.575   3.061  12.652  0.1879  0.4271  0.9605
16326TIP3   OH270392   4.484   2.746  11.442  0.1166  0.1961  0.3978
16326TIP3    H170393   4.498   2.661  11.401 -0.2353  0.2276  0.2175
16326TIP3    H270394   4.395   2.771  11.418 -0.0284  0.2996  1.0194
16327TIP3   OH270395   2.765   0.393   0.051  0.0257 -0.0556  0.4783
16327TIP3    H170396   2.689   0.350   0.012  0.0504 -0.5761  0.9814
16327TIP3    H270397   2.735   0.481   0.071 -0.0352  0.1601 -0.5448
16328TIP3   OH270398   6.649   2.646  14.885  0.1092 -0.4439  0.0269
16328TIP3    H170399   6.584   2.596  14.836  1.6658 -0.6244 -1.9617
16328TIP3    H270400   6.653   2.603  14.970 -1.1307 -1.4714 -0.4106
16329TIP3   OH270401   1.365   5.945  15.980 -0.5171 -0.1471 -0.2158
16329TIP3    H170402   1.395   5.960  16.069 -1.9953  0.8199  0.1528
16329TIP3    H270403   1.402   6.018  15.929  0.6746 -0.9314 -0.4944
16330TIP3   OH270404   1.184   0.512  10.739  0.5891 -0.2020  0.1174
16330TIP3    H170405   1.238   0.560  10.802 -1.3304  2.3310  0.0121
16330TIP3    H270406   1.129   0.455  10.793  0.1300  0.7040  0.6387
16331TIP3   OH270407   2.739   3.767  13.543 -0.5183 -0.4544  0.2174
16331TIP3    H170408   2.708   3.784  13.454 -1.5443 -1.0079  0.4529
16331TIP3    H270409   2.824   3.725  13.531  0.2178  1.1230 -0.4496
16332TIP3   OH270410   5.587   4.147  15.533 -0.3741  0.2428 -0.2156
16332TIP3    H170411   5.560   4.159  15.442  1.1215 -0.6013 -0.8125
16332TIP3    H270412   5.510   4.112  15.577 -0.6250 -1.0054 -1.5784
16333TIP3   OH270413   6.471   3.505  16.553 -0.3217 -0.7822  0.0267
16333TIP3    H170414   6.504   3.588  16.586  0.2213 -0.7093 -0.6670
16333TIP3    H270415   6.534   3.440  16.583  0.5277 -0.6371 -1.3362
16334TIP3   OH270416   5.466   0.418  13.740  0.2283 -0.3847  0.6527
16334TIP3    H170417   5.483   0.494  13.683 -1.2153 -1.5308 -1.4248
16334TIP3    H270418   5.386   0.441  13.787  1.0872  0.3027  1.8596
16335TIP3   OH270419   0.875   1.937   5.370 -0.0230 -0.2760 -0.4221
16335TIP3    H170420   0.883   1.876   5.296  1.7591 -0.7653  0.1251
16335TIP3    H270421   0.964   1.946   5.404 -0.5681  1.1078  0.7544
16336TIP3   OH270422   4.728   2.552  17.250  0.3909 -0.6331 -0.4945
16336TIP3    H170423   4.800   2.511  17.203  1.7129 -1.5530  2.1078
16336TIP3    H270424   4.673   2.480  17.280 -0.2238 -0.1139 -0.3314
16337TIP3   OH270425   1.301   4.421  13.009 -0.4263 -0.2114  0.0841
16337TIP3    H170426   1.268   4.331  13.006  1.2605 -0.8549 -0.9197
16337TIP3    H270427   1.375   4.418  13.070  0.3811  0.1959 -0.8453
16338TIP3   OH270428   6.237   0.727   1.826 -0.2010  0.0944 -1.1183
16338TIP3    H170429   6.288   0.701   1.903  0.5053 -0.2928 -1.6982
16338TIP3    H270430   6.208   0.644   1.787 -0.2361  0.2688 -1.4744
16339TIP3   OH270431   0.011   4.813  16.871 -0.2190  0.4246  0.3007
16339TIP3    H170432   0.046   4.727  16.890 -0.1248  0.5368  0.6340
16339TIP3    H270433   0.038   4.831  16.780 -1.3957 -0.4732 -0.2539
16340TIP3   OH270434   1.732   5.760  12.204 -0.2550 -0.7312 -0.4485
16340TIP3    H170435   1.668   5.822  12.239 -0.2143 -0.5025 -0.7781
16340TIP3    H270436   1.807   5.768  12.262  0.0856  0.1671 -0.9998
16341TIP3   OH270437   2.830   5.688   5.459 -0.5750  0.9489  0.3071
16341TIP3    H170438   2.836   5.781   5.439 -0.4962  1.2124  1.5299
16341TIP3    H270439   2.879   5.677   5.540 -0.0307 -0.2723 -0.1538
16342TIP3   OH270440   1.811   6.161   4.437 -0.5287  0.2028  0.1322
16342TIP3    H170441   1.793   6.118   4.353 -0.5757  2.5465 -1.1374
16342TIP3    H270442   1.907   6.162   4.443 -0.5345 -0.6717  0.5241
16343TIP3   OH270443   6.452   4.286   6.074  0.1531  0.3745 -0.2024
16343TIP3    H170444   6.493   4.272   6.159 -1.4648 -0.7984  0.4132
16343TIP3    H270445   6.412   4.372   6.080  1.9394  1.2730 -0.5998
16344TIP3   OH270446   3.558   0.727   3.592 -0.0410 -0.0311  0.0588
16344TIP3    H170447   3.523   0.741   3.680  0.2796 -1.2314  0.4001
16344TIP3    H270448   3.558   0.814   3.552  0.6045  0.6949  1.5487
16345TIP3   OH270449   1.603   4.527  11.056  0.2136 -0.1925 -0.3222
16345TIP3    H170450   1.568   4.603  11.010 -0.1430  0.6508  1.2726
16345TIP3    H270451   1.692   4.517  11.022  1.0446  2.2480  0.9147
16346TIP3   OH270452   1.678   2.854   4.632  0.0750  0.1979  0.1868
16346TIP3    H170453   1.677   2.767   4.593  1.2263 -0.2191  1.0203
16346TIP3    H270454   1.766   2.862   4.669 -0.5908  1.0217  1.6720
16347TIP3   OH270455   6.067   0.765   4.570 -0.2951  0.3374 -0.1558
16347TIP3    H170456   6.079   0.848   4.523 -0.8648  0.3519 -0.2815
16347TIP3    H270457   5.975   0.742   4.556 -0.3242  0.0442  0.4718
16348TIP3   OH270458   6.001   2.512   0.949  0.5276 -1.1768  0.1452
16348TIP3    H170459   6.094   2.496   0.959  1.4591  2.8271 -0.1559
16348TIP3    H270460   5.971   2.539   1.036  0.4063  0.3603 -0.3412
16349TIP3   OH270461   0.838   0.978  12.440  0.0125 -0.3778 -0.1796
16349TIP3    H170462   0.818   1.054  12.495  0.2494 -1.6682  1.8210
16349TIP3    H270463   0.753   0.951  12.405 -0.0472  0.8971 -1.0880
16350TIP3   OH270464   3.123   5.619  17.048 -0.4936  0.2255  0.5114
16350TIP3    H170465   3.188   5.565  17.094 -1.4224  0.4307  2.1083
16350TIP3    H270466   3.080   5.558  16.988 -0.1717 -0.3577  0.8619
16351TIP3   OH270467   6.636   0.695  16.495  0.1306  0.8294  0.2273
16351TIP3    H170468   6.644   0.655  16.581  0.7626 -0.4583 -0.3947
16351TIP3    H270469   6.724   0.725  16.474  1.5031 -3.9396 -2.2474
16352TIP3   OH270470   2.115   5.529   2.030 -0.7321  0.1637 -0.2306
16352TIP3    H170471   2.172   5.606   2.024 -1.5441  0.7189 -1.0853
16352TIP3    H270472   2.054   5.550   2.101 -2.1161  1.1530 -1.6290
16353TIP3   OH270473   0.752   2.190  13.015  0.1694 -0.1521  0.0858
16353TIP3    H170474   0.676   2.177  12.958  0.4812 -2.0500  0.0373
16353TIP3    H270475   0.819   2.134  12.977  0.5484 -1.0591  2.0234
16354TIP3   OH270476   3.769   4.350   2.264 -0.5632  0.1561 -0.0846
16354TIP3    H170477   3.762   4.440   2.231  0.2578 -0.0931 -0.9863
16354TIP3    H270478   3.863   4.338   2.281 -0.8360 -0.0960  1.3238
16355TIP3   OH270479   1.352   1.351   5.924  0.3294 -0.3809 -0.4685
16355TIP3    H170480   1.441   1.322   5.944  0.0615 -0.1367  1.2894
16355TIP3    H270481   1.300   1.320   5.998 -1.1572 -0.9206 -1.6928
16356TIP3   OH270482   0.478   5.313   2.680  0.1626 -0.6108 -0.4626
16356TIP3    H170483   0.483   5.381   2.748 -2.2364 -0.3988 -0.4089
16356TIP3    H270484   0.523   5.352   2.605 -0.8440  0.9214 -0.3190
16357TIP3   OH270485   5.823   0.775   3.867 -0.6428 -0.4850 -0.4903
16357TIP3    H170486   5.758   0.780   3.937  0.1933 -0.7279  0.3231
16357TIP3    H270487   5.854   0.866   3.857 -2.4154  0.0012 -2.1942
16358TIP3   OH270488   6.497   4.160   5.264 -0.1878  0.0688  0.1244
16358TIP3    H170489   6.489   4.075   5.222 -2.3261  0.4700 -0.3987
16358TIP3    H270490   6.434   4.157   5.336 -1.5708  1.7539 -0.9395
16359TIP3   OH270491   1.832   6.413  16.591  0.2110 -0.3033 -0.0496
16359TIP3    H170492   1.791   6.398  16.506  0.6869 -0.2498 -0.2881
16359TIP3    H270493   1.793   6.494  16.623  1.0820  0.4501 -0.8620
16360TIP3   OH270494   0.679   3.885  16.661  0.3336  0.5655  0.1322
16360TIP3    H170495   0.656   3.819  16.727 -1.9221 -1.1238 -2.1234
16360TIP3    H270496   0.654   3.968  16.700 -2.2617 -0.4989  0.9453
16361TIP3   OH270497   5.954   2.764  16.241 -0.2228  0.2314 -0.0091
16361TIP3    H170498   6.006   2.792  16.166 -2.5308  1.8017 -1.1350
16361TIP3    H270499   5.922   2.677  16.216 -0.2242  0.3526 -0.4428
16362TIP3   OH270500   3.216   5.683  13.955 -0.6671 -0.7180 -0.5937
16362TIP3    H170501   3.256   5.743  14.018 -0.5814 -2.2806  0.9046
16362TIP3    H270502   3.157   5.739  13.903 -1.4525  0.5114  1.4883
16363TIP3   OH270503   4.518   4.410  12.782  0.0640 -0.2127  0.5721
16363TIP3    H170504   4.526   4.481  12.719 -0.6597  1.1210  1.9235
16363TIP3    H270505   4.449   4.354  12.746  1.5891 -1.0871 -1.2128
16364TIP3   OH270506   1.732   1.556   4.279 -0.5690  0.2425  0.1566
16364TIP3    H170507   1.718   1.651   4.282  1.7899  0.6696 -0.3162
16364TIP3    H270508   1.776   1.536   4.362  1.1805  0.0325 -0.7751
16365TIP3   OH270509   2.936   4.041  11.348 -0.0705  0.4566  0.5688
16365TIP3    H170510   2.960   4.021  11.439  3.7239 -1.5983 -0.6813
16365TIP3    H270511   2.994   4.114  11.324 -2.2986  2.2232  0.1767
16366TIP3   OH270512   6.021   0.944   4.366  0.2285  0.1634 -0.7660
16366TIP3    H170513   5.930   0.923   4.384  0.0398  1.5646 -0.0113
16366TIP3    H270514   6.018   1.026   4.316  1.0428 -0.2896 -1.6010
16367TIP3   OH270515   5.549   6.058   5.058  0.3670  0.6203  0.0958
16367TIP3    H170516   5.456   6.072   5.078  0.7737  1.8397  1.2484
16367TIP3    H270517   5.552   6.054   4.962 -0.7914  1.2567  0.0174
16368TIP3   OH270518   3.423   1.030   3.134 -0.4897  0.2481 -0.5030
16368TIP3    H170519   3.423   0.936   3.150  1.0803  0.4750  1.3528
16368TIP3    H270520   3.497   1.044   3.075  0.4899  0.4465  0.7152
16369TIP3   OH270521   5.358   1.861  16.336  0.0885  0.0235 -0.0042
16369TIP3    H170522   5.346   1.890  16.426 -1.2867  0.3114 -0.2635
16369TIP3    H270523   5.438   1.808  16.338  1.2188  1.6818  0.9753
16370TIP3   OH270524   2.283   1.169   1.153  0.5021  0.5062 -0.4482
16370TIP3    H170525   2.298   1.111   1.228 -0.8417 -1.1793 -1.4375
16370TIP3    H270526   2.371   1.185   1.118  1.2383  1.8193  1.7633
16371TIP3   OH270527   5.756   5.372   4.191  0.5422 -0.4399 -0.6174
16371TIP3    H170528   5.673   5.402   4.229  0.5863 -0.3767 -0.5716
16371TIP3    H270529   5.783   5.299   4.246  2.4768  1.8939  1.7573
16372TIP3   OH270530   2.693   4.079   5.945  0.5804 -0.1471 -1.0473
16372TIP3    H170531   2.767   4.020   5.929  1.4817  1.1649 -1.8567
16372TIP3    H270532   2.629   4.024   5.990  2.5346 -1.0128  0.8536
16373TIP3   OH270533   2.841   2.290   5.675 -0.0187 -0.9689  0.3511
16373TIP3    H170534   2.924   2.331   5.700 -0.0853 -0.4215 -0.3121
16373TIP3    H270535   2.860   2.246   5.592  0.1228 -2.5426  1.1758
16374TIP3   OH270536   5.213   3.297  16.286 -0.0998 -0.0678  0.1785
16374TIP3    H170537   5.145   3.284  16.352 -2.3329 -0.8629 -2.1110
16374TIP3    H270538   5.234   3.390  16.291 -3.3084  0.8385 -0.6633
16375TIP3   OH270539   5.845   6.417  13.138 -0.3522  0.4298  0.2549
16375TIP3    H170540   5.804   6.504  13.146 -0.2284  0.3410  2.2902
16375TIP3    H270541   5.938   6.434  13.149 -0.3620  0.0043  1.0394
16376TIP3   OH270542   0.947   3.399  11.287  0.2542 -0.5576 -0.3062
16376TIP3    H170543   1.034   3.386  11.250  0.1837 -1.9651 -0.0003
16376TIP3    H270544   0.888   3.393  11.212  0.3334 -0.6255 -0.3633
16377TIP3   OH270545   1.508   4.435   1.857  0.1625  0.4126 -0.2570
16377TIP3    H170546   1.535   4.351   1.821 -0.5165  0.4583 -0.8998
16377TIP3    H270547   1.589   4.476   1.887  0.4419 -0.7104  0.6200
16378TIP3   OH270548   5.781   4.087  12.375 -0.6069 -1.0109  0.0259
16378TIP3    H170549   5.803   4.128  12.292 -0.0513  0.2872  0.7752
16378TIP3    H270550   5.761   3.996  12.353 -4.2557  0.0895 -2.0678
16379TIP3   OH270551   3.631   1.365  14.902  0.3399  0.7637 -0.6159
16379TIP3    H170552   3.617   1.304  14.974 -2.2414  1.2462 -0.5890
16379TIP3    H270553   3.675   1.440  14.942 -1.8416  1.4140  0.7628
16380TIP3   OH270554   3.332   1.487  11.568 -0.5023 -0.5329 -0.0783
16380TIP3    H170555   3.337   1.522  11.657  0.4193 -1.5227  0.2775
16380TIP3    H270556   3.242   1.507  11.539 -0.4723  0.7647  0.6502
16381TIP3   OH270557   0.337   6.405   0.171 -0.0406 -0.0335 -0.1632
16381TIP3    H170558   0.278   6.408   0.246 -1.1749 -0.1538 -1.0159
16381TIP3    H270559   0.401   6.473   0.187 -2.5772  2.7381 -0.9238
16382TIP3   OH270560   3.619   6.668  16.815  0.1928 -0.4439 -0.0148
16382TIP3    H170561   3.612   6.716  16.897 -0.6208 -0.4932 -0.0469
16382TIP3    H270562   3.626   6.736  16.748 -0.9771 -0.3576 -0.0639
16383TIP3   OH270563   0.618   6.443  13.378  0.0114 -0.4523 -0.2274
16383TIP3    H170564   0.617   6.423  13.472  0.8381 -0.6651 -0.2520
16383TIP3    H270565   0.709   6.428  13.352 -0.6973 -2.9224 -1.5919
16384TIP3   OH270566   5.453   0.638  16.022 -0.1751 -0.1660 -0.4606
16384TIP3    H170567   5.455   0.587  15.941  0.5050 -0.2272 -0.4100
16384TIP3    H270568   5.382   0.701  16.009  0.0621 -0.0402 -1.1883
16385TIP3   OH270569   0.396   2.041  13.608 -0.0268  0.1708 -0.6304
16385TIP3    H170570   0.425   2.069  13.695 -1.3618 -1.2680  0.3320
16385TIP3    H270571   0.431   1.953  13.598  1.3113  0.8114 -2.2097
16386TIP3   OH270572   6.047   3.901   2.556 -0.3854  0.4927  0.0772
16386TIP3    H170573   6.023   3.973   2.498  0.5029  1.1705  0.5216
16386TIP3    H270574   5.984   3.908   2.629 -0.7353  0.3887 -0.2121
16387TIP3   OH270575   4.724   5.089  17.322  0.3368  0.3610  0.2483
16387TIP3    H170576   4.766   5.051  17.245 -0.3932 -1.2798  0.6149
16387TIP3    H270577   4.773   5.170  17.338  1.8102 -0.2830 -0.7342
16388TIP3   OH270578   5.143   5.614   1.381  0.0561  0.6346 -0.4826
16388TIP3    H170579   5.074   5.549   1.369  0.7245 -0.3254  0.5847
16388TIP3    H270580   5.224   5.567   1.361  0.7713  0.3729  2.5044
16389TIP3   OH270581   4.860   1.219   0.029 -0.8622 -0.2683  0.2187
16389TIP3    H170582   4.826   1.299  -0.011 -1.9522  0.8068  3.0768
16389TIP3    H270583   4.859   1.155  -0.043 -3.7813  1.1891 -1.2507
16390TIP3   OH270584   4.598   4.453   1.945  0.2801 -0.1073  0.0563
16390TIP3    H170585   4.520   4.405   1.974  0.8016 -2.6246 -2.2131
16390TIP3    H270586   4.642   4.479   2.026 -0.7959 -2.3326  1.4743
16391TIP3   OH270587   5.056   6.661  15.686 -0.1117 -0.8319 -0.1872
16391TIP3    H170588   5.144   6.690  15.663 -0.1669 -0.8078 -0.3677
16391TIP3    H270589   5.065   6.625  15.774 -0.2680  0.8343  0.5603
16392TIP3   OH270590   6.519   0.460  14.474 -0.0423 -0.2847  0.1329
16392TIP3    H170591   6.566   0.400  14.416  0.2330 -0.8025  0.8639
16392TIP3    H270592   6.455   0.503  14.418  0.8343 -0.0841 -0.7373
16393TIP3   OH270593   2.062   6.554  14.931  0.3017 -0.1752  0.0108
16393TIP3    H170594   2.106   6.635  14.957  0.5054 -0.3732  0.2875
16393TIP3    H270595   2.074   6.550  14.836  0.0481  0.2602 -0.0414
16394TIP3   OH270596   0.042   4.703   4.517 -0.2963 -0.3437  0.3651
16394TIP3    H170597   0.077   4.646   4.586 -0.4453 -0.9354 -0.0440
16394TIP3    H270598  -0.051   4.711   4.539 -0.5765 -1.4359 -0.3813
16395TIP3   OH270599   2.811   2.398   2.273 -0.4780 -0.0268 -0.4390
16395TIP3    H170600   2.809   2.467   2.340 -0.2877  0.1388 -0.6033
16395TIP3    H270601   2.722   2.363   2.273 -0.3499 -0.3704  0.2568
16396TIP3   OH270602   0.946   6.183   3.089  0.4926  0.1999  0.7378
16396TIP3    H170603   1.034   6.151   3.066  0.6496 -0.2204  1.8637
16396TIP3    H270604   0.936   6.264   3.039  0.1726 -1.4174 -2.0565
16397TIP3   OH270605   0.794   3.002  10.743  0.0110 -0.3242  0.5083
16397TIP3    H170606   0.714   3.019  10.793  0.0351  0.4085  0.3076
16397TIP3    H270607   0.834   3.088  10.731 -0.0123 -0.4748 -0.7929
16398TIP3   OH270608   2.590   4.503  15.238 -0.3167  0.1282 -0.0605
16398TIP3    H170609   2.627   4.486  15.324  0.5535  0.2029 -0.4008
16398TIP3    H270610   2.553   4.591  15.244  1.2783  0.8459 -0.2342
16399TIP3   OH270611   0.622   0.104  13.813 -0.3423 -0.3128  0.5325
16399TIP3    H170612   0.672   0.047  13.871  0.5971 -2.0238 -1.7806
16399TIP3    H270613   0.543   0.053  13.792  0.2992 -0.6493 -1.2316
16400TIP3   OH270614   3.465   1.916  11.887  0.8507 -0.1002 -0.1798
16400TIP3    H170615   3.522   1.993  11.890 -1.2102  1.4871  1.7463
16400TIP3    H270616   3.489   1.865  11.963  0.1470  0.2697  0.3017
16401TIP3   OH270617   1.563   6.458   7.025 -0.9826  0.3573  0.3908
16401TIP3    H170618   1.627   6.388   7.034 -1.2180  0.1789  0.6779
16401TIP3    H270619   1.480   6.413   7.010 -0.8447  0.6087 -1.2860
16402TIP3   OH270620   2.976   6.565  11.054  0.5575 -0.6429 -0.4900
16402TIP3    H170621   2.949   6.474  11.040 -2.6171  0.3459 -1.6627
16402TIP3    H270622   2.910   6.600  11.114  2.2330  0.7039  0.6483
16403TIP3   OH270623   0.622   5.026  16.707  0.2868 -0.2789  0.1361
16403TIP3    H170624   0.600   5.087  16.637 -2.4357 -2.1422 -0.8032
16403TIP3    H270625   0.561   5.047  16.778 -0.5037 -1.6732 -0.0938
16404TIP3   OH270626   4.328   0.876   4.274 -0.1513 -0.1018  0.1767
16404TIP3    H170627   4.411   0.843   4.240 -0.1216  0.6782 -0.5288
16404TIP3    H270628   4.262   0.820   4.234 -0.1467  1.0389 -1.5417
16405TIP3   OH270629   5.381   2.268  12.324 -0.1962  0.3365 -0.5371
16405TIP3    H170630   5.430   2.333  12.272 -1.5294  1.5411 -0.3475
16405TIP3    H270631   5.449   2.221  12.373  0.8787  1.0223 -1.3202
16406TIP3   OH270632   6.128   5.477   0.700 -0.1891  0.7535 -0.4377
16406TIP3    H170633   6.065   5.476   0.772 -1.0459 -0.5345 -1.1585
16406TIP3    H270634   6.213   5.473   0.743 -0.6932 -2.0514  0.5547
16407TIP3   OH270635   3.409   1.026   0.862 -0.0214 -0.0138 -0.2464
16407TIP3    H170636   3.412   1.113   0.899 -1.9142 -0.0544  0.0833
16407TIP3    H270637   3.495   0.988   0.882  0.1651  1.1083  1.2301
16408TIP3   OH270638   6.312   1.538   5.082  0.2591  0.7057 -0.3062
16408TIP3    H170639   6.322   1.460   5.137  0.7479  1.5888  0.8937
16408TIP3    H270640   6.233   1.522   5.032  0.9464 -1.0481 -0.8924
16409TIP3   OH270641   4.913   6.555   1.934 -0.2592 -0.0049  0.5598
16409TIP3    H170642   4.971   6.616   1.978 -1.4268 -0.4129  2.7926
16409TIP3    H270643   4.832   6.604   1.919  0.0267  0.0565 -1.0118
16410TIP3   OH270644   6.123   4.077  15.965  0.3095 -0.4151 -0.1131
16410TIP3    H170645   6.028   4.077  15.977  0.0108  1.1685 -1.9698
16410TIP3    H270646   6.136   4.101  15.873  2.5236  0.1203  0.2691
16411TIP3   OH270647   0.655   1.864  14.574 -0.2784 -0.4234 -0.2620
16411TIP3    H170648   0.570   1.896  14.542  0.2136  1.1769 -0.0633
16411TIP3    H270649   0.699   1.831  14.496 -0.6176 -0.1530 -0.5733
16412TIP3   OH270650   0.912   1.470  14.473 -0.2913  0.3011 -0.3234
16412TIP3    H170651   0.870   1.461  14.388  0.1825 -0.3928 -0.4932
16412TIP3    H270652   0.904   1.562  14.495  0.1559  0.6099 -1.4188
16413TIP3   OH270653   1.900   6.208  15.784 -0.0109 -0.2269 -0.2539
16413TIP3    H170654   1.817   6.162  15.794  0.4506 -1.3851 -1.4735
16413TIP3    H270655   1.943   6.198  15.869 -0.9868  0.1569  0.2988
16414TIP3   OH270656   3.699   0.485  16.013 -0.2378  0.6309  0.5963
16414TIP3    H170657   3.732   0.529  15.934 -1.0510 -0.7131 -0.5395
16414TIP3    H270658   3.769   0.426  16.039  0.1959  1.3676  1.1598
16415TIP3   OH270659   3.911   0.381   2.924  0.5687  0.5764  0.2876
16415TIP3    H170660   3.970   0.447   2.888 -0.2140  1.6433  0.8861
16415TIP3    H270661   3.923   0.304   2.868 -0.2237  1.9951 -1.9819
16416TIP3   OH270662   2.587   5.748   4.998 -0.4378 -0.1533  0.2935
16416TIP3    H170663   2.604   5.737   4.905  1.6667 -0.2794  0.6499
16416TIP3    H270664   2.597   5.842   5.014  0.7708 -0.3277  0.6468
16417TIP3   OH270665   2.016   0.275  12.821  0.2078  0.0904  0.0367
16417TIP3    H170666   1.921   0.274  12.807  0.0649 -0.5583  0.9354
16417TIP3    H270667   2.032   0.356  12.869  0.0798  0.1036  0.0578
16418TIP3   OH270668   0.204   2.615  12.254  0.1719  0.2572 -0.2167
16418TIP3    H170669   0.114   2.605  12.287  0.4981  0.0850  0.6712
16418TIP3    H270670   0.200   2.688  12.193 -0.8578 -0.6676 -1.3108
16419TIP3   OH270671   6.362   4.947  14.889 -0.1065 -0.3575  0.1585
16419TIP3    H170672   6.440   4.975  14.840 -1.5673  2.2161 -0.8944
16419TIP3    H270673   6.375   4.853  14.902  2.1489 -0.4395 -1.8768
16420TIP3   OH270674   4.332   4.835  13.478 -0.3791 -0.2873  0.6566
16420TIP3    H170675   4.275   4.771  13.520  0.8189 -0.6484  1.8118
16420TIP3    H270676   4.415   4.789  13.464 -0.6135 -0.0913 -1.9164
16421TIP3   OH270677   1.890   1.708   0.931 -0.4687  0.2021 -0.2184
16421TIP3    H170678   1.949   1.770   0.886 -1.0680 -0.8751 -2.6813
16421TIP3    H270679   1.930   1.622   0.917 -1.4946 -0.3258 -0.0357
16422TIP3   OH270680   0.013   4.643   5.875  0.0731 -0.4830  0.3496
16422TIP3    H170681   0.006   4.597   5.792  3.9109 -0.4538 -0.1630
16422TIP3    H270682   0.044   4.730   5.851 -0.7153  0.2122  1.7381
16423TIP3   OH270683   3.325   0.730   2.470  0.0959  0.2168 -0.2167
16423TIP3    H170684   3.363   0.717   2.383 -1.5912  0.9685 -1.0989
16423TIP3    H270685   3.322   0.642   2.508  0.1168 -0.2274 -1.2170
16424TIP3   OH270686   6.022   6.394  11.928  0.3604 -0.7281 -0.3481
16424TIP3    H170687   6.038   6.444  12.007  0.8824 -0.7912 -0.4086
16424TIP3    H270688   5.976   6.455  11.870 -0.8539 -0.9679  0.3311
16425TIP3   OH270689   3.492   3.248   1.446 -0.3452 -0.4982 -0.2800
16425TIP3    H170690   3.521   3.157   1.448 -0.3468 -0.4977 -0.2165
16425TIP3    H270691   3.415   3.250   1.502 -1.2277 -0.7498 -1.4558
16426TIP3   OH270692   5.402   1.849   3.581  0.0792  0.3616  0.3854
16426TIP3    H170693   5.456   1.800   3.644  0.9034  1.4473  0.5500
16426TIP3    H270694   5.371   1.782   3.520  0.3184 -0.5218  1.1953
16427TIP3   OH270695   1.602   3.778  14.469 -0.0304  0.0420  0.7205
16427TIP3    H170696   1.533   3.731  14.516 -0.6010  0.2205  0.0712
16427TIP3    H270697   1.557   3.820  14.396  0.7223  0.3932  0.4532
16428TIP3   OH270698   1.353   6.403  12.128  0.1946  0.2826 -0.5205
16428TIP3    H170699   1.294   6.415  12.053 -0.4704  0.6356  0.0574
16428TIP3    H270700   1.297   6.406  12.205  0.6000 -2.0310 -0.0627
16429TIP3   OH270701   4.573   1.918   0.480  0.5394  0.5309 -0.1603
16429TIP3    H170702   4.538   2.005   0.497  0.6130  1.2742 -3.2981
16429TIP3    H270703   4.501   1.859   0.499 -0.1572  1.4473  0.1168
16430TIP3   OH270704   2.898   2.423  13.971 -0.5648 -0.1556  0.3404
16430TIP3    H170705   2.942   2.398  13.890  0.2946 -0.6517  0.9401
16430TIP3    H270706   2.949   2.496  14.005 -1.7115  0.9484 -0.2227
16431TIP3   OH270707   1.540   5.361   3.149  0.0120  0.0203  0.5148
16431TIP3    H170708   1.563   5.324   3.064  0.5485  2.8481 -0.7082
16431TIP3    H270709   1.451   5.331   3.166  0.0308 -0.8979 -0.8515
16432TIP3   OH270710   6.373   1.449  10.874 -0.8937 -0.1735 -0.0342
16432TIP3    H170711   6.315   1.380  10.840 -0.6859 -1.2035  1.5733
16432TIP3    H270712   6.422   1.406  10.943  0.4680  1.1906 -0.1130
16433TIP3   OH270713   3.596   3.787   1.058  0.1876 -0.4827  0.0218
16433TIP3    H170714   3.507   3.821   1.047  1.4270  2.3805 -2.1778
16433TIP3    H270715   3.591   3.697   1.025 -1.7561 -0.1630 -0.6770
16434TIP3   OH270716   3.461   4.630  16.417  0.5927  0.0164 -0.5866
16434TIP3    H170717   3.494   4.696  16.357 -0.1318 -0.6670 -1.7973
16434TIP3    H270718   3.512   4.551  16.396  0.2304 -0.2659 -0.4233
16435TIP3   OH270719   3.897   2.945   2.840 -0.9594  0.1275  0.2966
16435TIP3    H170720   3.912   3.034   2.807  0.5139 -0.5448 -0.9802
16435TIP3    H270721   3.949   2.889   2.783 -1.5409 -1.5381  1.3195
16436TIP3   OH270722   4.931   1.001   1.842  0.4012 -0.0556 -0.3057
16436TIP3    H170723   4.995   0.940   1.880  0.3675  0.3459  0.4157
16436TIP3    H270724   4.910   1.061   1.914  0.3787  0.7676 -0.9907
16437TIP3   OH270725   6.039   1.288  16.074  0.4585 -0.0876  0.1125
16437TIP3    H170726   6.075   1.259  15.990  0.6964  0.5928 -0.0339
16437TIP3    H270727   6.052   1.215  16.133 -0.5106 -0.9202 -0.6612
16438TIP3   OH270728   3.759   1.323  15.287 -0.0185 -0.0769 -0.2635
16438TIP3    H170729   3.848   1.302  15.312 -0.7950 -0.9332  2.0448
16438TIP3    H270730   3.728   1.245  15.240 -0.1276 -0.5483  0.5803
16439TIP3   OH270731   3.409   2.833  12.323  0.4738 -0.1322  0.5613
16439TIP3    H170732   3.482   2.776  12.301  1.1864  0.8606  0.2617
16439TIP3    H270733   3.342   2.775  12.359  1.5610 -1.0016  1.2094
16440TIP3   OH270734   4.575   3.126  13.207 -0.2364 -0.5709  0.2538
16440TIP3    H170735   4.664   3.107  13.179 -0.4408  0.4976 -1.2604
16440TIP3    H270736   4.568   3.221  13.200 -2.0637 -0.7856 -1.5521
16441TIP3   OH270737   1.050   4.316  15.676  0.1008  0.5257 -0.1740
16441TIP3    H170738   1.058   4.362  15.759  0.5499  0.3090 -0.0952
16441TIP3    H270739   1.018   4.229  15.698  0.9539  0.2099 -0.1461
16442TIP3   OH270740   0.766   0.998   3.602 -0.2966 -0.1971 -0.0916
16442TIP3    H170741   0.828   0.959   3.663 -0.1109  0.9123  0.4606
16442TIP3    H270742   0.820   1.026   3.528  0.0340  1.5244  0.7547
16443TIP3   OH270743   4.595   0.163  11.714 -0.0015  0.1206 -0.4101
16443TIP3    H170744   4.674   0.166  11.660  0.1268  2.3231 -0.2075
16443TIP3    H270745   4.549   0.084  11.686  1.7864 -0.6933 -1.2037
16444TIP3   OH270746   0.154   5.881  15.905  0.0744 -0.1838 -0.3901
16444TIP3    H170747   0.182   5.927  15.826 -0.4550  1.3951  0.3123
16444TIP3    H270748   0.225   5.818  15.922  0.8632  0.4262 -1.3173
16445TIP3   OH270749   6.549   5.014   1.321 -0.0130 -0.7299 -0.8620
16445TIP3    H170750   6.486   5.062   1.266 -1.6912 -1.0233  0.7081
16445TIP3    H270751   6.569   4.935   1.271  0.9499  0.4537 -2.4238
16446TIP3   OH270752   6.721   2.519   1.765 -0.1775 -0.0697 -0.6285
16446TIP3    H170753   6.707   2.425   1.767 -2.1860  0.1844  0.0799
16446TIP3    H270754   6.815   2.530   1.751  0.1790 -2.1579 -0.1294
16447TIP3   OH270755   1.157   0.442   0.038  0.1184 -0.3467  0.4506
16447TIP3    H170756   1.218   0.388  -0.012 -0.1224 -1.2937  1.1573
16447TIP3    H270757   1.071   0.405   0.018 -0.3777  1.5650 -1.2909
16448TIP3   OH270758   4.100   1.024   5.052  0.3281  0.7010  0.4260
16448TIP3    H170759   4.016   1.053   5.016  0.5926 -0.4152 -1.1866
16448TIP3    H270760   4.144   0.981   4.978  1.3587 -0.7408  1.8226
16449TIP3   OH270761   1.211   0.550  16.053 -0.1550 -0.1426  0.1621
16449TIP3    H170762   1.160   0.469  16.042  0.9949 -0.9215  0.4591
16449TIP3    H270763   1.213   0.589  15.965  1.1543 -1.5875 -0.4777
16450TIP3   OH270764   5.743   5.092  12.228  0.1283 -0.3852 -0.3268
16450TIP3    H170765   5.655   5.061  12.204 -0.4284 -0.0108  1.0802
16450TIP3    H270766   5.789   5.014  12.256  0.2509 -0.5833 -1.0587
16451TIP3   OH270767   2.602   3.022  14.293  0.3483 -0.3227  0.5559
16451TIP3    H170768   2.546   3.071  14.233  0.4940 -1.8733 -0.9403
16451TIP3    H270769   2.595   3.069  14.376 -2.5106  0.0300  0.2256
16452TIP3   OH270770   0.703   0.904   0.651  0.2271  0.4675 -0.4157
16452TIP3    H170771   0.759   0.942   0.719  1.0849 -0.0907 -0.7925
16452TIP3    H270772   0.649   0.978   0.621  0.9481  1.0898 -0.2277
16453TIP3   OH270773   4.127   1.456   2.757 -1.2254  0.0712 -0.2553
16453TIP3    H170774   4.153   1.372   2.719 -2.0256 -0.5308  0.4637
16453TIP3    H270775   4.183   1.520   2.716 -0.1612 -0.9014 -0.3642
16454TIP3   OH270776   2.445   1.718  14.851  0.7710  0.5820 -0.2729
16454TIP3    H170777   2.362   1.703  14.896  1.2501  0.9545  0.7664
16454TIP3    H270778   2.439   1.666  14.771  0.0675 -0.4489  0.4329
16455TIP3   OH270779   2.085   3.782  13.479 -0.2210 -0.0650  0.6638
16455TIP3    H170780   2.007   3.819  13.520  0.5545  1.8074  0.5449
16455TIP3    H270781   2.126   3.857  13.435  2.0056 -0.8465  1.3125
16456TIP3   OH270782   6.418   6.368  11.237 -0.3110 -0.5422 -0.1495
16456TIP3    H170783   6.430   6.299  11.301  0.0063 -1.0497 -0.7462
16456TIP3    H270784   6.404   6.322  11.154 -0.6694  0.0988 -0.4566
16457TIP3   OH270785   4.159   3.179   2.513  0.5552 -0.0016  0.0520
16457TIP3    H170786   4.220   3.112   2.482  2.2126  1.0835  0.8586
16457TIP3    H270787   4.203   3.220   2.587 -1.5312  0.2732  1.2268
16458TIP3   OH270788   5.420   1.281   6.460 -0.5123 -0.1196  0.4245
16458TIP3    H170789   5.433   1.216   6.390 -0.4098 -0.3919  0.6948
16458TIP3    H270790   5.326   1.301   6.457 -0.6111 -0.5476  0.5722
16459TIP3   OH270791   1.172   1.927   3.775  0.4431 -0.3241 -0.3398
16459TIP3    H170792   1.172   1.963   3.864 -1.2215  0.2174 -0.5097
16459TIP3    H270793   1.092   1.874   3.771 -1.2394  2.1219 -2.3871
16460TIP3   OH270794   1.290   4.190   2.123  0.1245 -0.3540 -0.2117
16460TIP3    H170795   1.336   4.106   2.128  0.3077 -0.1759  2.0812
16460TIP3    H270796   1.335   4.246   2.186 -1.8762  0.5153  0.5371
16461TIP3   OH270797   6.072   0.336   4.747 -0.2936 -0.3904 -0.2642
16461TIP3    H170798   6.072   0.284   4.667  0.8261  0.1341 -0.6259
16461TIP3    H270799   6.135   0.292   4.804  0.1653  0.1763 -0.3234
16462TIP3   OH270800   6.264   2.432  15.646  0.0782  0.0155 -0.2311
16462TIP3    H170801   6.240   2.496  15.578 -0.0615  0.9057  0.6445
16462TIP3    H270802   6.330   2.477  15.699 -1.0890 -0.0041  1.2769
16463TIP3   OH270803   0.286   5.452   1.134  0.0169 -0.0039  0.1759
16463TIP3    H170804   0.292   5.501   1.216 -1.9981 -0.5617  0.7076
16463TIP3    H270805   0.238   5.509   1.075  0.2288 -0.1754 -0.1690
16464TIP3   OH270806   1.858   5.667   0.307  0.6362  0.2409  0.2196
16464TIP3    H170807   1.903   5.724   0.244 -0.2967 -1.8804 -2.5692
16464TIP3    H270808   1.922   5.598   0.326  0.0150 -0.5796 -0.5758
16465TIP3   OH270809   3.408   6.484   2.682 -0.6387  0.6176  0.2955
16465TIP3    H170810   3.479   6.422   2.665 -1.1716 -0.3908  1.5947
16465TIP3    H270811   3.342   6.433   2.729 -1.2783  2.0851  1.0571
16466TIP3   OH270812   4.683   1.367  11.421  0.0106  0.3386 -0.4790
16466TIP3    H170813   4.661   1.316  11.499 -0.4670  0.8420 -0.2770
16466TIP3    H270814   4.764   1.327  11.388  0.8998  0.8756  0.9584
16467TIP3   OH270815   5.809   5.711  16.400 -0.1892 -0.5372  0.4871
16467TIP3    H170816   5.891   5.722  16.352  0.4618 -4.5110  0.3636
16467TIP3    H270817   5.825   5.756  16.483  0.8573  1.4490 -0.6933
16468TIP3   OH270818   6.494   2.515   3.593  0.0381  0.5499  0.2608
16468TIP3    H170819   6.529   2.427   3.580 -1.8633  0.1291 -2.9947
16468TIP3    H270820   6.403   2.502   3.620 -0.5816  1.4274 -1.2638
16469TIP3   OH270821   6.075   2.255   1.332 -0.1651  0.2037  0.1872
16469TIP3    H170822   5.990   2.219   1.307  0.2000  0.9916 -2.5287
16469TIP3    H270823   6.123   2.180   1.368 -2.1426 -0.1287  2.3388
16470TIP3   OH270824   4.379   4.109   1.404 -0.1378 -0.7665 -0.0422
16470TIP3    H170825   4.421   4.060   1.333 -1.0748 -0.5945 -0.7363
16470TIP3    H270826   4.430   4.190   1.411  0.5606 -1.2101  0.1661
16471TIP3   OH270827   2.614   4.978  13.536  0.6087  0.4035  0.2242
16471TIP3    H170828   2.549   4.908  13.527 -0.0669  0.9050  1.0465
16471TIP3    H270829   2.619   5.016  13.448 -2.2133  2.0569  0.6625
16472TIP3   OH270830   5.047   4.878   3.898 -0.2189  0.3514  0.6211
16472TIP3    H170831   5.124   4.873   3.842  0.5671  0.4825  1.6603
16472TIP3    H270832   5.006   4.792   3.891  1.0040 -0.3118  1.4160
16473TIP3   OH270833   6.503   0.187   0.194  0.3183 -0.0413 -0.5808
16473TIP3    H170834   6.444   0.136   0.140  0.7702 -1.9312  0.6064
16473TIP3    H270835   6.586   0.138   0.192  0.6563  0.4110  0.9036
16474TIP3   OH270836   0.028   4.687   2.521  0.6065 -0.0337  0.0120
16474TIP3    H170837   0.088   4.741   2.469 -0.6209 -0.0534 -1.4722
16474TIP3    H270838   0.021   4.605   2.473  0.8220 -0.7559  1.1667
16475TIP3   OH270839   3.183   4.541   3.436  0.0513 -0.7998 -0.1796
16475TIP3    H170840   3.093   4.521   3.408  0.6141 -1.7589 -1.4166
16475TIP3    H270841   3.176   4.624   3.481 -1.3809 -0.5591 -0.7881
16476TIP3   OH270842   4.183   5.302  12.477  0.2337 -0.2345 -0.6073
16476TIP3    H170843   4.180   5.304  12.382  1.0449  2.1620 -0.6478
16476TIP3    H270844   4.097   5.334  12.505  1.0029  2.0119 -0.6389
16477TIP3   OH270845   4.250   4.113   2.972  0.3622 -0.2124 -0.1141
16477TIP3    H170846   4.203   4.184   2.928 -0.2534 -0.4254  0.1890
16477TIP3    H270847   4.195   4.036   2.958  0.5445 -0.4352  0.3780
16478TIP3   OH270848   2.929   1.261  13.063  0.3192  0.0458 -0.2898
16478TIP3    H170849   2.955   1.346  13.097  1.2507 -1.0281  1.9168
16478TIP3    H270850   2.834   1.258  13.076  0.3207  0.6499 -0.1230
16479TIP3   OH270851   1.743   5.942   1.600 -0.1743  0.7088  0.3542
16479TIP3    H170852   1.726   5.986   1.516 -0.8298 -1.6557 -0.8601
16479TIP3    H270853   1.835   5.918   1.597  0.1053  1.6733  0.8778
16480TIP3   OH270854   3.573   2.409   0.079 -0.2659  0.2256  0.0227
16480TIP3    H170855   3.611   2.386   0.164 -1.0929  1.6316  0.8225
16480TIP3    H270856   3.480   2.392   0.089 -0.1516 -1.4744 -1.3151
16481TIP3   OH270857   4.243   3.915  14.852  0.0463  0.7282 -0.3636
16481TIP3    H170858   4.182   3.856  14.895  3.1711 -2.7034 -0.1300
16481TIP3    H270859   4.213   3.920  14.762 -0.8312 -0.4247 -0.1508
16482TIP3   OH270860   3.656   1.405   0.967  0.3061  0.3747 -0.3797
16482TIP3    H170861   3.678   1.490   0.929  1.7674  0.3554  0.3112
16482TIP3    H270862   3.684   1.412   1.059 -1.7098 -0.0787  0.3133
16483TIP3   OH270863   5.348   5.034  17.001  0.1879 -0.5008  0.0435
16483TIP3    H170864   5.335   4.997  16.914 -2.4944 -1.3358  0.6803
16483TIP3    H270865   5.265   5.016  17.047  1.1621  0.7117  2.4686
16484TIP3   OH270866   4.685   1.578   5.497  0.7624  0.2599 -0.6272
16484TIP3    H170867   4.589   1.573   5.490  0.7152  0.4913 -0.1566
16484TIP3    H270868   4.702   1.580   5.591  1.1311  2.3216 -0.6987
16485TIP3   OH270869   1.733   6.065  15.914  0.6217  0.3950 -0.0104
16485TIP3    H170870   1.678   6.038  15.840 -0.8978 -0.5193  1.3930
16485TIP3    H270871   1.742   5.986  15.967  2.4016  0.8231  0.3792
16486TIP3   OH270872   2.304   5.502  11.227 -0.2730  0.3404 -0.3623
16486TIP3    H170873   2.293   5.420  11.179  0.5837 -0.3967  0.6408
16486TIP3    H270874   2.298   5.570  11.161 -2.7579 -0.3985 -0.9734
16487TIP3   OH270875   4.145   4.597   0.536  0.3089  0.0462  0.0421
16487TIP3    H170876   4.133   4.574   0.628 -2.4304  0.6412 -0.0860
16487TIP3    H270877   4.237   4.624   0.530  0.5380  0.0744  2.5998
16488TIP3   OH270878   0.771   3.924   0.197  0.4961 -0.1883  0.1123
16488TIP3    H170879   0.841   3.862   0.212 -0.2950 -1.4989 -1.3168
16488TIP3    H270880   0.747   3.912   0.105 -1.5307  0.2674  0.5287
16489TIP3   OH270881   3.716   5.827  15.608  0.4353 -0.2333  0.3786
16489TIP3    H170882   3.785   5.838  15.542  0.8283  2.1913  1.0847
16489TIP3    H270883   3.655   5.898  15.590 -0.2151 -0.4328  1.7193
16490TIP3   OH270884   0.617   3.663   0.067 -0.1765  0.3281  0.4473
16490TIP3    H170885   0.623   3.568   0.059 -1.1949  0.0491  2.4255
16490TIP3    H270886   0.618   3.695  -0.023  2.7142 -1.3338 -0.2186
16491TIP3   OH270887   4.550   3.105  13.482 -0.0531 -0.4008 -0.8007
16491TIP3    H170888   4.489   3.151  13.425  0.7245  0.3604 -1.0416
16491TIP3    H270889   4.633   3.104  13.433  0.1340 -1.4397 -0.5011
16492TIP3   OH270890   4.025   3.681   3.624  0.7097  0.7177 -0.5688
16492TIP3    H170891   3.963   3.754   3.618  0.3624  0.5415  0.7411
16492TIP3    H270892   3.983   3.610   3.575 -0.2721  0.5174  0.5201
16493TIP3   OH270893   0.323   6.540  15.591  0.1850  0.3936 -0.3801
16493TIP3    H170894   0.384   6.539  15.664  0.7918 -0.3010 -0.8900
16493TIP3    H270895   0.270   6.619  15.605 -0.5776 -0.3911  1.5092
16494TIP3   OH270896   5.316   6.217  14.260  0.6078 -0.0727  0.0587
16494TIP3    H170897   5.330   6.134  14.214  2.4835 -0.1154  0.6111
16494TIP3    H270898   5.393   6.270  14.238 -0.6278  1.6227 -0.4192
16495TIP3   OH270899   1.039   5.436  12.827 -0.6710  0.1769  0.1745
16495TIP3    H170900   0.977   5.425  12.754  2.9058 -4.7178 -2.7518
16495TIP3    H270901   1.033   5.354  12.876  2.2028  0.1563  0.6848
16496TIP3   OH270902   0.703   1.607  13.675  0.5868  0.2040  0.7877
16496TIP3    H170903   0.732   1.521  13.644 -2.0749 -0.2993 -0.5740
16496TIP3    H270904   0.732   1.668  13.607 -0.8372 -0.2031 -0.2281
16497TIP3   OH270905   5.612   1.566   3.264 -0.0271 -0.3729 -0.1643
16497TIP3    H170906   5.674   1.634   3.237 -0.5004  0.1869  0.1111
16497TIP3    H270907   5.537   1.578   3.206 -1.2059  1.0777  1.5233
16498TIP3   OH270908   2.637   5.432  14.172  0.3067  0.0425 -0.1751
16498TIP3    H170909   2.564   5.408  14.114  0.1883  0.8398 -0.3776
16498TIP3    H270910   2.702   5.363  14.160 -0.1843 -0.3824 -0.4201
16499TIP3   OH270911   6.307   5.369  11.996  0.0616 -0.5613 -0.2455
16499TIP3    H170912   6.387   5.349  12.046 -0.1208  0.2504  0.3779
16499TIP3    H270913   6.242   5.309  12.032  0.0822 -0.3887  0.0862
16500TIP3   OH270914   1.485   2.266   1.879 -0.0637  0.4561 -0.1247
16500TIP3    H170915   1.466   2.198   1.944  0.6970  1.5816  1.3368
16500TIP3    H270916   1.432   2.341   1.907  1.0805  1.3022 -0.1641
16501TIP3   OH270917   6.040   6.472   0.870  0.3793 -0.6957  0.0214
16501TIP3    H170918   6.108   6.474   0.938 -1.3944  2.0586  1.8836
16501TIP3    H270919   6.035   6.562   0.838 -1.4198 -1.1514 -1.0931
16502TIP3   OH270920   3.613   4.287  13.051 -0.0353 -0.3580 -0.1275
16502TIP3    H170921   3.541   4.350  13.059  0.5299  0.2020  0.6923
16502TIP3    H270922   3.684   4.337  13.012  0.2999 -0.5754  0.1973
16503TIP3   OH270923   0.689   4.679   1.835 -0.5020  0.0230  0.2287
16503TIP3    H170924   0.660   4.743   1.771  1.4144  0.7531  0.0344
16503TIP3    H270925   0.612   4.626   1.852 -1.4774  0.8121 -1.4735
16504TIP3   OH270926   6.224   2.171  12.026  0.2896  0.0927  0.0081
16504TIP3    H170927   6.272   2.223  12.090  0.8707 -1.6863  1.0803
16504TIP3    H270928   6.164   2.233  11.985  0.4226  1.4432  1.7513
16505TIP3   OH270929   5.148   6.365  14.867 -0.1845  0.1018  0.0477
16505TIP3    H170930   5.094   6.352  14.945  1.0194  1.8199  1.2664
16505TIP3    H270931   5.134   6.457  14.844 -0.6220 -0.4171 -1.8842
16506TIP3   OH270932   0.983   6.215   4.226  0.0547 -0.4632 -0.3895
16506TIP3    H170933   0.928   6.211   4.303 -0.7542 -0.3639 -0.9524
16506TIP3    H270934   1.056   6.156   4.246 -0.4970 -0.9704  0.1793
16507TIP3   OH270935   4.396   5.694  14.610 -0.0869 -1.1605 -0.2118
16507TIP3    H170936   4.352   5.656  14.534  2.0832 -1.1576 -1.5599
16507TIP3    H270937   4.382   5.631  14.680 -1.1452 -1.7348 -0.9120
16508TIP3   OH270938   2.023   3.446   0.631 -0.3135 -0.3686 -0.3653
16508TIP3    H170939   2.075   3.415   0.704  0.1000 -2.8714 -1.6162
16508TIP3    H270940   1.957   3.504   0.670  1.3382  0.2534  1.6248
16509TIP3   OH270941   0.919   5.447   4.417  0.6682 -0.0892  0.0526
16509TIP3    H170942   0.916   5.542   4.406 -0.9711 -0.0543  0.5388
16509TIP3    H270943   1.013   5.426   4.419  1.0589  1.3949 -0.9269
16510TIP3   OH270944   5.434   3.046   1.816 -0.4383  0.9564 -0.7214
16510TIP3    H170945   5.354   3.090   1.787 -1.3145  0.3491  0.6680
16510TIP3    H270946   5.449   2.978   1.751 -0.8415  1.3174 -1.1993
16511TIP3   OH270947   2.629   3.392  15.856 -0.0435  0.6331  0.2605
16511TIP3    H170948   2.712   3.357  15.825 -1.2840 -0.7300 -1.7658
16511TIP3    H270949   2.603   3.333  15.926 -0.1465 -0.0057 -0.3141
16512TIP3   OH270950   3.599   6.154   5.814 -0.0883 -0.2546  0.0283
16512TIP3    H170951   3.620   6.107   5.895 -1.8848 -0.2005  0.5707
16512TIP3    H270952   3.609   6.088   5.745 -0.1550 -0.7588  0.4938
16513TIP3   OH270953   6.177   1.109  13.276  0.4600 -0.2794 -0.0752
16513TIP3    H170954   6.267   1.076  13.267  1.6088  1.9601  1.9097
16513TIP3    H270955   6.163   1.113  13.371 -1.1107  1.0303 -0.3188
16514TIP3   OH270956   0.513   3.003   5.905 -0.6020 -0.2993 -0.2526
16514TIP3    H170957   0.475   3.022   5.990 -2.0990  1.5510 -1.2423
16514TIP3    H270958   0.438   2.985   5.848  0.4168 -2.4733 -1.0009
16515TIP3   OH270959   5.644   2.568  11.891  0.3275 -0.0212  0.3668
16515TIP3    H170960   5.698   2.607  11.960  0.5356  0.8466 -0.2701
16515TIP3    H270961   5.702   2.559  11.816 -0.6201  2.0179 -0.7141
16516TIP3   OH270962   4.859   4.735  13.265 -0.5006 -0.4042 -0.3136
16516TIP3    H170963   4.953   4.725  13.251 -0.3199  1.9552 -1.2131
16516TIP3    H270964   4.821   4.737  13.177 -1.3038 -0.5651  0.0173
16517TIP3   OH270965   3.783   0.044  10.558  0.4991  0.2139 -0.0049
16517TIP3    H170966   3.871   0.025  10.591  0.8504  1.0269 -0.4435
16517TIP3    H270967   3.734  -0.037  10.573  1.5412 -0.5370 -0.5110
16518TIP3   OH270968   4.817   3.065  17.385 -0.4011 -0.2954  0.2312
16518TIP3    H170969   4.880   3.130  17.416 -1.4246  0.8613 -0.0104
16518TIP3    H270970   4.870   2.990  17.360  0.8942  0.6864 -0.0859
16519TIP3   OH270971   0.771   4.428   6.511  0.3171 -0.4070 -0.3836
16519TIP3    H170972   0.681   4.402   6.490 -0.1299 -1.2172  2.1538
16519TIP3    H270973   0.768   4.524   6.515 -0.6783 -0.4572  0.5029
16520TIP3   OH270974   3.569   1.748   4.351  0.4072  0.0014 -0.6983
16520TIP3    H170975   3.515   1.688   4.403  2.0447 -0.5515  0.4320
16520TIP3    H270976   3.512   1.773   4.279 -1.3772 -0.5309  0.4345
16521TIP3   OH270977   1.094   5.171  12.475 -0.5412  0.4055  0.0601
16521TIP3    H170978   1.024   5.116  12.440 -0.4518  0.0990  0.3589
16521TIP3    H270979   1.110   5.236  12.406 -0.7301  0.1336 -0.2439
16522TIP3   OH270980   3.792   6.474   1.731  0.1335  0.1654 -0.2169
16522TIP3    H170981   3.707   6.437   1.708 -0.0225 -0.2724  1.0003
16522TIP3    H270982   3.817   6.526   1.654 -1.1166  0.1079 -0.6880
16523TIP3   OH270983   3.148   2.539  14.667  0.4387 -0.4666 -0.2553
16523TIP3    H170984   3.139   2.563  14.759 -1.5379 -0.4916 -0.3915
16523TIP3    H270985   3.138   2.443  14.666 -2.7394 -0.2441 -0.7107
16524TIP3   OH270986   0.663   6.739  12.591  0.6749  0.3017 -0.8991
16524TIP3    H170987   0.700   6.659  12.629 -0.4840 -0.3181 -1.0242
16524TIP3    H270988   0.652   6.718  12.498  0.6353  0.7152 -0.9901
16525TIP3   OH270989   3.290   4.917   4.653  0.3221 -0.3149  0.0004
16525TIP3    H170990   3.384   4.927   4.644  0.4057 -0.5169  0.6024
16525TIP3    H270991   3.265   4.860   4.579  0.5183  0.5025 -0.7077
16526TIP3   OH270992   2.196   1.378   5.132 -0.1809 -0.4807 -0.5520
16526TIP3    H170993   2.183   1.472   5.119  0.6100 -0.4203 -0.9040
16526TIP3    H270994   2.110   1.340   5.114 -1.2850  0.4086  2.2566
16527TIP3   OH270995   3.902   3.033   3.715 -0.2934 -0.2984  0.7495
16527TIP3    H170996   3.829   2.972   3.728 -0.7977  0.5772  2.2562
16527TIP3    H270997   3.867   3.100   3.657 -0.4932 -0.2055  0.9754
16528TIP3   OH270998   3.575   6.253   3.273 -0.3201  0.3013 -0.1503
16528TIP3    H170999   3.562   6.230   3.365 -0.6634 -0.4266 -0.3733
16528TIP3    H271000   3.508   6.320   3.256 -0.6282  0.0310 -0.0176
16529TIP3   OH271001   1.049   3.968   4.098  0.0251  0.2218 -0.3039
16529TIP3    H171002   0.977   3.938   4.154  0.2117  0.7680  0.2454
16529TIP3    H271003   1.054   3.903   4.028  1.6703 -2.1553  1.8354
16530TIP3   OH271004   3.675   5.837  16.963 -0.0661  0.6269  0.5437
16530TIP3    H171005   3.666   5.847  16.868 -0.8621 -0.5966  0.4633
16530TIP3    H271006   3.665   5.925  16.997  1.9190  1.3684 -0.5950
16531TIP3   OH271007   4.164   1.292  13.635 -0.0714 -0.2135  0.0915
16531TIP3    H171008   4.190   1.218  13.579  1.7043 -0.4542  1.1710
16531TIP3    H271009   4.130   1.357  13.574  2.4736 -0.1644 -1.4362
16532TIP3   OH271010   1.084   4.756  16.078 -0.1624  0.1680  0.4094
16532TIP3    H171011   1.020   4.782  16.144  0.6909  0.4359  1.1554
16532TIP3    H271012   1.050   4.790  15.995 -1.2237 -0.1349  0.7130
16533TIP3   OH271013   1.633   2.343   1.325  0.8655  0.4671 -0.1112
16533TIP3    H171014   1.583   2.420   1.296  0.5147  0.0795 -0.5704
16533TIP3    H271015   1.610   2.276   1.261  1.7887  0.2075 -0.1795
16534TIP3   OH271016   1.539   1.037  12.550 -0.2897  0.0043 -0.1764
16534TIP3    H171017   1.473   1.041  12.481 -1.4640 -0.9934  0.8206
16534TIP3    H271018   1.527   0.951  12.589  0.8755  0.2386  0.7509
16535TIP3   OH271019   3.967   4.780   0.452  0.2255 -0.0031 -0.6870
16535TIP3    H171020   4.029   4.715   0.486 -0.1770  0.2032  0.4944
16535TIP3    H271021   3.887   4.730   0.437 -0.2063  0.2706  0.6004
16536TIP3   OH271022   2.418   4.663  16.135 -0.2763 -0.3827 -0.3808
16536TIP3    H171023   2.512   4.668  16.120  0.1925 -0.0853  2.2814
16536TIP3    H271024   2.389   4.754  16.143 -0.7593 -0.4868 -0.8067
16537TIP3   OH271025   0.089   1.510  13.232 -0.2868  0.1767 -0.7184
16537TIP3    H171026   0.134   1.592  13.254  1.0442 -0.2962 -1.5316
16537TIP3    H271027   0.000   1.536  13.208 -0.4578  1.1648  0.8502
16538TIP3   OH271028   5.131   4.852  12.180 -0.3829  0.3984  0.2428
16538TIP3    H171029   5.168   4.917  12.120 -1.5108  1.2812  0.4807
16538TIP3    H271030   5.208   4.812  12.221  0.3659  2.6457  1.2135
16539TIP3   OH271031   5.232   5.463   2.534  0.0791 -0.3844  0.0603
16539TIP3    H171032   5.212   5.446   2.442  1.1207 -1.7012  0.0429
16539TIP3    H271033   5.300   5.530   2.532  0.9506 -1.2479 -0.2122
16540TIP3   OH271034   6.512   3.048   2.267 -0.0067 -0.0855 -0.2404
16540TIP3    H171035   6.474   2.963   2.288  2.0253 -1.1343 -0.5088
16540TIP3    H271036   6.469   3.075   2.186 -0.6895 -0.8487 -0.1389
16541TIP3   OH271037   4.043   5.846  13.044 -0.4209 -0.2174 -0.0568
16541TIP3    H171038   4.000   5.888  12.970 -0.0851  1.6532  0.7430
16541TIP3    H271039   4.137   5.860  13.029 -0.2206 -1.5311 -0.2180
16542TIP3   OH271040   4.918   0.729  17.279 -0.2665 -0.0835  0.3087
16542TIP3    H171041   4.973   0.728  17.357 -1.3121 -0.8184  1.0626
16542TIP3    H271042   4.970   0.682  17.213  0.8564  1.0193  0.3686
16543TIP3   OH271043   5.616   4.667  12.074  0.2196  0.0620 -0.2592
16543TIP3    H171044   5.653   4.755  12.081  0.5165 -0.0061 -0.8661
16543TIP3    H271045   5.621   4.647  11.980 -2.1885  0.4130 -0.5467
16544TIP3   OH271046   4.245   5.321   4.426 -0.4472 -0.1320 -0.1671
16544TIP3    H171047   4.173   5.333   4.487  0.1091 -0.3463  0.5405
16544TIP3    H271048   4.308   5.266   4.473  0.9004  1.3321 -0.1654
16545TIP3   OH271049   0.039   5.418  12.118 -0.4845  0.2634 -0.1767
16545TIP3    H171050   0.116   5.452  12.164 -0.6595 -0.5321  0.7228
16545TIP3    H271051   0.074   5.349  12.061 -0.7143 -1.3419  1.5395
16546TIP3   OH271052   5.727   3.508  13.155 -0.0731 -0.3048  0.6566
16546TIP3    H171053   5.771   3.431  13.191 -0.7727 -1.4450 -0.8360
16546TIP3    H271054   5.788   3.543  13.090 -0.5747 -0.8011 -0.0954
16547TIP3   OH271055   3.554   5.158   4.169  0.2088  0.4348  0.3147
16547TIP3    H171056   3.588   5.244   4.194  2.4837  0.7543 -3.2017
16547TIP3    H271057   3.602   5.135   4.089 -1.5476 -3.3623  0.1286
16548TIP3   OH271058   5.797   1.608  16.424  0.2789  0.5167  0.4795
16548TIP3    H171059   5.856   1.665  16.375 -1.1875  2.5731  0.9923
16548TIP3    H271060   5.803   1.638  16.515 -1.5776  0.8359  0.5335
16549TIP3   OH271061   2.030   3.766  12.776 -0.2863 -0.2429  0.7890
16549TIP3    H171062   1.996   3.734  12.860 -1.7066 -0.8350  0.0164
16549TIP3    H271063   2.055   3.687  12.729 -1.2317 -0.0626 -0.0517
16550TIP3   OH271064   6.455   1.103   3.986  0.2212  0.1082  0.2225
16550TIP3    H171065   6.550   1.105   3.999  0.3188  3.2432 -0.3412
16550TIP3    H271066   6.424   1.188   4.015 -2.1646 -0.0550 -1.4964
16551TIP3   OH271067   4.644   5.162   2.714 -0.4823  0.6912  0.0197
16551TIP3    H171068   4.723   5.210   2.739  1.3451 -1.1774 -1.7744
16551TIP3    H271069   4.651   5.150   2.620 -3.5433  1.4113 -0.4176
16552TIP3   OH271070   2.824   4.390   1.285 -0.4617 -0.3496 -0.0098
16552TIP3    H171071   2.875   4.464   1.252  0.4112 -0.8074  0.2803
16552TIP3    H271072   2.752   4.381   1.224 -0.3210  0.4598 -0.3041
16553TIP3   OH271073   3.452   6.124  14.493 -0.1984 -0.6115  0.7490
16553TIP3    H171074   3.394   6.117  14.417 -1.1299  0.1460  1.3697
16553TIP3    H271075   3.525   6.177  14.463  0.9607 -2.7388 -0.4715
16554TIP3   OH271076   5.910   4.353   0.142  0.2629  0.5432 -0.2468
16554TIP3    H171077   5.861   4.285   0.096  0.1098  0.9311 -0.6614
16554TIP3    H271078   5.942   4.310   0.221  1.0459 -0.3017 -1.0077
16555TIP3   OH271079   5.124   6.531   3.850 -0.6185 -0.1737  0.3765
16555TIP3    H171080   5.092   6.441   3.843 -0.8965  0.0448 -1.7029
16555TIP3    H271081   5.207   6.524   3.896  0.2632 -1.7383 -1.3375
16556TIP3   OH271082   3.846   0.391  11.054 -0.5943  0.4536 -0.1983
16556TIP3    H171083   3.925   0.341  11.076  0.1344  1.7548  0.2738
16556TIP3    H271084   3.840   0.387  10.959 -0.9682 -1.1197 -0.1260
16557TIP3   OH271085   0.273   1.663  11.655 -0.1638  0.1980  0.4487
16557TIP3    H171086   0.265   1.655  11.560 -0.9606  1.4166  0.3946
16557TIP3    H271087   0.205   1.725  11.680  0.3044  0.2116  1.7720
16558TIP3   OH271088   3.804   1.879   4.416  0.8516  0.4960  0.1439
16558TIP3    H171089   3.725   1.834   4.388  1.1135  0.5106 -0.6598
16558TIP3    H271090   3.876   1.826   4.381  1.1787  1.0000  0.0267
16559TIP3   OH271091   5.656   4.442  15.652  0.4774  0.0264  0.2036
16559TIP3    H171092   5.667   4.378  15.722 -2.9018 -0.0009  0.8729
16559TIP3    H271093   5.705   4.406  15.578  0.8567 -1.9453  1.3682
16560TIP3   OH271094   2.389   5.380   1.500 -0.4308  0.1090 -0.1243
16560TIP3    H171095   2.383   5.285   1.505  1.9717 -0.0726  0.5641
16560TIP3    H271096   2.369   5.400   1.409 -1.4023 -1.0085 -0.1708
16561TIP3   OH271097   1.818   4.663   4.498 -0.1978 -0.1317 -0.3352
16561TIP3    H171098   1.789   4.751   4.521  1.5179  0.0685  1.2530
16561TIP3    H271099   1.869   4.634   4.574 -1.3062 -2.7829 -0.5129
16562TIP3   OH271100   0.370   1.745  11.196 -0.5592 -0.5143  0.0595
16562TIP3    H171101   0.329   1.777  11.115 -1.2590 -0.0222  0.5934
16562TIP3    H271102   0.313   1.673  11.224 -0.5595 -0.4080  0.3323
16563TIP3   OH271103   5.714   6.452  16.241  0.2629  0.1761 -0.6616
16563TIP3    H171104   5.670   6.530  16.274 -2.0394 -0.7741 -1.2584
16563TIP3    H271105   5.668   6.379  16.284  0.9657 -0.8941 -1.6686
16564TIP3   OH271106   1.403   6.277   5.699  0.0933  0.0565  0.3513
16564TIP3    H171107   1.325   6.248   5.746 -0.3901 -1.0261 -1.0840
16564TIP3    H271108   1.393   6.244   5.610  2.5532 -0.8028  0.2994
16565TIP3   OH271109   4.960   3.950   6.742 -0.3145  0.4038  0.2201
16565TIP3    H171110   5.006   3.875   6.705 -1.8715 -0.7413  0.5186
16565TIP3    H271111   4.980   3.946   6.835  0.3498  0.9277  0.1093
16566TIP3   OH271112   2.462   3.188  11.535 -0.5756 -0.0322 -0.1087
16566TIP3    H171113   2.388   3.171  11.594 -1.0983 -0.3577 -0.8371
16566TIP3    H271114   2.528   3.229  11.590 -0.9466 -0.5721  0.7603
16567TIP3   OH271115   0.897   6.133   5.638 -0.1799  0.6474  0.0341
16567TIP3    H171116   0.833   6.148   5.707  0.1986  0.5399  0.4132
16567TIP3    H271117   0.954   6.210   5.641 -0.2855  0.7404 -0.2960
16568TIP3   OH271118   3.990   4.035  13.511 -0.5373  0.2839  0.5298
16568TIP3    H171119   3.922   3.989  13.462 -0.8353 -0.1422  1.3371
16568TIP3    H271120   3.961   4.127  13.512 -0.1218  0.4545 -0.7664
16569TIP3   OH271121   3.186   1.733  15.041  0.8061 -0.1952 -0.7012
16569TIP3    H171122   3.198   1.698  15.130  0.8076  3.4555  0.8911
16569TIP3    H271123   3.096   1.708  15.018  1.0411 -1.8037 -0.0436
16570TIP3   OH271124   5.127   3.377  14.747  0.0251  0.1195  0.2985
16570TIP3    H171125   5.138   3.395  14.653 -0.0515 -0.7327  0.1228
16570TIP3    H271126   5.041   3.337  14.754 -0.7789  1.8416  0.9879
16571TIP3   OH271127   4.647   2.897   1.803  0.1633  0.4919 -0.5249
16571TIP3    H171128   4.656   2.987   1.835  1.0302  0.4836 -0.7241
16571TIP3    H271129   4.618   2.907   1.712 -0.1254  0.5618 -0.4255
16572TIP3   OH271130   3.182   3.261   1.967 -0.2190 -0.4757 -0.3713
16572TIP3    H171131   3.239   3.311   2.024  1.0311 -2.7550  0.4843
16572TIP3    H271132   3.098   3.258   2.013 -0.1121  0.2197 -0.1214
16573TIP3   OH271133   3.722   3.580   1.563 -0.5038 -0.2441 -0.2716
16573TIP3    H171134   3.755   3.504   1.516 -0.2326 -0.2334 -0.0981
16573TIP3    H271135   3.643   3.605   1.515  0.2724  0.3291 -1.2766
16574TIP3   OH271136   3.826   2.855   3.458 -0.5415  0.0065  0.4215
16574TIP3    H171137   3.818   2.762   3.435 -0.2910  0.0010  0.3572
16574TIP3    H271138   3.896   2.857   3.524 -1.6595 -0.0616  1.6617
16575TIP3   OH271139   1.952   6.464   0.725  0.7700  0.1470 -0.1472
16575TIP3    H171140   1.859   6.487   0.720  0.4600 -0.5098  1.6086
16575TIP3    H271141   1.998   6.547   0.711 -0.1590  0.8606  0.8404
16576TIP3   OH271142   2.586   6.719  15.367 -0.6321 -0.0650  0.7083
16576TIP3    H171143   2.615   6.711  15.276 -2.0919  0.2488  0.1896
16576TIP3    H271144   2.511   6.661  15.373 -2.4383  2.1403  0.8417
16577TIP3   OH271145   4.427   2.269   5.387  0.0289  0.1595  0.3534
16577TIP3    H171146   4.432   2.196   5.326 -1.0927  0.9669 -0.7623
16577TIP3    H271147   4.338   2.302   5.378  0.9479  2.6863 -0.4322
16578TIP3   OH271148   0.310   1.157  15.379  0.5033  0.2261 -0.1814
16578TIP3    H171149   0.248   1.096  15.340 -1.1851  1.7032  0.0821
16578TIP3    H271150   0.305   1.140  15.473  3.2412 -2.0944 -0.3224
16579TIP3   OH271151   4.617   3.109   2.831 -0.1132 -0.1922  0.2461
16579TIP3    H171152   4.558   3.039   2.860 -0.5674  0.4911  1.0255
16579TIP3    H271153   4.686   3.064   2.783 -0.3666 -1.1850  0.7832
16580TIP3   OH271154   0.248   1.731   0.840  0.4238 -0.1976 -0.6543
16580TIP3    H171155   0.325   1.677   0.861 -0.2261 -1.1388 -0.5922
16580TIP3    H271156   0.239   1.724   0.745 -0.0207 -0.7376 -0.5831
16581TIP3   OH271157   4.464   5.779   2.652 -0.2834 -0.0402  0.2065
16581TIP3    H171158   4.370   5.787   2.666 -0.5918 -0.3978 -1.4603
16581TIP3    H271159   4.473   5.699   2.600  1.0931 -0.8722  1.6455
16582TIP3   OH271160   4.563   5.129   3.846 -0.3145 -0.4551 -0.0438
16582TIP3    H171161   4.650   5.097   3.868 -0.7937 -1.8456 -0.1138
16582TIP3    H271162   4.525   5.156   3.930 -0.5613 -1.7595  0.2765
16583TIP3   OH271163   0.475   3.163  11.571  0.2036  0.0716  0.0430
16583TIP3    H171164   0.447   3.254  11.575 -1.5330 -0.3263 -1.7202
16583TIP3    H271165   0.561   3.165  11.528 -0.3441  0.8039 -1.0485
16584TIP3   OH271166   0.231   5.636   0.390  0.2885  0.8128 -0.2709
16584TIP3    H171167   0.302   5.578   0.420  0.4859  0.1653 -1.8602
16584TIP3    H271168   0.174   5.646   0.466  1.4881  0.4197  0.7141
16585TIP3   OH271169   4.496   1.436   2.763  0.0607 -0.4444  0.0055
16585TIP3    H171170   4.585   1.418   2.796  0.1965  0.5814  0.2192
16585TIP3    H271171   4.490   1.531   2.760 -1.1842 -0.4934  0.3948
16586TIP3   OH271172   4.318   4.144   3.246 -0.0865 -0.2739  0.1492
16586TIP3    H171173   4.312   4.120   3.154  0.1936 -0.5607  0.2035
16586TIP3    H271174   4.231   4.176   3.269  0.0136  0.3805 -0.3767
16587TIP3   OH271175   6.058   0.206   6.610 -0.3147  0.1928  0.3142
16587TIP3    H171176   6.029   0.127   6.565 -0.4204  0.2169  0.3386
16587TIP3    H271177   6.075   0.177   6.700 -0.4599  0.2188  0.3512
16588TIP3   OH271178   6.408   4.221  15.325 -0.0697  0.2196  0.6386
16588TIP3    H171179   6.500   4.240  15.341  0.6764 -1.2345 -1.4843
16588TIP3    H271180   6.377   4.182  15.407  0.5899  2.4860  2.0770
16589TIP3   OH271181   0.347   4.552   0.516  0.1806  0.0622 -0.3086
16589TIP3    H171182   0.378   4.632   0.560 -0.2836 -1.0986  2.3616
16589TIP3    H271183   0.427   4.508   0.488  0.7976 -0.6803  2.3549
16590TIP3   OH271184   5.172   4.729  17.127 -0.3489  0.2162  0.2333
16590TIP3    H171185   5.154   4.667  17.198  1.2676  0.2086  0.6862
16590TIP3    H271186   5.143   4.684  17.048  1.5472 -1.5444  0.4495
16591TIP3   OH271187   3.910   5.373  16.686  0.4551  0.2035 -0.0701
16591TIP3    H171188   3.969   5.396  16.757 -0.2909 -2.4832  1.5676
16591TIP3    H271189   3.835   5.333  16.730 -0.5252 -0.5793 -2.3242
16592TIP3   OH271190   2.315   3.599   1.021 -0.2142  0.2439  0.8328
16592TIP3    H171191   2.372   3.664   1.062 -0.8845  1.3070  0.1099
16592TIP3    H271192   2.256   3.649   0.965  0.8610 -1.1345 -1.7189
16593TIP3   OH271193   5.228   5.983   1.056 -0.2134  0.6304 -0.1197
16593TIP3    H171194   5.135   5.967   1.070 -0.1384 -0.7843 -1.1081
16593TIP3    H271195   5.269   5.897   1.064  1.0838  1.2988  0.7249
16594TIP3   OH271196   1.646   4.248  16.654  0.3333 -0.8396  0.2179
16594TIP3    H171197   1.592   4.327  16.666  0.7889 -0.6912  1.3492
16594TIP3    H271198   1.619   4.189  16.724  1.5479 -0.8130  0.7223
16595TIP3   OH271199   4.635   4.883  16.415  0.0915 -0.7286  0.0301
16595TIP3    H171200   4.584   4.960  16.392  0.7835 -0.6113 -1.1535
16595TIP3    H271201   4.645   4.834  16.333  0.5146 -1.5717  0.5645
16596TIP3   OH271202   6.124   3.771  17.119 -0.1504 -0.1145  0.5202
16596TIP3    H171203   6.172   3.763  17.036  1.5533  0.2759  1.4147
16596TIP3    H271204   6.043   3.722  17.104 -0.1548  0.3990 -1.5461
16597TIP3   OH271205   0.930   1.421  11.954  0.1879 -0.3871 -0.0043
16597TIP3    H171206   0.919   1.516  11.958  0.7109 -0.2858 -0.7127
16597TIP3    H271207   0.849   1.386  11.991 -0.2634  0.3309 -0.2855
16598TIP3   OH271208   3.222   4.521   5.842 -0.3891 -0.4347 -0.0674
16598TIP3    H171209   3.291   4.571   5.886 -0.0831 -0.2507 -0.7423
16598TIP3    H271210   3.221   4.437   5.887  2.0672 -1.4390 -1.6367
16599TIP3   OH271211   6.500   3.595   4.125 -0.1187  0.7532 -0.6737
16599TIP3    H171212   6.587   3.555   4.116 -0.6267 -0.0975 -2.2052
16599TIP3    H271213   6.440   3.528   4.093 -1.1541  2.1635 -1.8083
16600TIP3   OH271214   6.236   4.868   6.308 -0.4044 -0.2800  0.0060
16600TIP3    H171215   6.236   4.793   6.367  3.7443  0.0520  0.7506
16600TIP3    H271216   6.278   4.837   6.228  1.2278  1.1038  0.2672
16601TIP3   OH271217   3.345   2.019  17.039  0.1432 -0.6607  0.6460
16601TIP3    H171218   3.398   2.050  16.965 -0.8124 -1.0021 -0.2114
16601TIP3    H271219   3.364   1.925  17.045  0.8907 -0.4713  1.4199
16602TIP3   OH271220   2.002   5.927  14.920  0.6120  0.5623  0.1446
16602TIP3    H171221   2.083   5.931  14.971  0.3031 -1.8022  0.9398
16602TIP3    H271222   2.016   5.987  14.847  2.4339  1.3992  1.1332
16603TIP3   OH271223   6.319   5.210   0.320  0.1682 -0.0462  0.2145
16603TIP3    H171224   6.329   5.134   0.377  0.2950 -0.2231 -0.0392
16603TIP3    H271225   6.350   5.284   0.372 -1.1285  0.0385  0.9217
16604TIP3   OH271226   3.985   6.403   1.921 -0.0305  0.1351 -0.3017
16604TIP3    H171227   3.925   6.430   1.852 -1.4638  0.2887  0.9513
16604TIP3    H271228   3.967   6.463   1.994 -0.7557 -1.8873  1.2846
16605TIP3   OH271229   3.864   5.733   1.755  0.0383 -0.5084 -0.1293
16605TIP3    H171230   3.888   5.644   1.780 -1.3643 -0.6395  0.8361
16605TIP3    H271231   3.928   5.788   1.799  1.2948 -1.0427 -1.2283
16606TIP3   OH271232   1.063   1.095   0.262 -0.2429 -0.0654 -0.2756
16606TIP3    H171233   1.016   1.040   0.200 -0.5151  1.6535 -1.6735
16606TIP3    H271234   1.148   1.111   0.221  0.8261 -1.4153  1.2648
16607TIP3   OH271235   1.977   2.582   5.966  0.7230 -0.7133  0.2715
16607TIP3    H171236   2.023   2.562   6.047 -0.3922  0.7799  1.3302
16607TIP3    H271237   1.886   2.596   5.992  0.0389 -1.5778 -1.4554
16608TIP3   OH271238   5.116   0.606   2.907  0.0374 -0.2153  0.2746
16608TIP3    H171239   5.024   0.582   2.904 -0.5640  1.4498  2.4118
16608TIP3    H271240   5.120   0.693   2.867  0.6029 -0.1057  0.5505
16609TIP3   OH271241   3.227   0.140   2.885 -0.1984 -0.4246 -0.0004
16609TIP3    H171242   3.300   0.113   2.829  1.1347  1.2945  0.7911
16609TIP3    H271243   3.150   0.098   2.847  0.9916 -1.1156 -1.7582
16610TIP3   OH271244   4.228   5.981   2.600  0.1535  0.5050 -0.4614
16610TIP3    H171245   4.192   6.046   2.539 -2.0632 -0.8119 -0.6940
16610TIP3    H271246   4.282   5.925   2.544 -1.9557 -0.7640 -1.3678
16611TIP3   OH271247   0.055   2.485  12.005 -0.2714  0.6077  0.1677
16611TIP3    H171248   0.010   2.507  12.086 -1.4528  0.7586 -0.4975
16611TIP3    H271249  -0.001   2.420  11.963  0.5510  0.1930 -0.3253
16612TIP3   OH271250   5.684   0.364  15.758  0.0013  0.5530  0.0470
16612TIP3    H171251   5.680   0.269  15.768  0.5212  0.6722  1.5993
16612TIP3    H271252   5.768   0.380  15.714 -0.4401  0.2572 -0.9172
16613TIP3   OH271253   1.588   3.078   3.485 -0.6681  0.8187 -0.9910
16613TIP3    H171254   1.532   3.000   3.492  1.8265 -1.1855 -1.5562
16613TIP3    H271255   1.650   3.068   3.558  1.9996  0.1684 -3.1885
16614TIP3   OH271256   2.923   0.525  15.886  0.1678 -0.1401 -0.6451
16614TIP3    H171257   2.867   0.523  15.808  0.9655  0.1343 -1.2474
16614TIP3    H271258   2.962   0.438  15.889 -0.9787 -0.6502  0.3161
16615TIP3   OH271259   2.129   3.828   4.244 -0.2874 -0.5914 -0.6548
16615TIP3    H171260   2.186   3.836   4.321 -1.2662  1.0144 -0.0298
16615TIP3    H271261   2.183   3.785   4.178  1.3771  0.1057  0.1840
16616TIP3   OH271262   4.684   4.421   2.846  0.0192  0.0651  0.2457
16616TIP3    H171263   4.614   4.386   2.900  0.6616 -0.1671  0.9370
16616TIP3    H271264   4.647   4.422   2.757 -0.4390 -1.2076  0.3962
16617TIP3   OH271265   3.686   2.111  17.429  0.0506 -0.3297  0.6903
16617TIP3    H171266   3.648   2.158  17.503 -0.3982 -1.5888  1.2953
16617TIP3    H271267   3.697   2.022  17.461 -2.0046 -1.4234 -1.3654
16618TIP3   OH271268   3.991   4.104  10.321  0.3497 -0.1603 -0.2203
16618TIP3    H171269   4.041   4.186  10.314  0.0723  0.0775  0.5143
16618TIP3    H271270   4.039   4.053  10.386 -0.7450  0.3659  1.0445
16619TIP3   OH271271   0.556   5.009   6.545  0.0701  0.6854 -0.1154
16619TIP3    H171272   0.589   4.940   6.488  0.3869  1.2211 -0.5959
16619TIP3    H271273   0.623   5.077   6.541 -1.0236  1.7681 -1.0371
16620TIP3   OH271274   5.413   4.525   6.365 -0.0923  0.5629  0.6737
16620TIP3    H171275   5.441   4.617   6.361  1.6117  0.0749  0.7167
16620TIP3    H271276   5.318   4.529   6.351  0.0384  2.2711 -0.0653
16621TIP3   OH271277   4.559   6.526  14.283  0.5878 -0.4784  0.1541
16621TIP3    H171278   4.611   6.447  14.301  1.3826 -0.8323 -3.1033
16621TIP3    H271279   4.625   6.596  14.277  0.2094 -0.1352 -0.0039
16622TIP3   OH271280   0.351   3.745  12.669 -1.0428  0.4900  0.5419
16622TIP3    H171281   0.286   3.698  12.617  0.7505 -0.2012 -1.2478
16622TIP3    H271282   0.329   3.837  12.659 -0.2604  0.4665 -2.3496
16623TIP3   OH271283   1.538   2.582   2.637 -0.0559  0.2335  0.1665
16623TIP3    H171284   1.479   2.520   2.681 -1.3659  2.4491  1.7128
16623TIP3    H271285   1.620   2.575   2.686 -1.1230  1.7748  2.3643
16624TIP3   OH271286   6.670   5.136  14.031 -0.0617  0.6144  0.2958
16624TIP3    H171287   6.746   5.166  14.081  0.2420  0.6739 -0.1896
16624TIP3    H271288   6.673   5.187  13.950  0.3832 -0.5992 -0.4891
16625TIP3   OH271289   3.168   5.015  16.792 -0.1811 -0.1098 -0.1687
16625TIP3    H171290   3.203   5.038  16.706  2.9518  1.6236  1.4245
16625TIP3    H271291   3.087   5.065  16.798  0.7067  1.5755 -1.2622
16626TIP3   OH271292   0.514   2.706   0.798  0.3843 -0.3419 -0.0264
16626TIP3    H171293   0.483   2.648   0.729 -0.2677 -0.0052 -0.0224
16626TIP3    H271294   0.436   2.751   0.830  0.7724  0.0085  0.4668
16627TIP3   OH271295   5.581   4.980   6.104 -0.1977  0.0937  1.0707
16627TIP3    H171296   5.605   5.048   6.167  1.2579 -0.3821  1.0716
16627TIP3    H271297   5.653   4.917   6.108 -1.0598 -0.9868  0.3935
16628TIP3   OH271298   3.678   0.351  12.655 -1.1056 -0.2770 -0.0313
16628TIP3    H171299   3.661   0.438  12.619  3.0512  0.7930  0.1019
16628TIP3    H271300   3.631   0.350  12.738 -1.0973  1.9171  0.0587
16629TIP3   OH271301   6.467   6.216  14.844  0.3985 -0.1005 -0.0477
16629TIP3    H171302   6.417   6.294  14.867  0.2277 -0.8268  2.3804
16629TIP3    H271303   6.533   6.209  14.913  0.7233 -1.8115 -0.4749
16630TIP3   OH271304   4.164   4.041   6.123 -0.5477 -0.3091 -0.6640
16630TIP3    H171305   4.157   3.952   6.158 -1.4835 -0.7087 -1.7844
16630TIP3    H271306   4.211   4.030   6.040 -1.2576  0.1329 -1.1346
16631TIP3   OH271307   5.971   2.490  13.861 -0.0562 -0.0599  0.3864
16631TIP3    H171308   5.963   2.397  13.839 -1.4680 -0.0267  0.6693
16631TIP3    H271309   5.923   2.500  13.943  0.1997  0.9016  0.4355
16632TIP3   OH271310   5.599   4.751  14.524 -0.1886 -0.5788  0.6455
16632TIP3    H171311   5.690   4.754  14.553  0.6386  0.5005 -1.7470
16632TIP3    H271312   5.605   4.728  14.431 -2.3208  0.0860  0.2993
16633TIP3   OH271313   3.294   2.446   1.039 -0.1705 -0.0985  0.5913
16633TIP3    H171314   3.299   2.514   1.106 -0.4572 -0.9417  1.5088
16633TIP3    H271315   3.215   2.467   0.989  0.3117  0.8125  0.1901
16634TIP3   OH271316   4.136   2.814   4.644 -0.5087 -0.7156 -0.1311
16634TIP3    H171317   4.196   2.829   4.716 -1.6245  0.4113  0.6056
16634TIP3    H271318   4.190   2.774   4.576  0.6822 -1.3040  1.1151
16635TIP3   OH271319   0.701   1.314  11.745 -0.2051 -0.0074  0.5704
16635TIP3    H171320   0.694   1.271  11.660 -1.4272 -0.6731  0.9788
16635TIP3    H271321   0.711   1.242  11.807  1.8243  0.5216  0.9204
16636TIP3   OH271322   3.296   3.048  12.668 -0.0768  0.5899 -0.6083
16636TIP3    H171323   3.352   2.973  12.650  0.0586  0.7426 -0.8301
16636TIP3    H271324   3.336   3.120  12.619  1.5628  1.5663  1.9554
16637TIP3   OH271325   1.938   2.911   3.541 -0.3223  0.8974 -0.8247
16637TIP3    H171326   1.852   2.909   3.582  0.2634 -2.8560  0.6381
16637TIP3    H271327   1.986   2.979   3.588 -2.7373  4.1368 -2.6669
16638TIP3   OH271328   0.627   1.281  14.099 -0.2498 -0.0583 -0.5643
16638TIP3    H171329   0.635   1.311  14.008 -1.0461 -0.2792 -0.7102
16638TIP3    H271330   0.611   1.187  14.092  0.6219 -0.2459 -0.1565
16639TIP3   OH271331   3.793   4.359  14.040  0.2750 -0.4872 -0.5184
16639TIP3    H171332   3.836   4.327  14.119  0.2450  1.9934  0.6254
16639TIP3    H271333   3.794   4.285  13.980  0.8137 -2.3009  1.5889
16640TIP3   OH271334   2.077   6.606   0.250  0.7694  1.0980 -0.2697
16640TIP3    H171335   2.000   6.661   0.260  1.1254  1.5805 -0.1101
16640TIP3    H271336   2.151   6.665   0.268  1.2969  1.2123 -2.5240
16641TIP3   OH271337   1.038   2.000   3.121 -0.3219 -0.5455  0.5080
16641TIP3    H171338   1.070   2.081   3.161  0.7862 -0.5363 -0.3323
16641TIP3    H271339   0.989   1.956   3.190  1.8796 -0.7469  2.0337
16642TIP3   OH271340   3.511   1.578  13.770 -0.2518  0.6029 -0.2581
16642TIP3    H171341   3.507   1.669  13.741 -1.9322  0.6468  0.0316
16642TIP3    H271342   3.503   1.583  13.865 -2.3543  0.0870 -0.3645
16643TIP3   OH271343   5.663   5.994   4.498 -0.5287 -0.1770 -0.4192
16643TIP3    H171344   5.742   5.957   4.537  0.4651  0.7991 -1.4480
16643TIP3    H271345   5.681   6.087   4.490 -1.5508 -0.0277 -1.2400
16644TIP3   OH271346   0.981   2.851   4.869 -0.7016 -0.0992 -0.0207
16644TIP3    H171347   0.953   2.911   4.800 -1.2709 -0.5329 -0.1830
16644TIP3    H271348   0.902   2.837   4.922 -0.7730 -1.2097 -0.3795
16645TIP3   OH271349   3.553   2.726   3.040  0.8995  0.3641 -0.4171
16645TIP3    H171350   3.643   2.735   3.007  0.2920 -1.2518 -2.7894
16645TIP3    H271351   3.555   2.647   3.094  1.2243  1.3149  1.0313
16646TIP3   OH271352   5.406   1.817   0.161 -0.0849 -0.1500  0.1350
16646TIP3    H171353   5.454   1.763   0.098  0.8912  0.6594  0.1637
16646TIP3    H271354   5.446   1.904   0.154  0.8096 -0.2784  2.6379
16647TIP3   OH271355   2.877   3.488   0.663 -0.1567 -0.2721 -0.1504
16647TIP3    H171356   2.848   3.562   0.609  2.3111  1.5213  0.7726
16647TIP3    H271357   2.931   3.435   0.604  1.1756  0.7864  0.0621
16648TIP3   OH271358   2.269   3.380   2.093  0.4794  0.1472  0.3897
16648TIP3    H171359   2.332   3.439   2.052  0.2192  0.6013  0.6383
16648TIP3    H271360   2.209   3.438   2.140  0.2475 -0.3185  0.6721
16649TIP3   OH271361   5.120   2.107   2.604 -0.3473 -0.1951  0.1382
16649TIP3    H171362   5.062   2.034   2.628 -1.0908  0.1962 -0.4069
16649TIP3    H271363   5.069   2.185   2.625  0.2803  0.1672  0.3304
16650TIP3   OH271364   1.735   1.535  11.901  0.5323  0.0244 -0.5037
16650TIP3    H171365   1.646   1.547  11.936  0.6414  0.3515 -0.3257
16650TIP3    H271366   1.792   1.561  11.974  0.7909 -1.2636 -0.2278
16651TIP3   OH271367   6.071   4.546   4.714  0.2503  0.5326  0.0273
16651TIP3    H171368   6.009   4.596   4.661 -1.2307 -1.8043 -0.6022
16651TIP3    H271369   6.067   4.587   4.801 -1.9626  0.6837 -0.0961
16652TIP3   OH271370   1.267   3.913   1.360 -0.1747  0.2583  0.3526
16652TIP3    H171371   1.175   3.897   1.338  0.2521 -0.8815 -0.7499
16652TIP3    H271372   1.267   4.000   1.401 -1.8445 -0.0934  1.1988
16653TIP3   OH271373   6.508   3.671  17.007 -0.0225  0.5306 -0.1305
16653TIP3    H171374   6.501   3.576  16.995  1.0633  0.5133 -0.7273
16653TIP3    H271375   6.459   3.689  17.087  1.8015 -0.8817  1.3903
16654TIP3   OH271376   0.613   2.972   3.809  0.2781  0.2256  0.5826
16654TIP3    H171377   0.609   3.067   3.814 -0.5441  0.1266  3.1124
16654TIP3    H271378   0.693   2.948   3.855  0.5314 -0.3390 -0.1179
16655TIP3   OH271379   5.070   1.004   2.178  0.5301 -0.0954  0.1150
16655TIP3    H171380   5.062   0.953   2.097 -1.5002  0.4684 -0.1068
16655TIP3    H271381   5.027   1.087   2.159 -2.9193 -1.0491  2.5619
16656TIP3   OH271382   1.705   3.993  11.243 -0.2298 -0.2966  0.6193
16656TIP3    H171383   1.776   4.049  11.209  1.8188 -1.3383  2.8455
16656TIP3    H271384   1.668   4.044  11.315 -1.1850 -0.1417  0.0350
16657TIP3   OH271385   4.507   1.397  15.409 -0.3220  0.3861  0.1726
16657TIP3    H171386   4.570   1.329  15.383  0.2226  0.9379  0.0272
16657TIP3    H271387   4.447   1.404  15.335 -0.4241  0.0256  0.2146
16658TIP3   OH271388   3.860   1.570  12.244 -0.6498  0.4015 -0.1007
16658TIP3    H171389   3.938   1.515  12.251  1.0842  2.5736 -0.9991
16658TIP3    H271390   3.887   1.655  12.280 -2.9177  0.9521  0.4322
16659TIP3   OH271391   2.374   6.505   1.165 -0.0067  0.5019 -0.7621
16659TIP3    H171392   2.312   6.501   1.092 -0.4404  1.2049 -0.4495
16659TIP3    H271393   2.374   6.598   1.190  0.5157  0.3518 -0.1968
16660TIP3   OH271394   2.326   4.034   0.298 -0.1397  0.3979  0.1132
16660TIP3    H171395   2.393   4.071   0.241  1.3222 -1.6446  0.3945
16660TIP3    H271396   2.370   4.021   0.382 -0.9634 -0.7343  0.3966
16661TIP3   OH271397   5.889   2.279   6.192  0.0613 -0.4171 -0.5954
16661TIP3    H171398   5.881   2.192   6.232  1.7023  0.0455  0.8957
16661TIP3    H271399   5.801   2.299   6.159 -0.3998 -2.5329 -0.7814
16662TIP3   OH271400   3.991   6.684   5.410 -0.6634 -0.3251  0.3557
16662TIP3    H171401   4.018   6.687   5.502  0.8011 -0.4773 -0.0476
16662TIP3    H271402   3.966   6.774   5.389 -0.8116 -0.2509  0.8399
16663TIP3   OH271403   0.188   0.340  12.185  0.0779 -0.4206 -0.5657
16663TIP3    H171404   0.243   0.396  12.131 -0.1178  0.2173 -0.1047
16663TIP3    H271405   0.249   0.284  12.233  0.3679  0.6797  0.3860
16664TIP3   OH271406   3.693   4.222   4.751 -0.3014 -0.0826  0.5288
16664TIP3    H171407   3.760   4.157   4.732  0.4091  0.5790  0.6965
16664TIP3    H271408   3.613   4.172   4.764  0.0157 -0.8376 -0.3492
16665TIP3   OH271409   5.431   3.125  13.498 -0.1824  0.3541 -0.4104
16665TIP3    H171410   5.407   3.169  13.416 -0.0762  0.1796 -0.5355
16665TIP3    H271411   5.451   3.035  13.472 -0.7771  0.1286 -0.1009
16666TIP3   OH271412   5.010   0.930  16.653 -0.2616  0.5459 -0.0052
16666TIP3    H171413   5.055   0.845  16.657 -2.3772 -0.7704 -1.7638
16666TIP3    H271414   5.067   0.985  16.600  0.6582 -0.0993  0.2841
16667TIP3   OH271415   6.207   5.036   0.675  0.3824  0.0355 -0.2116
16667TIP3    H171416   6.268   5.018   0.748  0.0357 -3.3278 -0.5739
16667TIP3    H271417   6.128   4.987   0.698 -1.2919  2.2143 -1.0078
16668TIP3   OH271418   6.127   1.911  14.970  0.6316  0.1718  0.3009
16668TIP3    H171419   6.082   1.992  14.948  0.7005  0.6931  1.9843
16668TIP3    H271420   6.067   1.842  14.943 -0.2809  0.8233  0.6467
16669TIP3   OH271421   1.753   6.385  15.281 -0.3335 -0.0425  0.3198
16669TIP3    H171422   1.659   6.368  15.275 -0.4399  0.4350  0.5988
16669TIP3    H271423   1.768   6.407  15.373  0.2988 -1.5280  0.6107
16670TIP3   OH271424   4.721   4.213  11.769  0.4749  0.2148 -0.7685
16670TIP3    H171425   4.641   4.232  11.819 -0.2074  1.2609 -2.1571
16670TIP3    H271426   4.765   4.298  11.761  0.6662  0.0430 -1.7244
16671TIP3   OH271427   1.501   6.022   2.366  0.5720 -0.4131 -0.7206
16671TIP3    H171428   1.410   5.996   2.352  0.3905  0.4274 -1.1568
16671TIP3    H271429   1.498   6.118   2.374  1.5401 -0.2566 -1.8631
16672TIP3   OH271430   2.886   1.534  13.755  0.0122  0.1283  0.3448
16672TIP3    H171431   2.845   1.471  13.813  0.6805 -0.2057  0.4615
16672TIP3    H271432   2.910   1.484  13.677  0.6721  0.1992  0.4960
16673TIP3   OH271433   4.016   6.579  16.979  0.1973  0.3453 -0.4089
16673TIP3    H171434   3.989   6.495  16.942 -1.8517  0.6747  0.2007
16673TIP3    H271435   4.000   6.642  16.909 -0.9215  0.5719  0.0250
16674TIP3   OH271436   6.239   0.703   0.870  0.0059  0.0074 -0.3553
16674TIP3    H171437   6.201   0.751   0.797 -1.6351 -1.8318 -0.8044
16674TIP3    H271438   6.212   0.751   0.948 -0.1825  0.7218 -0.8488
16675TIP3   OH271439   5.239   2.859   6.587  0.1180 -0.3925 -0.1760
16675TIP3    H171440   5.163   2.916   6.593  0.2109 -0.3748  3.3533
16675TIP3    H271441   5.313   2.915   6.607  0.5092 -1.1975  0.7499
16676TIP3   OH271442   5.836   2.710   4.196  0.0737  0.4003  0.0924
16676TIP3    H171443   5.753   2.756   4.189  0.6120  1.5145  0.7977
16676TIP3    H271444   5.879   2.748   4.273  0.7610 -0.9306  0.4083
16677TIP3   OH271445   4.136   5.747   2.016 -0.0077  0.1015  0.4960
16677TIP3    H171446   4.116   5.840   2.010  1.5736  0.4924  0.7106
16677TIP3    H271447   4.073   5.712   2.079 -1.4891  0.7334 -0.5914
16678TIP3   OH271448   3.338   6.413  11.369 -0.0902  0.2349  0.2678
16678TIP3    H171449   3.323   6.410  11.464 -0.9384  1.4692  0.2003
16678TIP3    H271450   3.281   6.484  11.338  3.2813  2.8165 -0.5832
16679TIP3   OH271451   5.972   0.776  11.467  0.0871  0.2728  0.8379
16679TIP3    H171452   5.987   0.815  11.553 -0.5369  0.6504  0.7797
16679TIP3    H271453   5.901   0.828  11.429 -2.2948 -2.2143  1.6093
16680TIP3   OH271454   2.577   4.702  14.889 -0.2142  0.1103  0.1270
16680TIP3    H171455   2.641   4.688  14.819 -0.2666 -0.1215  0.1237
16680TIP3    H271456   2.527   4.621  14.891  0.3441 -0.2254  1.0147
16681TIP3   OH271457   1.353   2.882  12.192  0.1821  0.0602  0.5289
16681TIP3    H171458   1.297   2.944  12.145 -1.0273 -0.5202  1.1487
16681TIP3    H271459   1.353   2.912  12.282  0.3211 -0.3208  0.6593
16682TIP3   OH271460   2.281   4.717   3.166  0.1740 -0.7612  0.3810
16682TIP3    H171461   2.354   4.657   3.149 -0.9608 -2.1391  0.2021
16682TIP3    H271462   2.249   4.742   3.079  0.4226 -0.1513  0.4592
16683TIP3   OH271463   6.270   6.270   4.493  0.4136 -0.5718  0.1160
16683TIP3    H171464   6.289   6.232   4.406  2.2439  0.3187  0.0806
16683TIP3    H271465   6.324   6.349   4.497  0.1507 -0.4442  1.9646
16684TIP3   OH271466   2.197   2.982  11.502 -0.1716 -0.6514 -0.0108
16684TIP3    H171467   2.191   2.992  11.407 -0.6010 -0.8781 -0.0087
16684TIP3    H271468   2.238   2.896  11.514 -0.9057 -1.0017  0.0147
16685TIP3   OH271469   3.804   2.574   0.297  0.5856  0.4511  0.4258
16685TIP3    H171470   3.777   2.661   0.327 -0.5510  0.0381  0.6594
16685TIP3    H271471   3.790   2.576   0.203 -1.5614 -0.1606  0.6849
16686TIP3   OH271472   4.202   4.662   0.044  0.5343  0.3845  0.3588
16686TIP3    H171473   4.114   4.632   0.024  0.5381 -0.2268  1.2264
16686TIP3    H271474   4.237   4.597   0.105  2.2250 -0.3544 -1.2843
16687TIP3   OH271475   3.419   3.544   5.854  0.6277 -0.3556  0.2570
16687TIP3    H171476   3.483   3.544   5.925  2.5406 -1.9427 -1.3405
16687TIP3    H271477   3.383   3.455   5.853 -1.2918  0.3577  0.7859
16688TIP3   OH271478   3.696   2.008   4.875  0.8019  0.2214 -0.3618
16688TIP3    H171479   3.727   2.032   4.788  0.7671 -0.2162 -0.4997
16688TIP3    H271480   3.633   1.937   4.859  0.9254  0.0216  0.0277
16689TIP3   OH271481   1.339   5.406  12.618  0.1515 -0.5203  0.5577
16689TIP3    H171482   1.397   5.331  12.626  0.8483  0.0181  0.6480
16689TIP3    H271483   1.324   5.435  12.708 -1.2860 -1.4087  0.6367
16690TIP3   OH271484   3.953   1.403   6.172  0.0105  0.2491 -0.1508
16690TIP3    H171485   4.020   1.386   6.238 -1.1638 -2.4333  0.4694
16690TIP3    H271486   3.887   1.455   6.217 -0.6452 -1.3234  0.7996
16691TIP3   OH271487   2.372   2.016   2.132 -0.6441  0.2539  0.2225
16691TIP3    H171488   2.444   1.959   2.160  0.0157  0.6176 -0.6894
16691TIP3    H271489   2.328   1.968   2.063 -0.6181  0.4811  0.0471
16692TIP3   OH271490   0.138   6.070  12.785 -0.3911 -0.0078 -0.8578
16692TIP3    H171491   0.128   6.117  12.868  2.9895  0.0337 -0.3189
16692TIP3    H271492   0.121   5.978  12.807  2.9643 -0.4235  0.6931
16693TIP3   OH271493   1.004   0.116  15.880  0.1618  0.0412  0.5963
16693TIP3    H171494   1.059   0.111  15.802 -0.8055 -0.8581 -0.0473
16693TIP3    H271495   0.936   0.050  15.867  0.0881 -0.2649  2.2991
16694TIP3   OH271496   6.592   5.856   5.629  0.0089  0.3132  0.6723
16694TIP3    H171497   6.631   5.799   5.563 -4.2461 -1.5400 -0.5937
16694TIP3    H271498   6.551   5.926   5.579 -0.4786  0.7495  1.6516
16695TIP3   OH271499   3.025   2.321  13.746  0.0981  0.2470  0.0287
16695TIP3    H171500   3.066   2.244  13.707  0.6617  1.2008 -1.3461
16695TIP3    H271501   3.054   2.394  13.691 -0.9086  1.3657  0.9264
16696TIP3   OH271502   4.026   1.547  15.588 -0.1263 -0.2353  0.2515
16696TIP3    H171503   4.074   1.605  15.529  0.4813  1.1607  2.0359
16696TIP3    H271504   3.936   1.547  15.554 -0.1916  1.9477  0.3028
16697TIP3   OH271505   4.888   5.835   6.459  0.2717  0.2371  0.3380
16697TIP3    H171506   4.966   5.800   6.502  0.8375  1.9972  0.8025
16697TIP3    H271507   4.822   5.766   6.471  2.0198 -1.8267 -1.1039
16698TIP3   OH271508   2.716   3.734  11.448  0.3822 -0.4639 -0.4866
16698TIP3    H171509   2.776   3.773  11.512 -1.0481  0.4558  0.3426
16698TIP3    H271510   2.697   3.805  11.387 -0.6504 -0.4338 -0.1486
16699TIP3   OH271511   2.649   0.959  14.571  0.6178 -0.1618 -0.1468
16699TIP3    H171512   2.628   0.899  14.642  1.2696 -0.7238 -0.4202
16699TIP3    H271513   2.585   0.940  14.503 -0.8635  1.2948  0.7736
16700TIP3   OH271514   6.692   1.773   5.480 -0.4630  0.4426 -0.0716
16700TIP3    H171515   6.700   1.788   5.386 -2.3680  0.2386 -0.2936
16700TIP3    H271516   6.601   1.794   5.501 -0.2595 -0.1627  1.6013
16701TIP3   OH271517   3.682   0.064  13.267  0.3236  0.0963  0.1776
16701TIP3    H171518   3.699   0.013  13.347 -0.5158  0.1602  0.4021
16701TIP3    H271519   3.659   0.151  13.299 -0.4192  0.0114 -0.1162
16702TIP3   OH271520   2.401   3.176   4.510 -0.0027  0.1706  0.1933
16702TIP3    H171521   2.339   3.226   4.458  1.4356  2.9419  0.9676
16702TIP3    H271522   2.444   3.118   4.448  0.4140  2.1200 -1.4295
16703TIP3   OH271523   0.917   0.059   5.178 -0.4684  0.1588 -0.0503
16703TIP3    H171524   0.917   0.147   5.140  2.3308  0.1139 -0.3661
16703TIP3    H271525   0.912   0.073   5.273 -1.0986  0.5904 -0.1453
16704TIP3   OH271526   0.723   2.343  13.661 -0.3961  0.2631  0.3141
16704TIP3    H171527   0.730   2.406  13.733 -1.6914 -0.9140  1.5086
16704TIP3    H271528   0.763   2.263  13.694 -0.7187 -0.2053 -0.3913
16705TIP3   OH271529   3.276   6.507   6.479 -0.2517 -0.1360 -0.6470
16705TIP3    H171530   3.328   6.487   6.557 -0.1535 -2.1477 -1.1637
16705TIP3    H271531   3.200   6.554   6.511 -1.0759 -2.3925  0.9348
16706TIP3   OH271532   0.330   6.519  17.125 -0.3222  0.3736 -0.7886
16706TIP3    H171533   0.401   6.455  17.129 -1.8895 -1.3480  0.4505
16706TIP3    H271534   0.302   6.518  17.033  0.3294  0.0812 -0.9912
16707TIP3   OH271535   2.386   0.220  14.671  0.5498  0.5940  0.4110
16707TIP3    H171536   2.425   0.292  14.719  1.1159  1.7282 -1.6462
16707TIP3    H271537   2.428   0.222  14.585 -1.0541 -0.7431 -0.4735
16708TIP3   OH271538   5.318   5.463  17.381  0.2258 -0.1705 -0.1167
16708TIP3    H171539   5.338   5.506  17.464  0.8512 -0.3142 -0.1833
16708TIP3    H271540   5.309   5.370  17.403  2.4444 -0.5397 -0.4832
16709TIP3   OH271541   6.560   6.112  17.373 -0.2420 -0.3357 -0.2690
16709TIP3    H171542   6.482   6.060  17.352 -1.4582  1.0738  0.5166
16709TIP3    H271543   6.609   6.115  17.291  0.1890 -3.1400 -0.2014
16710TIP3   OH271544   6.348   5.113  13.163 -0.0063  0.1045  0.0264
16710TIP3    H171545   6.276   5.150  13.110 -0.7595 -1.3555 -0.0146
16710TIP3    H271546   6.336   5.018  13.156  1.1855 -0.1380  1.0683
16711TIP3   OH271547   0.670   2.818   3.329 -0.1661 -0.4168  0.3463
16711TIP3    H171548   0.765   2.830   3.325 -0.0842 -1.0297  0.3415
16711TIP3    H271549   0.645   2.796   3.239 -0.2341 -0.7726  0.4495
16712TIP3   OH271550   4.676   3.007  14.170 -0.0313  0.2447  0.6174
16712TIP3    H171551   4.765   2.987  14.142 -0.0484  1.2519 -0.1826
16712TIP3    H271552   4.621   2.980  14.096 -0.2021  1.5569  0.2513
16713TIP3   OH271553   5.715   1.678   6.008 -0.1358  0.3935 -0.5794
16713TIP3    H171554   5.732   1.751   6.068  1.1283  0.1703 -0.6588
16713TIP3    H271555   5.662   1.617   6.060 -0.1292  0.7814 -0.1047
16714TIP3   OH271556   1.234   0.210  16.453 -0.3886 -0.3175 -0.3297
16714TIP3    H171557   1.193   0.267  16.518 -0.3443 -0.4705 -0.1670
16714TIP3    H271558   1.275   0.270  16.391  1.1709 -0.1622  0.7896
16715TIP3   OH271559   2.208   4.683   3.515  0.0215  0.5351  0.0893
16715TIP3    H171560   2.212   4.746   3.587  0.1343  0.8790 -0.2217
16715TIP3    H271561   2.119   4.692   3.481 -0.1201  0.1807  0.3552
16716TIP3   OH271562   0.569   3.889   2.987  0.3775  0.6219  0.0068
16716TIP3    H171563   0.632   3.909   2.918 -0.9245  0.7334 -1.1965
16716TIP3    H271564   0.562   3.971   3.037  0.2097  1.0308 -0.6664
16717TIP3   OH271565   2.369   4.056   3.958 -0.0816 -0.1259 -0.1668
16717TIP3    H171566   2.312   4.085   3.887 -1.2965 -3.0471 -0.5524
16717TIP3    H271567   2.429   3.994   3.917 -1.8814 -3.1999  1.4224
16718TIP3   OH271568   2.965   3.252  16.345 -0.4518  0.1058  0.3389
16718TIP3    H171569   2.965   3.203  16.263  0.3639  0.2392  0.2529
16718TIP3    H271570   2.878   3.236  16.382 -0.1233 -1.5918  0.4432
16719TIP3   OH271571   0.284   1.295   5.657  0.0458 -0.4691  0.0640
16719TIP3    H171572   0.281   1.386   5.625 -0.6334  0.2215  1.9314
16719TIP3    H271573   0.370   1.288   5.699 -0.4300 -0.2026  1.1325
16720TIP3   OH271574   3.877   2.765   6.932  0.2049  0.3892 -0.3682
16720TIP3    H171575   3.789   2.803   6.940  0.1005  0.0191  0.2639
16720TIP3    H271576   3.863   2.681   6.888  0.2894  0.4995 -0.6084
16721TIP3   OH271577   6.707   2.634   0.772 -0.0417  0.0588 -0.3041
16721TIP3    H171578   6.683   2.589   0.691 -0.0548  0.2296 -0.3954
16721TIP3    H271579   6.675   2.724   0.760  0.7651  0.3269 -0.4811
16722TIP3   OH271580   1.062   5.058   3.477 -1.0591 -0.0744 -0.0940
16722TIP3    H171581   1.076   5.145   3.513 -1.4409  0.1275 -0.4235
16722TIP3    H271582   1.036   5.074   3.386  0.5045 -0.5909 -0.6604
16723TIP3   OH271583   2.017   0.774  13.767 -0.2204  0.0963 -0.2611
16723TIP3    H171584   1.934   0.792  13.811 -1.3758 -1.9755 -1.4595
16723TIP3    H271585   2.059   0.707  13.821  0.0693  0.2068 -0.3485
16724TIP3   OH271586   0.577   0.745   5.484  0.0449 -0.2322 -0.2587
16724TIP3    H171587   0.580   0.716   5.575 -2.8737 -2.8658 -0.8324
16724TIP3    H271588   0.618   0.673   5.435 -1.5396 -0.5205 -1.2321
16725TIP3   OH271589   0.043   3.246  11.841 -0.4830 -0.7512 -0.1769
16725TIP3    H171590   0.130   3.206  11.846 -0.5210 -1.0868 -1.7367
16725TIP3    H271591   0.006   3.214  11.759 -1.6237  0.3053 -0.1120
16726TIP3   OH271592   5.700   2.124  15.133 -0.1315  0.1453  0.3280
16726TIP3    H171593   5.752   2.202  15.113 -0.6504  0.3523 -0.2264
16726TIP3    H271594   5.615   2.141  15.093 -0.0700 -0.9499 -0.2876
16727TIP3   OH271595   2.489   3.433  16.402  0.3050  0.2788 -0.0698
16727TIP3    H171596   2.472   3.526  16.390  0.8963  0.6419  1.6706
16727TIP3    H271597   2.414   3.401  16.452  0.6181  0.0537  0.2614
16728TIP3   OH271598   4.161   0.285  12.904 -0.0143  0.1364  0.3523
16728TIP3    H171599   4.238   0.254  12.856  0.8368 -0.9022  2.2685
16728TIP3    H271600   4.087   0.265  12.847  0.9781 -0.6847 -0.6817
16729TIP3   OH271601   4.865   5.726   4.066 -0.4891 -0.2691  0.0976
16729TIP3    H171602   4.822   5.671   4.132 -0.5147  0.1954  0.4759
16729TIP3    H271603   4.922   5.784   4.117 -0.2941 -0.0962 -0.3134
16730TIP3   OH271604   5.941   6.231  13.293  0.1208  0.1086 -0.3409
16730TIP3    H171605   5.904   6.259  13.210 -1.7116  0.8468  0.6674
16730TIP3    H271606   5.953   6.137  13.284  2.4391  0.4962 -2.3198
16731TIP3   OH271607   0.940   4.458  17.084  0.3766  0.1200 -0.6630
16731TIP3    H171608   1.007   4.462  17.016  0.7936  0.3378 -0.2480
16731TIP3    H271609   0.940   4.546  17.123  1.1535 -0.4020  0.5641
16732TIP3   OH271610   4.039   2.706  11.533  0.2131  0.0146 -0.2497
16732TIP3    H171611   3.971   2.646  11.561  1.2421 -0.0515  2.4941
16732TIP3    H271612   4.120   2.669  11.568  1.3780  1.1748 -1.5574
16733TIP3   OH271613   6.626   1.573   3.225 -0.6050 -0.3673  0.2415
16733TIP3    H171614   6.707   1.529   3.198 -1.0088 -1.2636  0.4411
16733TIP3    H271615   6.654   1.642   3.284  0.0823 -0.0888 -0.3914
16734TIP3   OH271616   2.640   3.020  15.540  0.6412 -0.5564 -0.7578
16734TIP3    H171617   2.672   3.019  15.450  0.4852 -1.8397 -0.8165
16734TIP3    H271618   2.577   3.092  15.542 -0.0155 -1.0742 -1.9197
16735TIP3   OH271619   0.873   6.113  14.313  0.1896 -0.2788  0.7188
16735TIP3    H171620   0.799   6.133  14.257 -1.3567  0.1414  2.7750
16735TIP3    H271621   0.930   6.190  14.306 -2.2687  2.0286  3.1368
16736TIP3   OH271622   3.389   1.538   4.450 -0.3870  0.1440  0.4538
16736TIP3    H171623   3.295   1.527   4.432 -0.1499  0.2684 -0.9402
16736TIP3    H271624   3.391   1.580   4.536 -1.5898 -0.4842  0.8176
16737TIP3   OH271625   0.551   4.253  13.184 -0.4047 -0.2203  0.3713
16737TIP3    H171626   0.503   4.179  13.221 -1.3823 -0.3506 -1.0748
16737TIP3    H271627   0.631   4.258  13.237 -1.3134 -0.9208  1.8980
16738TIP3   OH271628   1.142   2.100  16.334  0.6859  0.0404  0.8019
16738TIP3    H171629   1.225   2.131  16.296  1.3391  0.2262  2.3346
16738TIP3    H271630   1.109   2.175  16.384 -1.6456  0.7966 -1.6326
16739TIP3   OH271631   4.985   1.672   4.561  0.1760 -0.3577 -0.0874
16739TIP3    H171632   4.942   1.715   4.636  0.0387  0.9943 -0.9071
16739TIP3    H271633   5.077   1.664   4.588  1.0367  3.7445 -1.1795
16740TIP3   OH271634   3.466   4.533  11.624  0.8773  0.2529  0.3592
16740TIP3    H171635   3.395   4.492  11.673  1.3937 -0.3752  0.5975
16740TIP3    H271636   3.487   4.612  11.674  0.5575  0.2799  0.4541
16741TIP3   OH271637   3.540   1.790  17.392 -0.0179 -0.0574 -0.2676
16741TIP3    H171638   3.459   1.838  17.409 -0.3704  0.1826 -2.3623
16741TIP3    H271639   3.523   1.740  17.313  1.8758  0.0349 -0.7978
16742TIP3   OH271640   0.629   0.288   2.019  0.3438 -0.5635  0.4652
16742TIP3    H171641   0.598   0.202   1.991 -1.7581  0.1417  0.4428
16742TIP3    H271642   0.663   0.329   1.939  0.0207 -0.8413  0.1829
16743TIP3   OH271643   0.700   0.943  14.807  0.5464  0.1585  0.0695
16743TIP3    H171644   0.720   0.950  14.901 -1.4495  0.2755  0.5477
16743TIP3    H271645   0.751   0.868  14.777 -0.7851 -1.6133  1.9060
16744TIP3   OH271646   5.030   5.520  13.904  0.3154 -0.4432  0.3677
16744TIP3    H171647   5.121   5.496  13.920 -0.1099 -1.2013  1.7457
16744TIP3    H271648   5.008   5.582  13.973  0.9974  3.2161 -2.3695
16745TIP3   OH271649   4.128   0.892   4.818  0.1093  0.4188  0.0570
16745TIP3    H171650   4.115   0.925   4.728 -1.0849  0.2420  0.1408
16745TIP3    H271651   4.163   0.804   4.806 -2.0104 -0.4474 -0.3403
16746TIP3   OH271652   4.390   2.591  15.051 -0.3242  0.1405  0.5400
16746TIP3    H171653   4.306   2.614  15.092 -1.5842 -0.0268 -1.7556
16746TIP3    H271654   4.389   2.637  14.967  0.8890 -1.5739 -0.4795
16747TIP3   OH271655   0.060   0.825  12.684 -0.2800  0.0559  0.2040
16747TIP3    H171656   0.105   0.906  12.708  0.6938 -0.9418  2.0260
16747TIP3    H271657  -0.010   0.817  12.749 -0.3235 -0.5814  0.0861
16748TIP3   OH271658   0.362   5.317   5.999  0.0149  0.4595  0.6693
16748TIP3    H171659   0.418   5.348   6.071  1.2598  1.3506 -0.6274
16748TIP3    H271660   0.398   5.232   5.976  0.5408  0.8158  0.1583
16749TIP3   OH271661   2.774   1.520   5.138  0.0058 -0.2720 -0.8447
16749TIP3    H171662   2.744   1.608   5.115 -0.8317 -0.6396 -1.1649
16749TIP3    H271663   2.857   1.511   5.091  1.4746  1.3080  1.2227
16750TIP3   OH271664   3.411   0.016   2.733  0.2012  0.4612 -0.0021
16750TIP3    H171665   3.458   0.006   2.816  0.4262  0.6174 -0.1095
16750TIP3    H271666   3.425  -0.066   2.687 -0.7564 -0.0174  0.5313
16751TIP3   OH271667   4.118   0.223   2.072  0.4087 -0.2401  0.3031
16751TIP3    H171668   4.167   0.257   2.147  0.6314 -0.0287  0.0673
16751TIP3    H271669   4.069   0.148   2.106 -0.4077  0.5613  0.9295
16752TIP3   OH271670   5.654   4.571   6.545  0.2428  0.2573 -0.2174
16752TIP3    H171671   5.628   4.661   6.525 -0.4432  0.0371 -0.3156
16752TIP3    H271672   5.577   4.518   6.526  0.4753 -0.2955  0.3329
16753TIP3   OH271673   5.043   5.712  16.510  0.0694  0.5393 -0.4767
16753TIP3    H171674   5.112   5.752  16.562  0.9160  1.2714 -2.1013
16753TIP3    H271675   5.002   5.785  16.464 -0.9706 -0.0343 -0.4884
16754TIP3   OH271676   4.560   5.941  10.664 -0.4555  0.2047 -0.0581
16754TIP3    H171677   4.628   5.892  10.618 -0.3361  1.3036 -1.1074
16754TIP3    H271678   4.607   5.996  10.726 -0.5834 -0.9058  1.0559
16755TIP3   OH271679   3.704   1.371   2.661  0.6055 -0.2567 -0.2365
16755TIP3    H171680   3.722   1.391   2.753 -0.6457  2.4152 -0.4679
16755TIP3    H271681   3.609   1.379   2.653  0.8171  1.1342 -2.0496
16756TIP3   OH271682   5.322   4.629   4.074  0.0850 -0.1691  0.5018
16756TIP3    H171683   5.257   4.661   4.012  1.3699  0.0533 -0.8022
16756TIP3    H271684   5.347   4.707   4.125  1.7587  0.5873 -1.3232
16757TIP3   OH271685   0.842   2.625  11.170  0.3491 -0.0289  0.7025
16757TIP3    H171686   0.879   2.645  11.084 -1.2216  0.0242  0.0107
16757TIP3    H271687   0.820   2.710  11.207 -0.8105 -0.1358  0.2957
16758TIP3   OH271688   3.765   3.113   3.503  0.5501  0.6032  0.1272
16758TIP3    H171689   3.735   3.036   3.456 -1.3089 -0.1029  2.2539
16758TIP3    H271690   3.703   3.182   3.479 -1.7321 -0.2908  2.8684
16759TIP3   OH271691   6.363   3.189   4.444  0.2249  0.2797  0.2551
16759TIP3    H171692   6.366   3.094   4.454  0.8149  0.5043  3.0168
16759TIP3    H271693   6.438   3.210   4.388 -0.4757 -0.8987 -1.1945
16760TIP3   OH271694   4.414   5.723  15.212  0.1137  0.8533 -0.5453
16760TIP3    H171695   4.445   5.666  15.282 -0.1245  1.6528  0.2266
16760TIP3    H271696   4.438   5.811  15.240 -1.9284  1.4088 -0.4019
16761TIP3   OH271697   3.860   1.952   5.470  0.0205  0.3126 -0.5308
16761TIP3    H171698   3.810   2.019   5.517  0.9666 -0.0630  1.0701
16761TIP3    H271699   3.849   1.873   5.522  2.2734  0.2183 -0.1038
16762TIP3   OH271700   4.954   2.175  14.259  0.9582  0.0563 -0.3388
16762TIP3    H171701   4.872   2.196  14.214  1.1000 -1.2132 -1.2422
16762TIP3    H271702   5.012   2.144  14.189  2.0368  0.4462  0.3677
16763TIP3   OH271703   3.004   6.751   1.155  0.0839  0.4397 -0.2708
16763TIP3    H171704   2.969   6.821   1.100  0.7830  1.4565  0.5497
16763TIP3    H271705   2.988   6.671   1.105 -1.5715  1.0704 -0.8097
16764TIP3   OH271706   6.332   2.846  15.954 -0.1091  0.0625  0.4267
16764TIP3    H171707   6.317   2.904  16.029 -0.3308  0.7907 -0.1722
16764TIP3    H271708   6.394   2.780  15.987  0.6861  1.0330  0.9235
16765TIP3   OH271709   5.614   0.024   0.506 -0.3873 -0.3078  0.3103
16765TIP3    H171710   5.628   0.112   0.542  0.3490 -0.1536 -0.3343
16765TIP3    H271711   5.664  -0.034   0.564 -1.3744 -0.3878  1.1025
16766TIP3   OH271712   6.068   2.963  14.117  0.6035  0.2717  0.0864
16766TIP3    H171713   6.091   3.038  14.171  1.4684  1.4073 -1.7710
16766TIP3    H271714   6.142   2.903  14.127  0.4994  0.2238  0.5866
16767TIP3   OH271715   6.506   3.958  12.150  0.0629  0.3420 -0.3503
16767TIP3    H171716   6.598   3.946  12.128 -0.5272 -1.8131 -1.9374
16767TIP3    H271717   6.479   3.875  12.189 -0.9157  1.4165  1.4199
16768TIP3   OH271718   4.970   5.199  12.691 -0.5290 -0.5175  0.0007
16768TIP3    H171719   4.886   5.172  12.727 -0.6470  0.1327  0.2217
16768TIP3    H271720   5.002   5.266  12.752 -0.7386  0.6218 -1.1087
16769TIP3   OH271721   1.584   3.024   2.454  0.8302 -0.4446 -0.7357
16769TIP3    H171722   1.520   2.990   2.392 -0.2761 -1.3527  0.8385
16769TIP3    H271723   1.661   3.045   2.401 -0.9103  1.2008 -2.7751
16770TIP3   OH271724   0.976   3.124  17.405  0.5244  0.0685  0.7686
16770TIP3    H171725   1.006   3.212  17.383 -0.6114  0.3708  0.3406
16770TIP3    H271726   1.056   3.072  17.414  1.1584  0.6444 -1.1144
16771TIP3   OH271727   4.091   6.507  16.351 -0.1510 -0.3108  0.2475
16771TIP3    H171728   4.087   6.600  16.373 -1.2217 -0.9125  2.9496
16771TIP3    H271729   4.182   6.481  16.369 -0.4046 -0.2445  1.6751
16772TIP3   OH271730   5.991   3.149   2.375 -0.2044 -0.5190  0.0671
16772TIP3    H171731   6.071   3.111   2.410 -0.9802 -1.8226  0.4711
16772TIP3    H271732   6.012   3.169   2.283  1.2585  1.2269  0.7182
16773TIP3   OH271733   3.293   2.736   4.784 -0.2464  1.0731  0.3599
16773TIP3    H171734   3.211   2.785   4.777 -0.7279  0.2740  0.3072
16773TIP3    H271735   3.351   2.794   4.834 -0.9869  1.4516  0.8000
16774TIP3   OH271736   2.561   3.412  14.439  0.1496 -0.0981  0.8181
16774TIP3    H171737   2.471   3.444  14.441 -0.5451 -1.5604 -1.8807
16774TIP3    H271738   2.557   3.325  14.478  0.1101 -0.6611 -0.3987
16775TIP3   OH271739   6.175   5.651  15.720 -0.1524 -0.1399  0.1281
16775TIP3    H171740   6.202   5.561  15.737 -0.4363  0.0479  1.7199
16775TIP3    H271741   6.252   5.704  15.741  0.2852 -0.0282 -1.5804
16776TIP3   OH271742   0.639   6.291   3.047  0.2567  0.5687 -0.4516
16776TIP3    H171743   0.589   6.270   2.967  0.4784  1.7995 -0.9292
16776TIP3    H271744   0.724   6.250   3.033  0.2339  0.6246 -0.7741
16777TIP3   OH271745   3.968   1.123  12.106  0.2468  0.2253  0.2919
16777TIP3    H171746   3.965   1.179  12.028 -0.5372 -0.4466 -0.1784
16777TIP3    H271747   4.022   1.172  12.168 -1.8217  2.3772  0.5641
16778TIP3   OH271748   4.105   3.420   3.363  0.3423  0.0804  0.1905
16778TIP3    H171749   4.110   3.325   3.375 -0.2495  0.1389  0.9293
16778TIP3    H271750   4.104   3.456   3.452 -1.1503  0.6840 -0.0493
16779TIP3   OH271751   1.755   3.296   5.132 -0.0433 -0.1963  0.4404
16779TIP3    H171752   1.716   3.276   5.047  2.3361  0.7637 -0.9843
16779TIP3    H271753   1.798   3.215   5.159  0.1570 -0.1873  0.1507
16780TIP3   OH271754   1.560   1.350   2.769  0.4425 -0.2334 -0.3966
16780TIP3    H171755   1.644   1.347   2.816  0.9905 -1.1341 -1.3945
16780TIP3    H271756   1.562   1.274   2.711 -0.3013  0.6969 -1.7131
16781TIP3   OH271757   0.895   6.434   2.973  0.1421  0.6105  0.4068
16781TIP3    H171758   0.967   6.491   2.945  0.5087 -0.0272  0.0250
16781TIP3    H271759   0.816   6.486   2.960  0.3986  0.7046 -0.8367
16782TIP3   OH271760   0.994   3.368  15.496  0.0879  0.1215 -0.3643
16782TIP3    H171761   0.969   3.293  15.551  0.1393 -0.2346 -0.8260
16782TIP3    H271762   0.916   3.424  15.495  0.4627  0.7200  1.0317
16783TIP3   OH271763   2.235   1.557   1.367  0.9539 -0.2346 -0.1622
16783TIP3    H171764   2.198   1.634   1.411  2.4420  0.0967  0.5450
16783TIP3    H271765   2.219   1.485   1.429 -2.2808 -1.0037 -1.6693
16784TIP3   OH271766   3.665   1.022   2.690  0.7109 -0.1341  0.3500
16784TIP3    H171767   3.743   1.075   2.673  0.4034 -0.1416 -1.2480
16784TIP3    H271768   3.612   1.031   2.610 -0.8273 -0.2953  1.3161
16785TIP3   OH271769   4.411   4.672   1.338  0.0115 -0.4195 -0.1516
16785TIP3    H171770   4.501   4.703   1.347  0.1756 -1.0011  0.2647
16785TIP3    H271771   4.363   4.748   1.304  0.4328  0.2439  0.6936
16786TIP3   OH271772   1.052   2.191   6.223  0.2920 -0.2698  0.7816
16786TIP3    H171773   1.111   2.129   6.265  2.3631  2.3827  2.1033
16786TIP3    H271774   1.101   2.225   6.148  1.1444  2.9281  2.6388
16787TIP3   OH271775   2.033   3.034  14.887  0.9022  0.0028 -0.5481
16787TIP3    H171776   2.047   2.969  14.819  2.9151 -0.3023  0.0752
16787TIP3    H271777   1.953   3.080  14.862 -0.0958 -2.1233 -1.4497
16788TIP3   OH271778   3.987   5.261   5.465 -0.3329  0.2253 -0.5101
16788TIP3    H171779   4.069   5.292   5.503 -0.2509  0.1014 -0.5834
16788TIP3    H271780   4.014   5.210   5.388 -0.3283 -1.5936  0.6251
16789TIP3   OH271781   2.681   0.871   4.545  0.2353  0.3338  0.0740
16789TIP3    H171782   2.746   0.929   4.583  0.2120 -0.2393  1.0132
16789TIP3    H271783   2.662   0.910   4.459  0.3990  1.5643  0.5697
16790TIP3   OH271784   6.590   1.970   4.582  0.1619 -0.0436  0.1563
16790TIP3    H171785   6.534   2.046   4.597 -0.1336 -0.3082  0.3965
16790TIP3    H271786   6.575   1.947   4.490  0.3688  0.2765  0.0373
16791TIP3   OH271787   1.262   3.027  11.977  0.0860 -0.1818 -0.3569
16791TIP3    H171788   1.229   3.098  11.921  0.4577 -0.6863 -1.2211
16791TIP3    H271789   1.187   2.969  11.988 -0.8079  1.2353  1.9019
16792TIP3   OH271790   3.807   4.071  14.839  0.0326  0.3790  0.1317
16792TIP3    H171791   3.780   4.014  14.911  0.3336 -2.6338 -1.9141
16792TIP3    H271792   3.894   4.101  14.863 -0.2398  0.2112  1.4011
16793TIP3   OH271793   5.765   5.260   0.897  0.2672 -0.1707 -0.3630
16793TIP3    H171794   5.777   5.287   0.805 -0.1310  2.3952  0.2567
16793TIP3    H271795   5.779   5.341   0.947  0.6612 -1.5550  1.8750
16794TIP3   OH271796   5.547   2.158  16.389 -0.3466  0.3447  0.5323
16794TIP3    H171797   5.616   2.093  16.400 -0.8154  0.0918  2.2035
16794TIP3    H271798   5.500   2.158  16.472 -3.0536 -0.2867 -0.8611
16795TIP3   OH271799   3.648   6.664   1.884  0.1259 -0.5236 -0.2601
16795TIP3    H171800   3.701   6.731   1.841 -0.8000 -0.8984 -2.0824
16795TIP3    H271801   3.679   6.581   1.849  0.1597 -0.9553  0.7391
16796TIP3   OH271802   0.818   3.398  16.049  0.3216  0.0291  0.5919
16796TIP3    H171803   0.833   3.488  16.080 -1.6100  0.6645 -0.1780
16796TIP3    H271804   0.854   3.396  15.961  0.5170 -0.0172  0.6719
16797TIP3   OH271805   5.068   4.117  14.796  0.5820 -0.3062  0.0419
16797TIP3    H171806   4.993   4.061  14.816 -0.0253  0.1881 -0.8111
16797TIP3    H271807   5.139   4.080  14.848 -0.5897  0.1061  2.0564
16798TIP3   OH271808   6.675   4.280  10.757  0.1956 -0.0458  0.1137
16798TIP3    H171809   6.596   4.332  10.743  0.7854  1.0101  0.5953
16798TIP3    H271810   6.740   4.343  10.788  1.2932 -0.8640 -0.4752
16799TIP3   OH271811   4.909   1.416   5.491 -0.0715 -0.0744 -0.1945
16799TIP3    H171812   4.841   1.483   5.495 -1.3862 -1.4009  0.8159
16799TIP3    H271813   4.913   1.391   5.399 -1.7829 -0.7485 -0.1134
16800TIP3   OH271814   0.634   2.997  13.148 -0.0568  0.4050  0.4597
16800TIP3    H171815   0.579   2.938  13.097  0.1479  1.5016 -1.0844
16800TIP3    H271816   0.710   2.945  13.172  0.3918  0.1715 -1.3678
16801TIP3   OH271817   0.077   3.049   5.007 -0.0681 -0.6013 -0.2854
16801TIP3    H171818   0.055   2.984   4.940 -0.6662  0.3504 -1.0433
16801TIP3    H271819   0.038   3.130   4.975  0.9000  0.1993  0.4999
16802TIP3   OH271820   5.530   1.184   1.633  0.2325 -0.6220  0.1642
16802TIP3    H171821   5.556   1.157   1.545  0.5275 -1.2185  0.4298
16802TIP3    H271822   5.513   1.278   1.625  1.2939 -0.4545 -0.2862
16803TIP3   OH271823   6.650   4.293  12.118 -0.2964  0.2692  0.0073
16803TIP3    H171824   6.649   4.260  12.028  0.1150  0.0952  0.0627
16803TIP3    H271825   6.565   4.334  12.129  0.2734  1.8655 -1.0516
16804TIP3   OH271826   3.797   1.337   0.736  0.1940 -0.2517  0.7473
16804TIP3    H171827   3.729   1.316   0.800 -0.3502  1.8598  0.9499
16804TIP3    H271828   3.850   1.404   0.779  0.7589  0.0803 -0.4333
16805TIP3   OH271829   1.558   6.230   6.611  0.2528  0.0247  0.2580
16805TIP3    H171830   1.495   6.176   6.658  0.0127 -0.5699 -0.7216
16805TIP3    H271831   1.589   6.293   6.676 -0.4236 -0.4688  1.0752
16806TIP3   OH271832   1.707   6.033  11.754 -0.5214  0.2344 -0.0735
16806TIP3    H171833   1.666   6.091  11.818  0.0922  0.0178  0.5214
16806TIP3    H271834   1.690   6.076  11.670 -1.3240  0.5270  0.2222
16807TIP3   OH271835   3.651   4.846  11.276  0.7404  0.0108 -0.0145
16807TIP3    H171836   3.634   4.821  11.367  1.5685 -0.5419 -0.0051
16807TIP3    H271837   3.649   4.764  11.228 -3.2346  0.5279 -1.1647
16808TIP3   OH271838   3.819   6.065  17.300  0.3294  0.2379  0.1746
16808TIP3    H171839   3.732   6.067  17.259  0.2355  2.0882  0.3585
16808TIP3    H271840   3.862   5.989  17.261 -1.0265 -0.1505 -0.6469
16809TIP3   OH271841   6.442   0.012  14.541  0.1200  0.2613  0.1838
16809TIP3    H171842   6.378   0.065  14.589  2.6220  2.1802  1.6288
16809TIP3    H271843   6.465  -0.059  14.601  0.9662  0.8731  0.5982
16810TIP3   OH271844   3.533   5.909  11.041 -0.4941  0.6071  0.1199
16810TIP3    H171845   3.627   5.924  11.046 -0.5244  0.7937  0.1559
16810TIP3    H271846   3.518   5.875  10.952 -0.4522  1.0286 -0.0527
16811TIP3   OH271847   5.689   0.974  13.244 -0.3763 -0.5425 -0.2272
16811TIP3    H171848   5.737   1.056  13.255  0.5706 -0.9587 -1.0450
16811TIP3    H271849   5.714   0.921  13.319 -1.6998  0.2140  0.8007
16812TIP3   OH271850   6.430   3.685   2.296 -0.1044 -0.1113 -0.7977
16812TIP3    H171851   6.342   3.655   2.318 -0.2386  0.1270 -0.9993
16812TIP3    H271852   6.416   3.758   2.236  0.2136  0.5024 -0.1313
16813TIP3   OH271853   3.608   2.731  15.014 -0.2875  0.1691  0.4184
16813TIP3    H171854   3.664   2.708  15.088  0.0277  1.3431  0.5663
16813TIP3    H271855   3.667   2.730  14.938  0.3261  2.7017  0.7543
16814TIP3   OH271856   1.125   1.475  16.041  0.4087 -0.0363  0.2360
16814TIP3    H171857   1.057   1.464  15.975  2.1156 -0.6485 -1.5182
16814TIP3    H271858   1.110   1.404  16.104  0.0793 -0.8248 -0.7206
16815TIP3   OH271859   5.004   0.918   3.117  0.0726  0.4503 -0.0581
16815TIP3    H171860   5.017   0.841   3.173 -0.6689  0.0887 -0.3760
16815TIP3    H271861   5.020   0.992   3.175 -1.6088  0.1125  0.9063
16816TIP3   OH271862   0.265   3.010  11.453 -0.0383  0.0354  0.0402
16816TIP3    H171863   0.318   3.070  11.506  0.0710 -0.2614  0.2686
16816TIP3    H271864   0.322   2.934  11.439 -0.3678 -0.2418  0.2007
16817TIP3   OH271865   3.080   1.699   1.901  0.2588 -0.3430  0.3789
16817TIP3    H171866   3.117   1.784   1.925  0.0293  0.1337 -0.8411
16817TIP3    H271867   2.989   1.703   1.929  0.4642 -0.5265  1.0897
16818TIP3   OH271868   5.329   5.762  11.404  0.6711 -0.0882  0.5884
16818TIP3    H171869   5.327   5.677  11.360  0.2520 -0.7244  1.7987
16818TIP3    H271870   5.249   5.806  11.374  0.8835 -0.1058 -0.0303
16819TIP3   OH271871   0.473   5.439   3.990 -0.2566  0.1448  0.2431
16819TIP3    H171872   0.427   5.359   3.965  0.6516 -0.2746 -0.1024
16819TIP3    H271873   0.484   5.487   3.908  1.0565 -0.3607  0.1078
16820TIP3   OH271874   2.665   5.248  11.977  0.3688  0.1014  0.0584
16820TIP3    H171875   2.717   5.309  11.924  1.8135 -0.8506  0.3095
16820TIP3    H271876   2.669   5.165  11.930  0.6192 -0.4392  0.9974
16821TIP3   OH271877   1.739   1.182  13.281 -0.1727  0.1683  0.7796
16821TIP3    H171878   1.664   1.134  13.314 -0.7642  0.5279  0.0029
16821TIP3    H271879   1.714   1.208  13.192  1.0664 -0.1303  0.3194
16822TIP3   OH271880   4.313   6.028   0.143 -0.4501 -0.2917  0.1115
16822TIP3    H171881   4.383   6.079   0.102  0.7919 -2.0377 -0.0521
16822TIP3    H271882   4.232   6.060   0.103  0.4874  0.0489 -1.5622
16823TIP3   OH271883   5.126   2.591  17.342  0.6082  0.0397  0.1884
16823TIP3    H171884   5.032   2.590  17.357  0.5462 -1.3243 -0.1158
16823TIP3    H271885   5.143   2.512  17.290  1.5049  1.8673 -2.4549
16824TIP3   OH271886   5.838   2.900  15.004  0.2062 -0.0141  0.0809
16824TIP3    H171887   5.891   2.909  14.925  1.0954 -3.5279  0.1179
16824TIP3    H271888   5.898   2.923  15.075  0.6152 -0.5570 -0.0815
16825TIP3   OH271889   0.407   5.657  13.415 -0.1619  0.1746  0.4988
16825TIP3    H171890   0.499   5.672  13.393 -0.4391  1.1945 -0.0213
16825TIP3    H271891   0.365   5.638  13.331 -0.1625 -1.8220  0.9197
16826TIP3   OH271892   3.722   1.414   5.990 -0.1785 -0.3103 -0.5148
16826TIP3    H171893   3.787   1.388   6.054 -0.5122 -0.1742 -0.1172
16826TIP3    H271894   3.644   1.434   6.041 -0.3762  0.0359 -0.9408
16827TIP3   OH271895   4.345   0.029  11.377 -0.0207  0.1677 -0.0995
16827TIP3    H171896   4.304  -0.053  11.402  0.9355 -0.0584  0.7765
16827TIP3    H271897   4.432   0.026  11.417 -0.2232  1.9160  0.5559
16828TIP3   OH271898   4.451   0.619  12.667  0.8593 -0.6679 -0.0153
16828TIP3    H171899   4.362   0.627  12.702  0.7719  3.2631 -0.6997
16828TIP3    H271900   4.438   0.610  12.572  1.1032  1.4155 -0.2922
16829TIP3   OH271901   5.130   4.973  17.203  0.4868  0.0683  0.2914
16829TIP3    H171902   5.118   4.880  17.182  1.5889  0.2406 -1.2228
16829TIP3    H271903   5.069   5.018  17.145  0.7102  0.3499  0.2733
16830TIP3   OH271904   2.756   4.764  15.967 -0.1816  0.5016 -0.0077
16830TIP3    H171905   2.807   4.844  15.958 -0.0118  0.3278 -0.6211
16830TIP3    H271906   2.816   4.694  15.941 -0.9018  0.3504 -1.3543
16831TIP3   OH271907   2.949   6.238  15.499 -0.2124  0.4122  0.5008
16831TIP3    H171908   2.936   6.178  15.425  0.4678 -1.1626  1.5882
16831TIP3    H271909   2.864   6.240  15.544 -1.8762  4.3843 -2.2852
16832TIP3   OH271910   1.614   4.159  12.390  0.5454  0.4228 -0.6169
16832TIP3    H171911   1.618   4.114  12.475  0.1575  0.2141 -0.7035
16832TIP3    H271912   1.641   4.093  12.327 -1.9335 -0.3529 -0.9687
16833TIP3   OH271913   0.135   4.761  17.174 -0.1288  0.0935  0.8711
16833TIP3    H171914   0.156   4.705  17.099 -0.9963 -0.7381  1.2328
16833TIP3    H271915   0.094   4.703  17.237  2.3362  0.3331  2.8654
16834TIP3   OH271916   2.747   5.248   2.520  0.5238 -0.0848 -0.0522
16834TIP3    H171917   2.723   5.157   2.531 -3.2768  0.7580 -0.0522
16834TIP3    H271918   2.704   5.275   2.439  3.5169  1.1959 -1.3504
16835TIP3   OH271919   0.746   3.751  14.350 -0.4555 -0.0632  0.4026
16835TIP3    H171920   0.683   3.680  14.345  0.4288 -0.7939 -1.3340
16835TIP3    H271921   0.694   3.829  14.370 -1.6503 -0.9183  0.6847
16836TIP3   OH271922   5.483   5.667  13.467 -0.1239  0.2754  0.2910
16836TIP3    H171923   5.503   5.649  13.559 -1.1797  0.0424  0.4834
16836TIP3    H271924   5.420   5.599  13.443 -1.1360  1.3315 -0.1203
16837TIP3   OH271925   3.405   0.292  16.878 -0.2787  0.6401  0.4342
16837TIP3    H171926   3.320   0.321  16.909  0.0601  0.3026  1.7284
16837TIP3    H271927   3.434   0.228  16.943  0.0108 -0.8951 -1.1055
16838TIP3   OH271928   5.530   6.279   5.705 -0.6882  0.1015  0.1612
16838TIP3    H171929   5.577   6.349   5.749  0.2712 -0.7629  0.5602
16838TIP3    H271930   5.525   6.209   5.771 -3.1771  0.3913  0.3988
16839TIP3   OH271931   6.033   4.832  10.621 -0.1246 -0.0176 -0.0305
16839TIP3    H171932   5.957   4.890  10.614 -0.2914 -0.0497  1.3739
16839TIP3    H271933   6.038   4.789  10.535 -1.1146  0.6808 -0.4534
16840TIP3   OH271934   5.665   0.951  11.960  0.3171 -0.2491 -0.2678
16840TIP3    H171935   5.675   0.892  11.885 -1.2293 -0.3114 -0.4663
16840TIP3    H271936   5.755   0.974  11.984  0.8981 -1.2806 -1.2936
16841TIP3   OH271937   3.764   6.741   2.909  0.2045  0.1187 -0.1497
16841TIP3    H171938   3.799   6.680   2.974  0.7896 -0.9335 -1.4250
16841TIP3    H271939   3.674   6.758   2.938  0.5791  0.0168  1.1548
16842TIP3   OH271940   4.597   4.989  11.413 -0.4868  0.0373  0.2327
16842TIP3    H171941   4.635   4.906  11.385  0.2370  1.1231 -2.2940
16842TIP3    H271942   4.503   4.976  11.409 -0.4085 -0.1904 -1.9156
16843TIP3   OH271943   1.718   2.711   1.760 -0.5507 -0.4082 -0.6645
16843TIP3    H171944   1.639   2.685   1.807 -0.3420 -0.0897 -0.1353
16843TIP3    H271945   1.724   2.648   1.688 -1.0584 -0.6910 -0.4670
16844TIP3   OH271946   0.839   5.994  12.235  0.3947  0.3091  0.8750
16844TIP3    H171947   0.873   6.066  12.181 -0.6571 -0.8623 -1.5020
16844TIP3    H271948   0.851   6.024  12.325  0.6710  3.1337 -0.0065
16845TIP3   OH271949   5.724   4.909  10.822 -0.2377 -0.5569  0.0222
16845TIP3    H171950   5.666   4.895  10.897 -0.8553 -0.7795 -0.4867
16845TIP3    H271951   5.666   4.936  10.751  0.3034 -0.6077 -0.4519
16846TIP3   OH271952   6.237   6.461   1.072  0.0657  0.0578  0.2293
16846TIP3    H171953   6.223   6.552   1.098  2.3433  0.1045  1.5664
16846TIP3    H271954   6.331   6.448   1.083 -0.5109 -3.2489  2.9139
16847TIP3   OH271955   3.502   6.282   0.416 -0.9069 -0.2756 -0.2362
16847TIP3    H171956   3.582   6.230   0.405 -1.5943 -1.3722 -0.2864
16847TIP3    H271957   3.486   6.319   0.329  0.0692  0.7863  0.0073
16848TIP3   OH271958   5.222   2.614   1.906 -0.7939  0.1338 -0.0213
16848TIP3    H171959   5.191   2.578   1.823 -2.5909  1.7653 -0.1232
16848TIP3    H271960   5.277   2.544   1.943 -1.3055 -1.2852 -1.7780
16849TIP3   OH271961   3.105   0.370  11.463 -0.3747 -0.5288  0.1162
16849TIP3    H171962   3.051   0.443  11.492  0.6856  0.1751  0.3605
16849TIP3    H271963   3.181   0.372  11.520  0.5775 -0.6442 -1.1045
16850TIP3   OH271964   3.902   6.528  15.545 -0.3014 -0.4492 -0.2231
16850TIP3    H171965   3.819   6.502  15.585  0.0740  0.3491  1.1433
16850TIP3    H271966   3.965   6.463  15.575  0.0629  0.3758  0.8548
16851TIP3   OH271967   0.720   0.294  17.150  0.3731 -0.1029 -0.0455
16851TIP3    H171968   0.746   0.341  17.071 -1.1419  2.4538  0.8860
16851TIP3    H271969   0.718   0.360  17.219  1.0539 -2.1388  2.0619
16852TIP3   OH271970   5.104   2.700  13.538  0.6015 -0.6924  0.4616
16852TIP3    H171971   5.057   2.773  13.498 -1.0562 -1.3847  1.0763
16852TIP3    H271972   5.053   2.622  13.515  1.7766 -1.5546  0.6611
16853TIP3   OH271973   1.879   2.313   1.800 -0.1637  0.0159  0.1512
16853TIP3    H171974   1.942   2.258   1.753  0.3971  0.7440  0.0287
16853TIP3    H271975   1.796   2.300   1.755 -0.3410 -1.6926  0.8933
16854TIP3   OH271976   1.273   4.412  11.735  0.0738  0.3019 -0.2500
16854TIP3    H171977   1.351   4.466  11.732 -0.4866  1.1555  0.1491
16854TIP3    H271978   1.255   4.390  11.643  0.3772  0.6892 -0.4017
16855TIP3   OH271979   0.347   6.300  16.081  0.1313 -0.3645 -0.1068
16855TIP3    H171980   0.254   6.307  16.062 -0.0577 -1.3467  0.4279
16855TIP3    H271981   0.355   6.225  16.139  1.2455 -0.2193 -0.0434
16856TIP3   OH271982   3.374   3.262   6.793 -0.4068 -0.0657  0.6538
16856TIP3    H171983   3.284   3.295   6.801 -0.0426  0.7621  1.5424
16856TIP3    H271984   3.380   3.193   6.859 -0.9318 -1.4573 -0.6825
16857TIP3   OH271985   4.452   6.110  15.782  0.3359  0.8770 -0.0409
16857TIP3    H171986   4.462   6.049  15.709 -0.6163 -1.2815  1.5231
16857TIP3    H271987   4.357   6.125  15.787 -0.0100 -1.3574  2.4305
16858TIP3   OH271988   2.423   1.052   2.890 -0.1499  0.2479 -0.1689
16858TIP3    H171989   2.375   1.060   2.807  1.0454  2.2997 -0.7433
16858TIP3    H271990   2.384   1.118   2.947  0.8672  0.8111 -0.0957
16859TIP3   OH271991   1.463   2.574   1.270 -0.4579  0.4874 -0.1992
16859TIP3    H171992   1.450   2.667   1.289 -1.4215  0.3564 -0.2093
16859TIP3    H271993   1.384   2.546   1.225 -0.8350 -0.6982  1.1266
16860TIP3   OH271994   2.884   2.187  17.101 -0.0257  0.1593  0.3911
16860TIP3    H171995   2.830   2.163  17.025  0.4204 -1.2416  0.4816
16860TIP3    H271996   2.820   2.210  17.168 -0.4260  1.6153 -0.4480
16861TIP3   OH271997   6.319   6.310  11.886 -0.1123 -0.2304 -0.3914
16861TIP3    H171998   6.312   6.268  11.971  0.9535 -1.7647 -0.9953
16861TIP3    H271999   6.232   6.343  11.867 -0.2414  0.6143  1.5064
16862TIP3   OH272000   4.752   3.762   2.517 -0.3707  0.2482  0.7589
16862TIP3    H172001   4.848   3.763   2.514 -0.3967  0.4511 -1.0982
16862TIP3    H272002   4.729   3.842   2.565  0.3861  0.7663  0.2853
16863TIP3   OH272003   5.077   6.644   2.989  0.1244  1.0192  0.1579
16863TIP3    H172004   5.104   6.638   2.898 -0.0040  0.3183  0.1568
16863TIP3    H272005   4.983   6.663   2.986  0.3004  1.9028  0.1527
16864TIP3   OH272006   2.368   2.629   1.757 -0.4773  0.9305  0.0867
16864TIP3    H172007   2.353   2.723   1.750 -0.4744  1.0536  1.4866
16864TIP3    H272008   2.374   2.612   1.851 -0.2244 -0.4322 -0.1484
16865TIP3   OH272009   5.584   0.444   3.849 -0.0456  0.1679  0.8255
16865TIP3    H172010   5.652   0.377   3.855  0.6389  0.9112  1.6962
16865TIP3    H272011   5.621   0.509   3.789 -1.3100 -0.8847 -1.1858
16866TIP3   OH272012   1.106   6.121   3.820  0.0745  0.1341  0.2065
16866TIP3    H172013   1.047   6.120   3.745  1.7290  0.7571 -1.1693
16866TIP3    H272014   1.156   6.202   3.810  0.6066  0.0281  1.7696
16867TIP3   OH272015   1.410   1.801   3.429  0.3575 -0.7376 -0.2363
16867TIP3    H172016   1.455   1.757   3.501  0.7117 -0.1497 -0.0978
16867TIP3    H272017   1.479   1.839   3.376  0.0748 -0.7590 -0.6283
16868TIP3   OH272018   6.252   6.394  14.664  0.6140  0.0017 -0.5808
16868TIP3    H172019   6.261   6.310  14.619  0.0438  0.1400 -0.9677
16868TIP3    H272020   6.269   6.374  14.756 -0.1444 -0.6660 -0.5718
16869TIP3   OH272021   5.943   2.360  14.096 -0.1166 -0.2610 -0.5608
16869TIP3    H172022   5.895   2.362  14.179 -0.4784  0.1927 -0.7796
16869TIP3    H272023   5.952   2.267  14.076 -0.6965 -0.3568 -0.3910
16870TIP3   OH272024   4.917   3.010  16.658  0.3728  0.6031  0.2334
16870TIP3    H172025   4.891   3.082  16.715 -0.7227  0.0700  0.4420
16870TIP3    H272026   4.838   2.956  16.650  1.2843 -0.8133  0.4294
16871TIP3   OH272027   3.193   5.429   1.728  0.0064 -0.8009  0.0358
16871TIP3    H172028   3.232   5.365   1.669  0.6337  1.1051 -1.7332
16871TIP3    H272029   3.137   5.483   1.672  1.0282  1.4209  1.0162
16872TIP3   OH272030   3.906   5.205   3.800 -0.0904  0.1961 -0.1564
16872TIP3    H172031   3.906   5.113   3.773  0.0701  0.3718 -0.7828
16872TIP3    H272032   3.865   5.251   3.727  2.3731  0.9771 -1.1493
16873TIP3   OH272033   5.991   4.027  12.945 -0.0131  0.0949 -0.0269
16873TIP3    H172034   5.930   4.010  12.873 -0.0794  0.5306 -0.0808
16873TIP3    H272035   6.046   4.099  12.914  0.7733 -0.5337 -0.1166
16874TIP3   OH272036   0.437   2.370   1.269 -0.1444 -0.3750  0.4187
16874TIP3    H172037   0.496   2.299   1.244 -0.8970 -0.4850 -1.1902
16874TIP3    H272038   0.362   2.326   1.309  0.0286 -0.3742  0.7459
16875TIP3   OH272039   3.917   6.292  14.177 -0.7718 -0.5037  0.5728
16875TIP3    H172040   3.880   6.331  14.256  0.9138 -0.3026  1.2953
16875TIP3    H272041   4.002   6.335  14.167  0.1475 -2.3517  0.0896
16876TIP3   OH272042   3.916   0.294  11.349 -0.6188 -0.4189 -0.4946
16876TIP3    H172043   3.902   0.363  11.284 -0.8832 -0.3697 -0.3835
16876TIP3    H272044   3.902   0.212  11.301  1.9879 -0.5296 -1.2605
16877TIP3   OH272045   4.799   0.426  11.449 -0.4963  0.0064 -0.7906
16877TIP3    H172046   4.860   0.441  11.377  2.6751 -1.1549  1.4102
16877TIP3    H272047   4.814   0.335  11.474 -2.8035 -0.1592  0.2694
16878TIP3   OH272048   4.998   5.330   1.380  0.0033  0.0178  0.0706
16878TIP3    H172049   4.916   5.282   1.371 -2.9244  4.3810  0.4308
16878TIP3    H272050   4.997   5.362   1.470  1.9507  0.4879 -0.0301
16879TIP3   OH272051   5.025   3.765   0.834 -0.0444 -0.1328  0.4833
16879TIP3    H172052   4.951   3.709   0.813 -0.3893  0.3661  0.3737
16879TIP3    H272053   5.055   3.799   0.750  1.0413 -1.2305  0.3854
16880TIP3   OH272054   2.007   1.928   0.769 -0.0144 -0.0082 -0.6015
16880TIP3    H172055   2.087   1.973   0.797  1.5159 -2.8336 -0.0199
16880TIP3    H272056   1.943   1.998   0.758  2.7241  2.5348 -1.9382
16881TIP3   OH272057   0.653   3.356  16.687 -0.0841 -0.2734  0.2434
16881TIP3    H172058   0.717   3.394  16.747 -0.2981 -0.3356  0.5141
16881TIP3    H272059   0.638   3.268  16.721 -0.6683 -0.0983  0.4712
16882TIP3   OH272060   1.496   5.957  16.206 -0.2455 -0.0932 -1.0364
16882TIP3    H172061   1.509   6.047  16.237 -1.6287 -0.0498 -0.5180
16882TIP3    H272062   1.477   5.907  16.285  0.2310 -0.7868 -1.3600
16883TIP3   OH272063   0.485   4.369  11.385 -0.2871  0.0850 -0.5203
16883TIP3    H172064   0.516   4.429  11.318 -1.3878  1.9881  0.5933
16883TIP3    H272065   0.511   4.282  11.353  0.9819  1.0791 -2.3884
16884TIP3   OH272066   1.717   4.121   1.454  0.5282  0.1503 -0.0744
16884TIP3    H172067   1.646   4.146   1.394  1.5161  1.1298 -0.8768
16884TIP3    H272068   1.685   4.041   1.496 -1.0207  0.5252 -0.4537
16885TIP3   OH272069   5.347   1.350  13.060  0.2108 -0.1953  0.2121
16885TIP3    H172070   5.432   1.318  13.090  1.2401  1.4387 -0.8187
16885TIP3    H272071   5.357   1.361  12.966 -1.6033 -1.2285 -0.1584
16886TIP3   OH272072   2.143   4.617  14.108  0.1212  0.0695  0.0292
16886TIP3    H172073   2.121   4.675  14.181  1.6559  0.7206  0.0157
16886TIP3    H272074   2.203   4.552  14.146 -0.9513 -1.0561 -0.1398
16887TIP3   OH272075   0.082   6.547  14.377 -0.6165  0.1177  0.1173
16887TIP3    H172076   0.151   6.486  14.402 -0.6807 -0.1478 -0.3424
16887TIP3    H272077   0.066   6.599  14.456  0.9858  1.0343 -0.1317
16888TIP3   OH272078   4.793   4.470  10.674  1.0251 -0.5860 -0.4987
16888TIP3    H172079   4.825   4.414  10.745  0.6375  0.1999  0.3112
16888TIP3    H272080   4.735   4.533  10.716  1.4401  0.4381 -1.3865
16889TIP3   OH272081   1.885   0.874  11.902 -0.3901 -0.0224 -0.0104
16889TIP3    H172082   1.883   0.969  11.888  0.0770  0.4050  2.3902
16889TIP3    H272083   1.796   0.845  11.884 -0.8845  1.1043  0.5503
16890TIP3   OH272084   3.829   1.560   4.736  0.2371 -0.3709 -0.2935
16890TIP3    H172085   3.774   1.637   4.751  0.0247 -0.0407 -2.4016
16890TIP3    H272086   3.779   1.508   4.672  1.8944 -0.5567 -1.4886
16891TIP3   OH272087   1.513   4.052   1.748 -0.0759  0.1636 -0.4578
16891TIP3    H172088   1.419   4.061   1.769  0.0298 -0.1930  0.2093
16891TIP3    H272089   1.546   4.142   1.747 -0.2250  0.2346  0.3065
16892TIP3   OH272090   6.533   5.045   1.877  0.4542  0.8944 -0.0721
16892TIP3    H172091   6.482   4.973   1.914 -1.4802  1.6806 -1.0460
16892TIP3    H272092   6.506   5.049   1.785  0.2115  3.0741  0.0326
16893TIP3   OH272093   6.424   0.056   1.716  0.5793 -0.2670  0.2083
16893TIP3    H172094   6.364   0.096   1.653 -1.0138  0.5078  2.1359
16893TIP3    H272095   6.397   0.091   1.801  2.6192 -1.3180  1.3562
16894TIP3   OH272096   5.465   3.473  15.852 -0.7588  0.0004 -0.0261
16894TIP3    H172097   5.447   3.553  15.902  0.2376  0.4815 -0.4279
16894TIP3    H272098   5.446   3.402  15.914  0.1933  0.5773  0.9706
16895TIP3   OH272099   1.347   2.541   4.979 -0.0513 -0.0267 -0.3382
16895TIP3    H172100   1.402   2.520   4.903  0.2639 -0.5388  0.0296
16895TIP3    H272101   1.260   2.555   4.941  0.0741 -0.4108 -0.7868
16896TIP3   OH272102   5.028   5.091   2.897  0.0998  0.3339  0.3428
16896TIP3    H172103   5.061   5.002   2.904  0.8333  0.5739  0.0871
16896TIP3    H272104   5.050   5.132   2.981  2.2140  1.0411 -0.4659
16897TIP3   OH272105   1.617   1.146   5.672 -0.0464  0.3297  0.3099
16897TIP3    H172106   1.560   1.107   5.738 -0.0091 -0.5593 -0.1617
16897TIP3    H272107   1.582   1.116   5.588  1.1888 -0.3770  0.0128
16898TIP3   OH272108   3.570   6.356  16.351  0.6074 -0.8372  0.5336
16898TIP3    H172109   3.521   6.437  16.359  0.9669 -0.6527  0.8921
16898TIP3    H272110   3.516   6.291  16.396  0.3127 -0.7998  0.2312
16899TIP3   OH272111   0.934   1.488   4.435 -0.2896  0.2210 -0.1835
16899TIP3    H172112   0.987   1.409   4.437 -2.0009 -1.0809 -1.7892
16899TIP3    H272113   0.997   1.560   4.442  2.0268 -1.1229 -3.8868
16900TIP3   OH272114   1.875   6.069  17.328 -0.3872 -0.4979  0.0381
16900TIP3    H172115   1.937   6.141  17.312 -1.8041  0.1922 -3.1232
16900TIP3    H272116   1.797   6.112  17.362  0.6268 -1.3682  4.0144
16901TIP3   OH272117   1.522   3.042  13.309 -0.3221 -0.5070  0.5406
16901TIP3    H172118   1.611   3.076  13.302 -0.4171 -0.5448 -1.2418
16901TIP3    H272119   1.533   2.947  13.313 -0.2221 -0.4582  2.2681
16902TIP3   OH272120   2.126   0.578  12.124  0.3779 -0.5351  0.8855
16902TIP3    H172121   2.205   0.613  12.083  1.2054 -0.8980  2.1200
16902TIP3    H272122   2.068   0.653  12.131  0.7564 -0.1781  0.3147
16903TIP3   OH272123   2.427   2.877  13.096  0.0137 -0.8067  0.4952
16903TIP3    H172124   2.381   2.908  13.174 -1.5723  0.6224 -0.9129
16903TIP3    H272125   2.369   2.809  13.060 -1.7009  1.6605 -1.8154
16904TIP3   OH272126   4.742   3.728  13.261  0.3269  0.4713  0.1982
16904TIP3    H172127   4.674   3.763  13.318  0.0801 -2.1865  1.7262
16904TIP3    H272128   4.824   3.761  13.298  0.1398 -0.7982  1.9079
16905TIP3   OH272129   6.037   3.914  14.536  0.1236  0.0871 -0.3722
16905TIP3    H172130   6.132   3.900  14.535  0.1476 -0.3222  2.1584
16905TIP3    H272131   6.012   3.907  14.444  2.5983  0.7578 -1.1960
16906TIP3   OH272132   0.927   0.988  14.592 -0.8820  0.2636 -0.4840
16906TIP3    H172133   0.930   1.074  14.634  0.2134  0.2573 -0.5067
16906TIP3    H272134   0.882   1.003  14.509 -1.0303  0.7395 -0.3210
16907TIP3   OH272135   0.850   5.491   1.605 -0.2705  0.1874 -0.1425
16907TIP3    H172136   0.857   5.586   1.606  0.6347  0.1367 -0.6563
16907TIP3    H272137   0.881   5.463   1.691 -1.3987  0.3907  0.3530
16908TIP3   OH272138   4.634   5.607  15.893  0.1647  0.0422 -0.0612
16908TIP3    H172139   4.568   5.587  15.827  0.1044  1.4638 -0.4581
16908TIP3    H272140   4.598   5.681  15.942  0.9544  0.0971  0.4543
16909TIP3   OH272141   4.377   6.489   2.387  0.2303 -0.0215  0.0942
16909TIP3    H172142   4.465   6.506   2.422  0.7183 -0.8145 -0.6874
16909TIP3    H272143   4.381   6.398   2.358 -0.6086  0.1803 -0.6760
16910TIP3   OH272144   6.732   4.045   0.786 -0.7507  0.0476  0.3271
16910TIP3    H172145   6.682   3.963   0.783 -1.9328  0.6963  1.2382
16910TIP3    H272146   6.720   4.077   0.876  1.3306  0.2540  0.5763
16911TIP3   OH272147   4.536   0.424  14.943  0.1954 -0.6955 -0.2355
16911TIP3    H172148   4.520   0.344  14.992 -0.9465 -1.3449 -1.5853
16911TIP3    H272149   4.630   0.425  14.927  0.8605  0.2282  3.0080
16912TIP3   OH272150   2.427   4.287  15.446  0.2503 -0.0479  0.8084
16912TIP3    H172151   2.433   4.280  15.542 -0.7434  2.3787  1.1283
16912TIP3    H272152   2.343   4.329  15.430  0.3790 -0.4373 -1.1674
16913TIP3   OH272153   2.489   4.708  11.832  0.3145 -0.5043  0.0508
16913TIP3    H172154   2.506   4.697  11.925  0.4402  1.8367  0.3700
16913TIP3    H272155   2.405   4.755  11.828  0.7198  0.1686 -0.9517
16914TIP3   OH272156   4.070   2.519  15.809 -0.1292 -0.2469 -0.2715
16914TIP3    H172157   3.978   2.542  15.799  0.4480  1.2075 -3.2191
16914TIP3    H272158   4.115   2.565  15.738  2.7500 -1.7433  0.4079
16915TIP3   OH272159   2.406   1.092  12.058  0.0736  0.2472 -0.4066
16915TIP3    H172160   2.441   1.157  12.119  0.0892 -1.2009  1.2115
16915TIP3    H272161   2.311   1.097  12.070 -0.0301  1.0324 -1.4457
16916TIP3   OH272162   0.934   2.324  11.026 -0.3770 -0.1674  0.5150
16916TIP3    H172163   0.851   2.339  11.070 -0.1672 -1.2999  1.3299
16916TIP3    H272164   0.973   2.412  11.017 -0.5821  0.1389  2.2909
16917TIP3   OH272165   5.551   5.248  16.591 -0.0677  0.1279 -0.5337
16917TIP3    H172166   5.627   5.305  16.583  0.6743 -0.4231  1.9132
16917TIP3    H272167   5.582   5.162  16.562 -0.5629  0.4193 -2.0565
16918TIP3   OH272168   0.052   4.051   5.454 -0.1938  0.1592  0.4729
16918TIP3    H172169  -0.018   3.993   5.484 -0.0027 -0.3410 -0.0403
16918TIP3    H272170   0.092   4.083   5.535  0.5014 -1.4059  0.7833
16919TIP3   OH272171   1.363   2.402   2.766 -0.2976  0.2501  0.3911
16919TIP3    H172172   1.312   2.409   2.847  0.3025  1.7398  0.6822
16919TIP3    H272173   1.397   2.312   2.766 -0.3360  0.2105  1.7893
16920TIP3   OH272174   4.950   0.873  12.141 -0.0530 -0.4985  0.0736
16920TIP3    H172175   4.933   0.909  12.228  0.4972  0.3573 -0.1633
16920TIP3    H272176   4.888   0.918  12.084  1.4260  0.9870 -0.4237
16921TIP3   OH272177   3.248   0.394   3.600  0.0635  0.1736  0.1376
16921TIP3    H172178   3.163   0.359   3.573 -0.0909  0.8093 -0.2129
16921TIP3    H272179   3.248   0.484   3.568  1.2014 -0.0620 -0.5955
16922TIP3   OH272180   4.924   3.447  13.720 -1.0087  0.2603  0.0134
16922TIP3    H172181   4.891   3.443  13.810 -0.6775 -0.4319  0.1137
16922TIP3    H272182   4.852   3.416  13.666 -1.4093  1.2297 -0.0209
16923TIP3   OH272183   4.207   4.396  15.097 -0.1153  0.2695 -0.1278
16923TIP3    H172184   4.263   4.435  15.164  1.6953  1.8134 -2.3811
16923TIP3    H272185   4.121   4.436  15.111  0.0422  0.0856  1.5911
16924TIP3   OH272186   2.964   3.118   5.219  0.0073 -0.2471  0.4741
16924TIP3    H172187   3.048   3.122   5.174 -0.0945 -3.6076 -0.2849
16924TIP3    H272188   2.899   3.117   5.148 -0.4156 -1.2665  0.8584
16925TIP3   OH272189   0.734   4.453  10.755 -0.5012  0.0027 -0.2456
16925TIP3    H172190   0.706   4.493  10.837  1.5461 -0.2185  0.6206
16925TIP3    H272191   0.692   4.367  10.755 -0.5431  0.0099  0.5766
16926TIP3   OH272192   2.843   4.469  14.141  0.1486 -0.6794  0.1688
16926TIP3    H172193   2.913   4.406  14.158  1.6895  1.0663  0.5838
16926TIP3    H272194   2.853   4.490  14.048  0.1542 -0.4381  0.2244
16927TIP3   OH272195   3.378   5.123   5.084  0.0799 -0.0488  0.0271
16927TIP3    H172196   3.411   5.183   5.017  1.1764 -1.4464 -0.7364
16927TIP3    H272197   3.322   5.063   5.036 -0.3909 -0.1149  0.6506
16928TIP3   OH272198   2.990   3.519  15.392 -0.1650 -0.1821  0.1407
16928TIP3    H172199   2.918   3.478  15.441 -0.7300  0.3444 -0.2232
16928TIP3    H272200   2.992   3.609  15.423  0.5117 -0.2568  0.3250
16929TIP3   OH272201   5.061   3.338  16.509  0.0747 -0.4952  0.0603
16929TIP3    H172202   5.147   3.333  16.550  0.1636 -1.1073 -0.1882
16929TIP3    H272203   5.015   3.406  16.558  0.1376 -1.2730  1.2229
16930TIP3   OH272204   1.169   3.387   5.479  0.8262 -0.0897  0.0687
16930TIP3    H172205   1.241   3.374   5.540 -0.3736  0.6042  1.7132
16930TIP3    H272206   1.092   3.352   5.525 -0.0694  0.1899 -1.1681
16931TIP3   OH272207   1.694   1.934  15.384  0.4898  0.2793 -0.7803
16931TIP3    H172208   1.786   1.928  15.410  0.0958 -0.5132  0.5637
16931TIP3    H272209   1.653   1.983  15.456 -0.9680 -3.4170  1.1658
16932TIP3   OH272210   6.286   5.624  14.567  0.1134  0.5018  0.0976
16932TIP3    H172211   6.254   5.575  14.491 -0.7514  0.9707  0.1417
16932TIP3    H272212   6.351   5.683  14.532 -1.1454  1.5698 -0.5068
16933TIP3   OH272213   2.472   0.838   3.887  0.0569 -0.5622  0.0747
16933TIP3    H172214   2.407   0.774   3.916 -1.3680  0.8330  0.1634
16933TIP3    H272215   2.502   0.880   3.967 -0.4751  0.1784 -0.1001
16934TIP3   OH272216   2.821   0.001   1.449 -0.2105 -0.2001  0.2066
16934TIP3    H172217   2.776  -0.057   1.510  0.2407 -0.3274  0.4244
16934TIP3    H272218   2.773   0.084   1.455 -1.4001 -0.7828 -0.7481
16935TIP3   OH272219   4.079   4.861   6.181 -0.3122 -0.1985  0.9065
16935TIP3    H172220   4.009   4.919   6.212 -0.8216 -0.7973  0.8925
16935TIP3    H272221   4.138   4.920   6.133 -0.9865  0.2659  0.6171
16936TIP3   OH272222   6.278   2.947  12.001  0.1253  0.4098  0.1638
16936TIP3    H172223   6.362   2.986  12.023  0.1237  0.1064  0.7253
16936TIP3    H272224   6.299   2.881  11.935  0.2414  0.7488 -0.1447
16937TIP3   OH272225   3.287   1.262   1.553  0.0910 -0.1071 -0.3201
16937TIP3    H172226   3.355   1.194   1.560 -0.8036 -0.9524  0.4693
16937TIP3    H272227   3.226   1.242   1.623 -0.0465  1.7290  0.1361
16938TIP3   OH272228   0.915   2.148   3.957 -0.1741 -1.2659 -0.1034
16938TIP3    H172229   0.853   2.140   3.884  0.1439 -2.3436 -0.2741
16938TIP3    H272230   0.860   2.167   4.033 -0.6539 -1.5535 -0.3723
16939TIP3   OH272231   1.453   4.899   1.007 -0.0677 -0.2871  0.1338
16939TIP3    H172232   1.451   4.992   0.987  2.3907 -0.5020 -1.6298
16939TIP3    H272233   1.424   4.893   1.098 -1.8259  1.9671 -0.1811
16940TIP3   OH272234   5.921   4.357  15.571 -0.5972 -0.3590 -0.4043
16940TIP3    H172235   5.922   4.450  15.593 -0.7139 -0.1889 -1.0972
16940TIP3    H272236   5.894   4.354  15.479 -3.0496 -1.1885  0.2539
16941TIP3   OH272237   5.003   3.935   4.191  0.5311  0.4437  0.4470
16941TIP3    H172238   4.935   3.867   4.184 -1.0253  1.7713  1.8731
16941TIP3    H272239   5.085   3.887   4.181 -0.5077 -1.6611  1.4042
16942TIP3   OH272240   0.161   3.542   4.579  0.0271 -0.0122 -0.2574
16942TIP3    H172241   0.093   3.478   4.597  0.6678 -0.7656 -0.4418
16942TIP3    H272242   0.150   3.609   4.647 -0.1887 -0.7032  0.4015
16943TIP3   OH272243   5.564   1.469   6.307 -0.1614 -0.4308 -0.2655
16943TIP3    H172244   5.568   1.404   6.377  1.3554  1.1792  1.2696
16943TIP3    H272245   5.471   1.480   6.288 -0.4662 -2.8354 -0.4398
16944TIP3   OH272246   6.540   1.687   0.655  0.8603  1.0320 -0.5328
16944TIP3    H172247   6.527   1.777   0.685  1.2414  1.3808 -1.3771
16944TIP3    H272248   6.602   1.649   0.717  2.3376  2.0150 -1.3450
16945TIP3   OH272249   5.567   1.621   0.986 -0.4965  0.5428  0.0549
16945TIP3    H172250   5.581   1.547   1.045 -0.6473  1.1831  0.9258
16945TIP3    H272251   5.557   1.696   1.045  3.0235  1.8835 -0.8319
16946TIP3   OH272252   5.442   1.021   0.907 -0.0551 -0.4129  0.6885
16946TIP3    H172253   5.372   1.007   0.972 -0.2853 -1.7028  0.1835
16946TIP3    H272254   5.441   1.116   0.892 -1.4457 -0.3573  0.9668
16947TIP3   OH272255   1.121   3.340   4.769  0.5930 -0.4402  0.2714
16947TIP3    H172256   1.157   3.363   4.683  0.1740  0.0404  0.2203
16947TIP3    H272257   1.157   3.405   4.829  0.9817 -0.8495  0.4855
16948TIP3   OH272258   0.606   2.137   3.444 -0.1101 -0.2684 -0.2721
16948TIP3    H172259   0.573   2.193   3.514 -0.6325 -0.0105 -0.7141
16948TIP3    H272260   0.545   2.063   3.442 -0.8332  0.3375 -1.2646
16949TIP3   OH272261   3.614   1.226   5.452 -0.3522  0.6023  0.1883
16949TIP3    H172262   3.586   1.140   5.482  2.6736  0.0039  1.6003
16949TIP3    H272263   3.566   1.288   5.508 -1.0985 -0.1873  0.4470
16950TIP3   OH272264   4.151   1.277  16.030  0.0416 -0.3390 -0.3551
16950TIP3    H172265   4.247   1.279  16.029  0.0851  2.3167  0.2613
16950TIP3    H272266   4.126   1.279  15.937  0.6778  1.4599 -0.5391
16951TIP3   OH272267   3.118   1.214   1.760  0.4620  0.6247  0.5721
16951TIP3    H172268   3.168   1.221   1.841 -1.3236  0.9741  1.7107
16951TIP3    H272269   3.108   1.120   1.746  1.7309  0.5397  0.0996
16952TIP3   OH272270   1.800   3.065   4.286  0.6121  0.1925  0.0799
16952TIP3    H172271   1.753   3.084   4.205 -1.6306  1.5862  1.5680
16952TIP3    H272272   1.822   2.972   4.280 -0.6242 -0.0439 -1.5866
16953TIP3   OH272273   6.374   2.118   5.376  1.0083  0.3278  0.5466
16953TIP3    H172274   6.415   2.189   5.426  0.7494  1.9414 -1.3996
16953TIP3    H272275   6.439   2.095   5.310  0.1740  0.3841 -0.3086
16954TIP3   OH272276   2.492   4.384  10.937 -0.0374  0.6641 -0.6618
16954TIP3    H172277   2.545   4.338  10.872  1.2422 -0.0628  0.8408
16954TIP3    H272278   2.459   4.315  10.995 -3.1183  1.0072 -1.7793
16955TIP3   OH272279   0.102   4.475   3.368  0.0172  0.3119  0.4285
16955TIP3    H172280   0.057   4.398   3.403 -0.9248  0.6380 -0.0298
16955TIP3    H272281   0.150   4.443   3.292 -0.3875  0.1759  0.2286
16956TIP3   OH272282   6.010   2.690  11.559 -0.9328 -0.6665  0.5537
16956TIP3    H172283   5.975   2.656  11.477 -0.3384  0.0718 -0.0204
16956TIP3    H272284   6.056   2.770  11.534 -1.9395  0.3502  1.7967
16957TIP3   OH272285   3.661   4.299  15.789 -0.1439  0.0478  0.4976
16957TIP3    H172286   3.654   4.327  15.697  0.3055 -0.3523  0.3346
16957TIP3    H272287   3.722   4.362  15.828 -0.0675  0.0141  0.4342
16958TIP3   OH272288   1.419   5.601   1.737 -0.4739  0.2310 -0.3626
16958TIP3    H172289   1.399   5.636   1.650 -0.1913 -0.5851 -0.7672
16958TIP3    H272290   1.510   5.628   1.754 -0.6692  0.7580 -0.1264
16959TIP3   OH272291   5.152   6.556   0.493 -0.2727 -0.1044  0.3482
16959TIP3    H172292   5.215   6.504   0.543  0.4151  0.8164  0.4784
16959TIP3    H272293   5.169   6.646   0.521 -0.6385  0.3083 -0.7207
16960TIP3   OH272294   3.740   5.188  12.912  0.4462 -0.8455 -0.2802
16960TIP3    H172295   3.808   5.252  12.892  1.2581 -1.4714  0.3986
16960TIP3    H272296   3.662   5.241  12.931  1.2285 -0.0233  0.7792
16961TIP3   OH272297   2.292   5.619  16.475 -0.0698 -0.0024 -0.2400
16961TIP3    H172298   2.284   5.679  16.401 -1.5205  0.0490 -0.0724
16961TIP3    H272299   2.352   5.663  16.535 -1.4839  1.5876  0.1136
16962TIP3   OH272300   4.314   6.722   1.709  0.4149 -0.3546 -0.0980
16962TIP3    H172301   4.276   6.686   1.790  3.0094 -0.3897  1.1926
16962TIP3    H272302   4.331   6.814   1.730  1.1084 -0.3642 -0.6010
16963TIP3   OH272303   0.957   3.852  15.220  0.2749 -0.3816 -1.0300
16963TIP3    H172304   0.938   3.875  15.129  0.3317 -0.7103 -1.1282
16963TIP3    H272305   1.003   3.768  15.214  1.5044  0.2614 -0.7710
16964TIP3   OH272306   2.140   2.610  15.639 -0.4865  0.2385 -0.3079
16964TIP3    H172307   2.122   2.700  15.611 -0.7578  0.2367 -0.1486
16964TIP3    H272308   2.173   2.620  15.729 -1.3533  0.1213  0.0299
16965TIP3   OH272309   1.469   5.874   2.743 -0.1508  0.2541  0.0231
16965TIP3    H172310   1.427   5.959   2.728 -0.3995  0.0239 -0.6299
16965TIP3    H272311   1.477   5.867   2.838  0.2516  1.1892  0.0620
16966TIP3   OH272312   5.381   3.803  12.157  0.1936  0.2900 -0.8880
16966TIP3    H172313   5.345   3.818  12.069  0.4239  0.4471 -0.9561
16966TIP3    H272314   5.434   3.881  12.175 -0.8522  0.8474 -0.0963
16967TIP3   OH272315   2.773   5.000  12.246 -0.2128  0.0215 -0.0200
16967TIP3    H172316   2.810   5.078  12.203 -0.6309  1.0204  1.3422
16967TIP3    H272317   2.690   5.030  12.282 -1.1808 -1.5292 -0.8751
16968TIP3   OH272318   6.729   5.551  15.793  0.0449 -0.0907  0.6280
16968TIP3    H172319   6.819   5.575  15.813 -0.0662  0.4646  0.4701
16968TIP3    H272320   6.693   5.517  15.875 -0.0552  1.0733  1.0757
16969TIP3   OH272321   6.695   3.325   0.486  0.8573 -0.2480 -0.4981
16969TIP3    H172322   6.776   3.371   0.464  1.2358 -0.7052 -0.0804
16969TIP3    H272323   6.709   3.235   0.456  0.1942 -0.1427 -1.1388
16970TIP3   OH272324   3.174   3.311   5.367  0.3373  0.1147  0.7013
16970TIP3    H172325   3.127   3.394   5.360  1.5652  1.0252  2.4317
16970TIP3    H272326   3.126   3.262   5.434 -1.4053 -1.3871 -1.4981
16971TIP3   OH272327   1.224   2.889   0.109 -1.0763  0.7619 -0.8049
16971TIP3    H172328   1.220   2.923   0.199 -0.6025 -0.3496 -0.3445
16971TIP3    H272329   1.270   2.958   0.060 -0.2822  0.8741  0.0645
16972TIP3   OH272330   4.371   5.590  13.270  0.1271 -0.2510 -0.5989
16972TIP3    H172331   4.428   5.540  13.329 -0.5169 -1.6020 -1.0831
16972TIP3    H272332   4.282   5.566  13.297 -0.1900 -1.2589 -2.3695
16973TIP3   OH272333   3.121   0.549   1.362 -0.0576  0.3489  0.4427
16973TIP3    H172334   3.047   0.496   1.392  1.5736 -1.7725  0.9657
16973TIP3    H272335   3.094   0.582   1.277 -0.9115 -2.0176 -0.2761
16974TIP3   OH272336   4.848   1.934   0.406 -0.3180  0.0169  0.0221
16974TIP3    H172337   4.873   1.951   0.497  0.3573  3.3036 -0.6790
16974TIP3    H272338   4.754   1.954   0.403 -0.1505  0.8042 -0.1690
16975TIP3   OH272339   5.858   6.590   2.508  0.1280  0.2046  0.0731
16975TIP3    H172340   5.887   6.503   2.534  1.2390  0.3434 -0.6667
16975TIP3    H272341   5.937   6.635   2.481 -0.7621  0.5239 -2.2308
16976TIP3   OH272342   3.195   1.461   5.686 -0.2998  0.0700 -0.0524
16976TIP3    H172343   3.160   1.540   5.727 -1.2946  0.0494 -0.8270
16976TIP3    H272344   3.257   1.426   5.750 -0.4348  1.0432  0.6294
16977TIP3   OH272345   5.545   6.538  11.334 -0.3043 -0.1452  0.4461
16977TIP3    H172346   5.634   6.527  11.299 -0.0261 -0.2793  1.1632
16977TIP3    H272347   5.488   6.503  11.266  0.1696  0.2624 -0.1740
16978TIP3   OH272348   5.945   4.924  15.367  0.1818 -0.1491  0.0227
16978TIP3    H172349   5.927   4.831  15.373 -0.6925  0.0782  1.4138
16978TIP3    H272350   5.872   4.960  15.316 -0.9562  0.1162  1.7519
16979TIP3   OH272351   4.872   3.419   6.317  0.3822  0.1119 -0.4814
16979TIP3    H172352   4.939   3.476   6.354  0.5710  0.3675 -1.2009
16979TIP3    H272353   4.806   3.410   6.386  0.9560  0.1938  0.0758
16980TIP3   OH272354   2.367   1.433   2.550  0.5030  0.2742 -0.5302
16980TIP3    H172355   2.449   1.387   2.537  0.4317 -0.1558  0.4828
16980TIP3    H272356   2.378   1.481   2.632 -0.4174 -0.1623 -0.1330
16981TIP3   OH272357   2.539   5.838   2.854  0.1123  0.0120  0.1451
16981TIP3    H172358   2.490   5.857   2.934 -0.2855  0.2357 -0.1484
16981TIP3    H272359   2.598   5.913   2.844  0.7109 -0.3767  0.6360
16982TIP3   OH272360   2.415   4.841   1.507 -0.6974 -0.3490  0.3872
16982TIP3    H172361   2.458   4.780   1.567 -1.2482 -0.4362  0.6987
16982TIP3    H272362   2.353   4.787   1.458 -1.1865 -0.0446  0.6634
16983TIP3   OH272363   6.391   2.616   2.664 -0.4347  0.3604 -0.1092
16983TIP3    H172364   6.431   2.562   2.596  2.3453  0.3915  1.3599
16983TIP3    H272365   6.461   2.630   2.728 -2.5444  1.3858  2.1468
16984TIP3   OH272366   3.558   0.439   5.569 -0.0859 -0.2625 -0.2518
16984TIP3    H172367   3.588   0.366   5.514  2.3362  0.6013 -0.1875
16984TIP3    H272368   3.496   0.487   5.513 -0.5977 -1.5371 -0.8147
16985TIP3   OH272369   2.037   0.690   1.314 -0.4958 -0.4522 -0.4655
16985TIP3    H172370   1.975   0.627   1.353 -0.8718 -1.0839 -2.0012
16985TIP3    H272371   1.987   0.771   1.306 -0.3870 -0.2899  0.4179
16986TIP3   OH272372   3.501   1.362  13.608  0.8429  0.6028  0.1608
16986TIP3    H172373   3.546   1.433  13.654  1.4520 -0.5207  1.3725
16986TIP3    H272374   3.535   1.282  13.648 -0.0232 -0.3801 -0.9772
16987TIP3   OH272375   4.027   1.587   1.332 -1.1693  0.2366 -0.2973
16987TIP3    H172376   4.068   1.668   1.301  1.0362 -0.9765 -0.7854
16987TIP3    H272377   4.017   1.600   1.426  1.3152  0.2874  0.0315
16988TIP3   OH272378   1.481   1.092  14.622  0.0547  0.7643  0.4258
16988TIP3    H172379   1.502   1.040  14.544 -0.1620  1.0835  0.1523
16988TIP3    H272380   1.441   1.030  14.682  1.1039  0.2976  0.6742
16989TIP3   OH272381   4.462   4.630  15.981 -0.3952  0.0546  0.8520
16989TIP3    H172382   4.418   4.612  15.898  0.6862 -0.8739  0.4442
16989TIP3    H272383   4.416   4.705  16.017 -1.2395  0.1360 -0.3278
16990TIP3   OH272384   3.695   4.034  14.573  0.4152 -0.1300 -0.2882
16990TIP3    H172385   3.726   4.099  14.511  0.3601 -0.1998 -0.3882
16990TIP3    H272386   3.737   4.059  14.656  0.2961  0.1064 -0.2980
16991TIP3   OH272387   4.225   0.153   2.386 -0.3532 -0.3321 -0.2389
16991TIP3    H172388   4.248   0.107   2.306  1.4552  2.3619 -1.4351
16991TIP3    H272389   4.167   0.224   2.357  0.5943  0.8926  0.7169
16992TIP3   OH272390   5.754   3.702  16.943  0.2465 -0.0847  0.0787
16992TIP3    H172391   5.773   3.657  17.026  1.6354  2.2341  1.0982
16992TIP3    H272392   5.756   3.632  16.878  0.6586 -1.7590  1.7765
16993TIP3   OH272393   6.269   4.104   6.549  0.2125  0.5993 -1.0107
16993TIP3    H172394   6.223   4.186   6.533 -1.9224 -0.0067  1.4161
16993TIP3    H272395   6.201   4.037   6.549  1.8590 -1.2076 -2.6318
16994TIP3   OH272396   5.774   6.705  12.564 -0.4761  0.1329  0.2546
16994TIP3    H172397   5.775   6.707  12.660  1.1999  2.3485  0.2763
16994TIP3    H272398   5.725   6.626  12.542 -0.4343 -0.7341  2.9357
16995TIP3   OH272399   1.966   2.324   0.675 -0.2482  0.2142  0.1757
16995TIP3    H172400   2.032   2.361   0.617  1.2235 -1.7998  0.4525
16995TIP3    H272401   1.886   2.371   0.653  0.9950  1.9142 -1.0178
16996TIP3   OH272402   3.577   5.661   2.801  0.4945 -0.1443 -0.1855
16996TIP3    H172403   3.656   5.627   2.759 -0.0782 -1.8420  0.0315
16996TIP3    H272404   3.608   5.703   2.881  1.2644  0.1665 -0.6311
16997TIP3   OH272405   2.119   6.434  16.037 -0.4354  0.2032  0.0821
16997TIP3    H172406   2.139   6.435  16.131 -0.9641 -0.2770  0.2047
16997TIP3    H272407   2.078   6.349  16.022 -0.3723  0.2885 -0.5825
16998TIP3   OH272408   6.487   5.312   4.168  0.1816 -0.1053  0.2112
16998TIP3    H172409   6.525   5.270   4.245  1.6329 -1.7654 -1.3290
16998TIP3    H272410   6.413   5.256   4.145 -0.2565  0.3960  0.3606
16999TIP3   OH272411   3.943   1.572   3.044 -0.0575 -0.5126  0.0255
16999TIP3    H172412   3.943   1.593   3.137 -2.1627  0.8778 -0.2196
16999TIP3    H272413   4.028   1.603   3.012  0.5552 -0.7091  1.3979
17000TIP3   OH272414   6.152   0.459   0.744 -0.0593  0.5009  0.4040
17000TIP3    H172415   6.236   0.438   0.705  0.1551 -3.1809  2.4734
17000TIP3    H272416   6.172   0.524   0.811  0.8383  0.8479 -0.1865
17001TIP3   OH272417   0.745   1.148  16.046  0.0029 -0.3523 -0.2606
17001TIP3    H172418   0.738   1.067  16.097 -0.0666  0.2229  0.6622
17001TIP3    H272419   0.673   1.203  16.078 -0.6023 -0.3027 -1.6138
17002TIP3   OH272420   2.486   5.328  12.540 -0.1888  0.1191 -0.3641
17002TIP3    H172421   2.464   5.321  12.633 -0.0890 -1.7428 -0.4386
17002TIP3    H272422   2.402   5.340  12.497 -0.2086  1.2955 -0.0322
17003TIP3   OH272423   6.645   2.866  14.285 -0.1127 -0.0648  0.1382
17003TIP3    H172424   6.641   2.961  14.276 -0.8093  0.1853  2.3566
17003TIP3    H272425   6.733   2.849  14.317  0.5267 -0.3598 -1.6962
17004TIP3   OH272426   1.586   5.604  12.701 -0.2877 -0.1518  0.1102
17004TIP3    H172427   1.670   5.603  12.748  0.0517  0.1949 -0.4857
17004TIP3    H272428   1.572   5.513  12.677  0.7375  0.0127 -1.2180
17005TIP3   OH272429   5.965   6.432  12.642  0.0375  0.2139 -0.0889
17005TIP3    H172430   5.873   6.427  12.615 -0.0663 -2.4041  0.4858
17005TIP3    H272431   5.971   6.514  12.692 -1.6990  0.9587 -1.0230
17006TIP3   OH272432   2.922   2.061   5.133 -0.3499  0.2409  0.0320
17006TIP3    H172433   2.888   2.018   5.211  0.8764  0.0279  0.4569
17006TIP3    H272434   2.987   2.001   5.098  1.1242  1.5428  0.4312
17007TIP3   OH272435   6.071   2.981   1.888  0.1101 -0.5237 -0.3015
17007TIP3    H172436   6.037   2.936   1.966  0.1213 -0.4556 -0.2568
17007TIP3    H272437   6.083   3.072   1.917 -0.8958 -0.2562 -0.6948
17008TIP3   OH272438   4.369   1.352  15.182 -0.2833 -0.3473 -0.2656
17008TIP3    H172439   4.458   1.317  15.173 -1.3545 -2.8852 -2.1914
17008TIP3    H272440   4.339   1.364  15.092 -2.1365 -0.2366  0.3291
17009TIP3   OH272441   4.324   5.896   3.834  0.1029 -0.2516 -0.4603
17009TIP3    H172442   4.362   5.982   3.851  2.0313 -0.6712 -2.2331
17009TIP3    H272443   4.298   5.899   3.741  0.1461 -1.5552 -0.5315
17010TIP3   OH272444   0.048   0.516  17.366  0.7782  0.1952  1.0124
17010TIP3    H172445  -0.041   0.512  17.401  0.0428 -1.4694 -0.8329
17010TIP3    H272446   0.047   0.592  17.307 -0.5290 -1.6172 -1.4999
17011TIP3   OH272447   2.337   4.322   2.587  0.5337 -0.8269  0.6680
17011TIP3    H172448   2.252   4.308   2.627  0.7977 -2.4362  0.7140
17011TIP3    H272449   2.322   4.392   2.523 -1.0307 -1.6652  0.0666
17012TIP3   OH272450   1.410   6.610  15.102 -0.4041 -0.0928  0.2558
17012TIP3    H172451   1.342   6.549  15.075 -1.1687  1.4701 -1.5785
17012TIP3    H272452   1.379   6.645  15.185 -0.8507 -0.8459  0.4161
17013TIP3   OH272453   3.685   4.926  15.373 -0.2021  0.3093  0.0278
17013TIP3    H172454   3.688   4.860  15.442 -0.2889 -1.2630 -1.4223
17013TIP3    H272455   3.596   4.962  15.378 -0.1170  0.4259  0.8954
17014TIP3   OH272456   5.239   4.308   0.606 -0.5641  0.1847 -0.2882
17014TIP3    H172457   5.232   4.221   0.645 -1.7084  0.4284  0.0847
17014TIP3    H272458   5.333   4.326   0.606 -0.4649  0.6148  3.4554
17015TIP3   OH272459   6.191   5.190  11.137  0.1041  0.7131 -0.1851
17015TIP3    H172460   6.178   5.214  11.228 -2.2955  0.1170 -0.3193
17015TIP3    H272461   6.274   5.232  11.113  0.1303  1.9624  1.8748
17016TIP3   OH272462   2.755   0.733   1.335 -0.1222 -0.2534 -0.2462
17016TIP3    H172463   2.706   0.812   1.311  1.1881  0.4331 -0.7684
17016TIP3    H272464   2.831   0.765   1.383  0.7278 -1.1389 -0.9528
17017TIP3   OH272465   4.749   6.108   3.363  0.0649 -0.1743  0.4920
17017TIP3    H172466   4.828   6.148   3.325  1.0818 -1.7680  0.8179
17017TIP3    H272467   4.742   6.148   3.450 -0.4137  1.1280 -0.1263
17018TIP3   OH272468   5.745   0.562  11.462 -0.2451 -0.4061  0.2193
17018TIP3    H172469   5.823   0.610  11.434 -0.1113 -1.6430 -1.7360
17018TIP3    H272470   5.730   0.498  11.392 -2.0790 -1.2786  1.3358
17019TIP3   OH272471   1.926   5.946   5.213 -0.2013 -0.8269 -0.1861
17019TIP3    H172472   1.932   5.958   5.308 -0.4383  2.1443 -0.4507
17019TIP3    H272473   1.883   5.861   5.202 -1.3197 -0.6836  2.4019
17020TIP3   OH272474   2.591   2.239  14.921 -0.2919 -0.3710  0.3686
17020TIP3    H172475   2.625   2.152  14.943  0.4508 -0.0717  0.4243
17020TIP3    H272476   2.524   2.223  14.855  0.4662 -0.9146 -0.2915
17021TIP3   OH272477   3.142   0.039   3.708 -0.2576  0.6695  0.2517
17021TIP3    H172478   3.068  -0.016   3.733  1.1905 -3.0139 -2.5772
17021TIP3    H272479   3.111   0.088   3.631  0.4021 -2.0068 -1.8999
17022TIP3   OH272480   2.793   5.004  16.392  0.1415  0.3444  0.8084
17022TIP3    H172481   2.884   5.033  16.382 -0.0779  0.8667  0.2995
17022TIP3    H272482   2.754   5.017  16.306 -0.2596 -0.4530  0.8544
17023TIP3   OH272483   0.666   5.784   5.580  0.1644 -1.0120  0.4114
17023TIP3    H172484   0.598   5.801   5.516 -0.1210 -1.4343  0.5933
17023TIP3    H272485   0.643   5.839   5.655 -0.4392 -1.7478  0.7823
17024TIP3   OH272486   1.377   1.197   4.378  0.0915  0.0420 -0.1099
17024TIP3    H172487   1.347   1.128   4.318 -0.6923 -0.6062  0.9924
17024TIP3    H272488   1.461   1.164   4.412 -0.4581 -0.5685  0.6959
17025TIP3   OH272489   0.968   3.375  14.316 -0.0731 -0.0531  0.0971
17025TIP3    H172490   0.994   3.466  14.301  0.4972  0.0725  1.6354
17025TIP3    H272491   1.028   3.323  14.263 -0.9866  0.4623 -1.5211
17026TIP3   OH272492   6.699   1.829   5.771  0.3440 -0.3535 -0.6958
17026TIP3    H172493   6.716   1.771   5.845 -0.7268  0.1863  0.0052
17026TIP3    H272494   6.705   1.773   5.694  2.5610 -0.7147 -0.3308
17027TIP3   OH272495   3.280   4.634   1.952  0.0578  0.5565  0.6115
17027TIP3    H172496   3.296   4.540   1.944  0.9892  0.5892  1.7868
17027TIP3    H272497   3.270   4.648   2.047  2.9040  2.0649  0.7948
17028TIP3   OH272498   3.572   0.019  17.423  0.1074  0.7717 -0.0467
17028TIP3    H172499   3.605  -0.054  17.370 -0.5303 -0.3805  1.0888
17028TIP3    H272500   3.528   0.076  17.360 -0.3321 -0.3750 -0.8229
17029TIP3   OH272501   1.510   0.919  16.318  0.1003 -0.4433 -0.4509
17029TIP3    H172502   1.441   0.854  16.321  0.3966 -0.7268  0.5865
17029TIP3    H272503   1.471   0.994  16.273 -0.9175 -0.5530  0.2345
17030TIP3   OH272504   5.459   5.041   2.252 -0.2309  0.0976 -0.0387
17030TIP3    H172505   5.487   4.968   2.196  0.3571 -0.1718  0.5959
17030TIP3    H272506   5.535   5.058   2.309 -0.5077  0.9431  0.0872
17031TIP3   OH272507   4.631   6.306  12.315 -0.0267  0.2348 -0.1260
17031TIP3    H172508   4.651   6.347  12.399 -0.2711  1.8487 -0.8102
17031TIP3    H272509   4.703   6.244  12.301  0.1125  0.0797  1.1720
17032TIP3   OH272510   6.707   4.557  16.621 -0.2010  0.5582 -0.0925
17032TIP3    H172511   6.783   4.526  16.671 -0.6924 -1.4998 -0.5307
17032TIP3    H272512   6.741   4.631  16.570  1.5614 -0.3705 -0.3497
17033TIP3   OH272513   6.594   1.456  12.324 -0.0789  0.2342 -0.3799
17033TIP3    H172514   6.544   1.537  12.308 -0.3741  0.0208 -0.5676
17033TIP3    H272515   6.544   1.410  12.391 -0.9608 -0.6580 -1.5830
17034TIP3   OH272516   2.000   6.717  13.711 -0.2788 -0.1211  0.3089
17034TIP3    H172517   2.089   6.699  13.680 -0.3693  0.5719 -0.3565
17034TIP3    H272518   2.001   6.686  13.802  0.1173 -1.7408 -0.1998
17035TIP3   OH272519   5.403   1.871  13.388 -0.3800  0.2936  0.1979
17035TIP3    H172520   5.473   1.808  13.402 -0.0231  1.0665  2.0675
17035TIP3    H272521   5.339   1.852  13.456 -1.2642  0.6324 -0.5067
17036TIP3   OH272522   3.258   6.207  13.050 -0.0318  0.4606 -0.3968
17036TIP3    H172523   3.316   6.155  12.994  1.4347  0.0291  1.4012
17036TIP3    H272524   3.280   6.178  13.139 -1.6699  1.7000  0.4503
17037TIP3   OH272525   5.667   5.387   4.492  0.3671  0.2384 -0.7556
17037TIP3    H172526   5.676   5.470   4.539 -0.4500  1.6166 -2.8824
17037TIP3    H272527   5.747   5.339   4.513  0.9375  1.6353  0.4039
17038TIP3   OH272528   4.194   5.780   5.947  0.5594 -0.5706  0.3236
17038TIP3    H172529   4.274   5.771   6.000  2.0341  2.7853 -1.0333
17038TIP3    H272530   4.225   5.783   5.857 -1.2839 -0.6152 -0.3499
17039TIP3   OH272531   2.383   2.674  11.958  0.4893  0.0502  0.1025
17039TIP3    H172532   2.298   2.632  11.970  0.5673 -1.1168 -2.6631
17039TIP3    H272533   2.389   2.736  12.031 -1.6782 -1.4504  1.7079
17040TIP3   OH272534   4.581   3.163  17.283  0.3175 -0.0610  0.1826
17040TIP3    H172535   4.660   3.110  17.294  1.0208  0.9965  0.2487
17040TIP3    H272536   4.609   3.253  17.296 -1.0731  0.2708  1.1697
17041TIP3   OH272537   4.990   4.887  16.886  0.9326 -0.1691 -0.2152
17041TIP3    H172538   4.967   4.940  16.809 -2.9123 -0.1690  0.7342
17041TIP3    H272539   5.011   4.801  16.850 -0.0195  0.0446 -1.3539
17042TIP3   OH272540   2.861   3.441  16.755 -0.0597  0.6414  0.0743
17042TIP3    H172541   2.805   3.516  16.733  2.4889  2.9619  0.7976
17042TIP3    H272542   2.921   3.434  16.680 -0.5937 -1.0653 -0.2169
17043TIP3   OH272543   0.964   0.861   3.719 -0.0014  0.0548  1.0965
17043TIP3    H172544   0.929   0.842   3.806 -0.8996  0.0140  0.7361
17043TIP3    H272545   1.031   0.794   3.705 -0.1471 -0.1962  1.5830
17044TIP3   OH272546   2.235   2.442   5.835  0.5199  0.2160 -0.0744
17044TIP3    H172547   2.300   2.460   5.767 -0.2790  0.0224 -0.9121
17044TIP3    H272548   2.198   2.528   5.855 -0.6805  0.0467 -1.3909
17045TIP3   OH272549   4.821   6.095   0.019 -0.1589 -0.0371  0.0969
17045TIP3    H172550   4.865   6.089   0.104 -0.7413 -0.4572  0.3744
17045TIP3    H272551   4.808   6.189   0.005  1.5521  0.1706 -0.3818
17046TIP3   OH272552   2.507   4.945   0.547  0.0192 -0.3882 -0.0435
17046TIP3    H172553   2.563   5.000   0.602  0.5125 -1.0922  0.1694
17046TIP3    H272554   2.428   4.998   0.533  0.4278  0.3164  0.2643
17047TIP3   OH272555   2.164   5.884  14.578 -0.4713  0.0465 -0.2561
17047TIP3    H172556   2.113   5.957  14.613 -1.1186  0.3925 -1.8469
17047TIP3    H272557   2.254   5.916  14.575 -0.5022  0.2251  0.4662
17048TIP3   OH272558   2.531   1.870  14.428  0.1394  0.4306 -0.4555
17048TIP3    H172559   2.497   1.954  14.397  0.7870  0.5156 -0.9603
17048TIP3    H272560   2.617   1.862  14.386 -0.7683 -1.4444 -2.0854
17049TIP3   OH272561   6.167   2.655  17.136 -0.2829  0.2266  0.4882
17049TIP3    H172562   6.150   2.595  17.209  0.2903 -1.3978 -0.6801
17049TIP3    H272563   6.251   2.694  17.157  0.3849 -1.0234  0.2136
17050TIP3   OH272564   4.356   5.595  12.973  0.9371  0.6842 -0.3110
17050TIP3    H172565   4.393   5.599  13.061  0.9721  0.4835 -0.3159
17050TIP3    H272566   4.397   5.667  12.925 -0.0166  1.5927  0.1957
17051TIP3   OH272567   5.473   1.954  15.253  0.4012  0.3127  0.1591
17051TIP3    H172568   5.547   2.013  15.267 -0.8524  2.3551 -1.2874
17051TIP3    H272569   5.398   1.997  15.293 -0.5894 -0.1721 -1.0779
17052TIP3   OH272570   1.126   1.102  11.326 -0.0991  0.2270 -0.8590
17052TIP3    H172571   1.174   1.127  11.247 -1.8778  1.0393 -1.7233
17052TIP3    H272572   1.171   1.149  11.397 -0.0871  1.5952 -1.7486
17053TIP3   OH272573   0.940   0.289   4.466 -0.1497  0.0160  0.1203
17053TIP3    H172574   0.866   0.246   4.423 -1.2149  2.0155 -0.1429
17053TIP3    H272575   0.944   0.376   4.426  1.1392  0.6283  1.4958
17054TIP3   OH272576   4.097   3.571   0.799  0.4791 -0.2338 -0.0018
17054TIP3    H172577   4.126   3.481   0.814  2.3272  0.2558 -0.2973
17054TIP3    H272578   4.135   3.620   0.873 -1.8301  0.1024  1.0424
17055TIP3   OH272579   0.236   3.496  16.190  0.0194 -0.7667 -0.0271
17055TIP3    H172580   0.168   3.501  16.256 -0.9334  1.4284 -1.0892
17055TIP3    H272581   0.304   3.556  16.221  0.8503 -1.8435  0.3007
17056TIP3   OH272582   4.856   4.148   1.692  0.2497  0.2812  0.2063
17056TIP3    H172583   4.822   4.061   1.674 -1.0175  0.6915  0.5341
17056TIP3    H272584   4.861   4.190   1.606 -1.8811  0.8412  0.3142
17057TIP3   OH272585   4.875   5.491   4.868 -0.3281 -0.4008  0.9043
17057TIP3    H172586   4.851   5.493   4.960 -3.5696  1.1662  0.1708
17057TIP3    H272587   4.792   5.482   4.821  1.1963 -1.3572 -1.9037
17058TIP3   OH272588   3.844   0.828   2.818 -0.3778  0.1174 -0.3821
17058TIP3    H172589   3.765   0.818   2.764  0.5132 -0.3465 -1.6473
17058TIP3    H272590   3.868   0.920   2.808 -0.9380  0.3449  0.2877
17059TIP3   OH272591   2.932   0.771   0.278 -0.2868 -0.6403  0.2487
17059TIP3    H172592   2.878   0.710   0.228 -1.5876  0.8537 -0.2485
17059TIP3    H272593   2.874   0.801   0.349 -0.2487  1.1973 -0.4450
17060TIP3   OH272594   0.404   1.459  14.184  0.2539  0.3357 -0.1474
17060TIP3    H172595   0.446   1.488  14.265  0.2601  0.8033 -0.3136
17060TIP3    H272596   0.472   1.410  14.138  0.2919  0.1832  0.0694
17061TIP3   OH272597   2.165   3.334   5.477 -0.0684  0.0089  0.1189
17061TIP3    H172598   2.126   3.361   5.559 -1.2274 -0.0580 -0.3961
17061TIP3    H272599   2.097   3.350   5.411  0.8121  0.0113 -0.8185
17062TIP3   OH272600   5.850   6.556  11.762 -0.5356  0.2617 -0.1858
17062TIP3    H172601   5.852   6.515  11.676  3.0291 -0.2136 -0.0168
17062TIP3    H272602   5.872   6.648  11.746  1.5189 -0.1022  0.2263
17063TIP3   OH272603   2.918   3.891   3.853  0.3693 -0.0398 -0.2677
17063TIP3    H172604   2.919   3.796   3.847  0.0891 -0.1905  1.4410
17063TIP3    H272605   3.010   3.917   3.848  0.4636 -0.4160 -0.4893
17064TIP3   OH272606   4.999   2.357  15.628  0.4109  0.2160  1.0830
17064TIP3    H172607   4.942   2.386  15.700 -0.0240  0.4938  0.6300
17064TIP3    H272608   4.993   2.427  15.563 -0.2765 -0.6589  0.1802
17065TIP3   OH272609   4.237   2.182  14.571  0.3299  0.1673 -0.0787
17065TIP3    H172610   4.326   2.152  14.550 -0.4941 -1.2262 -1.8836
17065TIP3    H272611   4.186   2.102  14.579 -0.8162  0.9526  0.7457
17066TIP3   OH272612   1.206   2.701   5.141 -0.0240  0.2922  0.6596
17066TIP3    H172613   1.277   2.667   5.086 -0.0349  1.9353 -0.4664
17066TIP3    H272614   1.129   2.700   5.084 -0.9630 -1.4783  1.8760
17067TIP3   OH272615   2.970   3.637   4.638  0.8105  0.4190 -0.7272
17067TIP3    H172616   2.932   3.557   4.675  1.1395 -0.3909 -2.0528
17067TIP3    H272617   2.910   3.707   4.663  0.3406 -0.2991  0.1838
17068TIP3   OH272618   3.502   0.308  16.039 -0.4784  0.1426 -0.5496
17068TIP3    H172619   3.453   0.319  15.957  1.6774  0.8796 -1.8396
17068TIP3    H272620   3.567   0.378  16.037  0.8448 -0.9869  0.8801
17069TIP3   OH272621   5.528   1.084   6.287 -0.5251 -0.5622  0.2362
17069TIP3    H172622   5.490   1.117   6.205 -0.5036 -0.3238  0.3212
17069TIP3    H272623   5.527   0.989   6.277 -1.3641 -0.5711  0.3305
17070TIP3   OH272624   4.474   6.510   4.691  0.1075 -0.4009 -0.0390
17070TIP3    H172625   4.466   6.440   4.756  2.9372  0.7344  1.7335
17070TIP3    H272626   4.547   6.484   4.636  0.1548  0.4197 -0.3721
17071TIP3   OH272627   1.322   1.636  13.771  0.6243 -0.0200 -0.1014
17071TIP3    H172628   1.361   1.578  13.837 -0.3014 -0.9418 -0.3362
17071TIP3    H272629   1.372   1.619  13.692  0.2050 -0.6973 -0.2307
17072TIP3   OH272630   0.119   4.706  13.609  0.2027  0.1622  0.4229
17072TIP3    H172631   0.111   4.801  13.600 -1.7764 -0.0892 -1.3971
17072TIP3    H272632   0.047   4.672  13.556  0.7596 -2.3593  1.1955
17073TIP3   OH272633   1.824   5.079  15.413 -0.1595 -0.0561  0.2054
17073TIP3    H172634   1.877   5.005  15.443 -0.0845  0.0767  0.3954
17073TIP3    H272635   1.846   5.088  15.320 -0.9004 -0.9044 -0.0682
17074TIP3   OH272636   4.952   4.593   2.404 -0.0099 -0.1560  0.2371
17074TIP3    H172637   4.911   4.514   2.439 -1.5922 -0.3487 -1.8034
17074TIP3    H272638   5.006   4.562   2.331 -0.4301  0.5903 -0.4123
17075TIP3   OH272639   2.697   1.599   3.227 -0.0970  0.4944 -0.0901
17075TIP3    H172640   2.659   1.679   3.191 -1.4822 -0.1279 -0.0790
17075TIP3    H272641   2.726   1.623   3.315 -2.8584  0.4244  0.9538
17076TIP3   OH272642   3.840   3.024   3.103  0.3882 -0.0168  0.1718
17076TIP3    H172643   3.841   2.986   3.015 -0.4632  0.8744 -0.2309
17076TIP3    H272644   3.930   3.054   3.116  0.9176 -1.4979  0.2292
17077TIP3   OH272645   0.585   3.638   4.529 -0.1158  0.1497 -0.3437
17077TIP3    H172646   0.648   3.583   4.483  2.0965 -0.1975  2.7967
17077TIP3    H272647   0.501   3.594   4.517  0.5101 -0.5000 -2.9658
17078TIP3   OH272648   3.449   0.528  12.482 -0.3151  0.2657 -0.2280
17078TIP3    H172649   3.452   0.605  12.426 -1.9705  0.0233 -0.6987
17078TIP3    H272650   3.436   0.563  12.570  0.2376  0.5637 -0.2587
17079TIP3   OH272651   1.462   3.162  10.525  0.0428 -0.4468 -0.0780
17079TIP3    H172652   1.415   3.108  10.461 -2.6224 -0.0449  1.3762
17079TIP3    H272653   1.484   3.101  10.595 -0.7376 -0.1652  0.4313
17080TIP3   OH272654   2.222   5.677   2.991 -0.6352  0.5711  0.2389
17080TIP3    H172655   2.207   5.677   2.897 -0.4774  1.0083  0.2113
17080TIP3    H272656   2.135   5.661   3.029 -1.0850  2.3920  0.0582
17081TIP3   OH272657   0.840   0.937  16.860  0.3300 -0.5686 -0.0201
17081TIP3    H172658   0.818   0.844  16.861  0.2978 -0.5946 -1.3204
17081TIP3    H272659   0.760   0.981  16.831  0.6342 -0.2259 -0.3525
17082TIP3   OH272660   6.216   1.980  12.290 -0.0293  0.6969 -0.0314
17082TIP3    H172661   6.144   1.941  12.339  0.2687  0.2994  0.0968
17082TIP3    H272662   6.259   1.905  12.248  0.1030  0.9665 -0.3843
17083TIP3   OH272663   4.394   2.493  15.499 -0.2785 -0.5744  0.0657
17083TIP3    H172664   4.377   2.566  15.439 -1.8880 -0.2013  0.8958
17083TIP3    H272665   4.417   2.535  15.581  0.6727 -1.0538  0.0478
17084TIP3   OH272666   0.008   4.878   5.063  0.3370 -0.1431  0.3671
17084TIP3    H172667   0.082   4.918   5.017  0.8025 -0.5909  0.7214
17084TIP3    H272668  -0.050   4.848   4.993  1.7517 -2.1867 -0.0053
17085TIP3   OH272669   3.096   6.434  15.029  0.8548 -0.3757 -0.3719
17085TIP3    H172670   3.031   6.374  15.065 -0.5181  0.8628 -0.7113
17085TIP3    H272671   3.094   6.417  14.935  1.2360 -0.5232 -0.3561
17086TIP3   OH272672   0.237   4.431   5.876  0.5572  0.5628  0.1161
17086TIP3    H172673   0.228   4.520   5.910 -0.8388  0.1963  0.7314
17086TIP3    H272674   0.164   4.383   5.913  1.2480 -0.8402 -0.2783
17087TIP3   OH272675   1.820   1.853  14.858  0.0847  0.3124  0.0846
17087TIP3    H172676   1.791   1.903  14.935  0.6978 -2.7106  2.4963
17087TIP3    H272677   1.747   1.793  14.840 -0.2696  1.3346 -2.1270
17088TIP3   OH272678   1.797   2.140  11.599  0.2492 -0.2029  0.2538
17088TIP3    H172679   1.819   2.077  11.667 -2.3305 -1.5433 -0.0387
17088TIP3    H272680   1.854   2.117  11.525 -0.3258 -1.9090  0.3075
17089TIP3   OH272681   1.741   0.549  12.688 -0.5482  0.1408 -0.1470
17089TIP3    H172682   1.705   0.586  12.608 -1.1818  0.1202  0.1193
17089TIP3    H272683   1.769   0.625  12.739  0.2863  0.1297 -0.5842
17090TIP3   OH272684   6.178   4.332   6.463  0.4568 -0.2491 -0.0743
17090TIP3    H172685   6.174   4.427   6.471 -0.0482 -0.2713  0.0101
17090TIP3    H272686   6.090   4.307   6.435 -0.2315 -0.9168  2.3859
17091TIP3   OH272687   1.758   0.119  14.812  0.4175  0.1267 -0.0357
17091TIP3    H172688   1.790   0.135  14.900  1.4591 -0.3071 -0.3213
17091TIP3    H272689   1.686   0.057  14.823  0.5561  0.0619  0.5014
17092TIP3   OH272690   2.872   5.535  16.525  0.4710  0.5117  0.1097
17092TIP3    H172691   2.813   5.462  16.545  0.2655  0.9429  1.1770
17092TIP3    H272692   2.814   5.608  16.505  0.6446  0.8367  0.7744
17093TIP3   OH272693   0.408   2.612   3.370 -0.2938 -0.2496 -0.6865
17093TIP3    H172694   0.456   2.631   3.289  0.9493  0.3449  0.1519
17093TIP3    H272695   0.366   2.695   3.392 -0.8431 -0.4815 -0.8520
17094TIP3   OH272696   0.358   2.911   3.419 -0.3707  0.4937 -0.3864
17094TIP3    H172697   0.418   2.872   3.482  0.0902  2.5458  0.4902
17094TIP3    H272698   0.282   2.937   3.471 -0.9298  0.2518 -1.0593
17095TIP3   OH272699   2.816   4.482   5.646  0.4938 -0.0664 -0.7243
17095TIP3    H172700   2.889   4.443   5.693  0.1635 -0.8683 -0.8550
17095TIP3    H272701   2.740   4.427   5.668 -0.2265  1.1649 -0.0295
17096TIP3   OH272702   0.509   1.810  13.651  0.5263  0.4974 -0.5695
17096TIP3    H172703   0.544   1.749  13.586  1.0443  0.2652 -0.0780
17096TIP3    H272704   0.488   1.755  13.726  0.6332  0.8675 -0.2645
17097TIP3   OH272705   5.004   1.037  15.433 -0.3349  0.3732 -0.6839
17097TIP3    H172706   4.916   1.000  15.438  0.9682 -3.4078 -1.8110
17097TIP3    H272707   5.062   0.964  15.455  2.5665  3.0232  1.2798
17098TIP3   OH272708   6.600   1.836  17.008 -0.2356 -0.2309  0.3015
17098TIP3    H172709   6.506   1.833  17.021 -0.0927  0.6299  1.8188
17098TIP3    H272710   6.613   1.899  16.937 -0.7219  1.3906  1.6033
17099TIP3   OH272711   6.240   1.934   2.137  0.3738  0.0200  0.2174
17099TIP3    H172712   6.317   1.886   2.108 -0.8892 -1.5170 -0.7687
17099TIP3    H272713   6.177   1.924   2.065 -0.6945  1.3620  0.9208
17100TIP3   OH272714   2.563   5.496  13.189  0.3273  0.6299  0.0373
17100TIP3    H172715   2.640   5.499  13.246  0.9571  3.4031 -0.7881
17100TIP3    H272716   2.506   5.430  13.229  2.3873 -0.3296  1.6077
17101TIP3   OH272717   3.943   4.163  12.255 -0.2299 -0.2552 -0.3172
17101TIP3    H172718   3.873   4.097  12.253 -1.5368  1.0510 -2.5366
17101TIP3    H272719   3.897   4.246  12.244  1.5635  0.8138 -0.0573
17102TIP3   OH272720   0.344   4.037  15.055  0.6301  0.0320 -0.0284
17102TIP3    H172721   0.368   4.013  14.966  0.7189  0.7413 -0.2086
17102TIP3    H272722   0.276   3.975  15.079 -0.5311  0.7932 -1.1835
17103TIP3   OH272723   2.996   0.790  13.275  0.3405  0.1856 -0.1549
17103TIP3    H172724   3.012   0.723  13.208  0.7301  0.4101 -0.2909
17103TIP3    H272725   3.030   0.871  13.236 -0.8927  0.6391 -0.3420
17104TIP3   OH272726   5.384   5.442   3.790  0.0663  0.2637 -0.2866
17104TIP3    H172727   5.366   5.467   3.881 -2.0123 -0.6674 -0.3976
17104TIP3    H272728   5.373   5.522   3.740  0.8264  0.6933  0.2110
17105TIP3   OH272729   4.428   0.640   2.963  0.3375  0.4466  0.3181
17105TIP3    H172730   4.357   0.594   3.009 -0.8427  2.1421  0.2802
17105TIP3    H272731   4.442   0.588   2.884  1.2759 -1.6045  1.7404
17106TIP3   OH272732   4.642   5.176  14.814 -0.5405 -0.2197  0.0183
17106TIP3    H172733   4.614   5.225  14.737  0.2396  0.6552  0.2707
17106TIP3    H272734   4.737   5.178  14.811 -0.4831  0.6249  1.4784
17107TIP3   OH272735   0.524   2.958  10.796  0.3646  0.0876 -0.2420
17107TIP3    H172736   0.435   2.979  10.823  0.2698  0.2470 -0.6751
17107TIP3    H272737   0.515   2.886  10.733  0.7208 -1.6256  1.5755
17108TIP3   OH272738   4.723   6.418   6.070 -0.1327  0.2891 -0.2768
17108TIP3    H172739   4.691   6.343   6.020  0.5488 -0.2082  0.0114
17108TIP3    H272740   4.720   6.388   6.161  1.0488  0.2498 -0.2321
17109TIP3   OH272741   1.792   0.680  13.552 -0.2475 -0.4928 -0.4135
17109TIP3    H172742   1.718   0.656  13.608 -0.8765  0.1677 -0.9296
17109TIP3    H272743   1.846   0.737  13.606 -0.7965  0.0605 -0.4420
17110TIP3   OH272744   3.443   0.303   1.618  0.5104  0.1869  0.3451
17110TIP3    H172745   3.399   0.323   1.700 -1.2035  1.2566 -0.7615
17110TIP3    H272746   3.400   0.224   1.585 -0.7281  1.2704 -0.7705
17111TIP3   OH272747   2.696   2.096   4.980  0.1406 -0.4677  0.3826
17111TIP3    H172748   2.780   2.109   5.024 -0.4028  0.2532  1.2289
17111TIP3    H272749   2.719   2.050   4.899  1.3106 -0.5785  0.7544
17112TIP3   OH272750   6.662   6.531   5.271 -0.2382 -0.6339  0.6472
17112TIP3    H172751   6.601   6.570   5.334  0.4980  0.5895  0.6485
17112TIP3    H272752   6.639   6.572   5.187 -0.7977 -1.7771  0.2169
17113TIP3   OH272753   5.733   3.066   4.015 -0.4087 -0.4017 -0.0379
17113TIP3    H172754   5.640   3.051   3.996 -0.4889 -0.2520  0.2269
17113TIP3    H272755   5.733   3.108   4.102 -0.1635  0.7006 -0.5507
17114TIP3   OH272756   0.198   4.873   0.834 -0.3359  0.6495  0.3881
17114TIP3    H172757   0.270   4.880   0.772  0.6657  1.4652  1.5869
17114TIP3    H272758   0.119   4.880   0.781  0.4700 -0.0533 -0.9314
17115TIP3   OH272759   3.729   0.797  14.680 -0.3889  0.4983  0.5253
17115TIP3    H172760   3.711   0.711  14.718  0.6621 -0.5188 -1.1798
17115TIP3    H272761   3.757   0.850  14.755  1.6641 -1.4466  1.2809
17116TIP3   OH272762   5.212   1.202   1.062 -0.1874 -0.9452 -0.3064
17116TIP3    H172763   5.285   1.256   1.030 -0.3857  0.2080  1.0987
17116TIP3    H272764   5.138   1.226   1.007 -0.0315 -0.5057 -0.3265
17117TIP3   OH272765   5.235   0.145   4.257  0.1610  0.3834  0.4892
17117TIP3    H172766   5.147   0.108   4.269  0.0422  0.7696  0.8172
17117TIP3    H272767   5.265   0.106   4.175 -1.5674  2.6560 -1.3653
17118TIP3   OH272768   5.617   5.118   2.954  0.0654  0.4672 -0.5018
17118TIP3    H172769   5.624   5.173   2.876  0.0924  1.5444  0.2404
17118TIP3    H272770   5.622   5.180   3.028 -1.8493 -0.3079  0.3392
17119TIP3   OH272771   2.966   2.215  15.520  0.1896 -0.0316 -0.4342
17119TIP3    H172772   2.920   2.179  15.444 -1.4855 -0.6326  0.8108
17119TIP3    H272773   2.960   2.310  15.509 -0.5660 -0.1125 -0.7618
17120TIP3   OH272774   0.204   1.768   1.845  0.6897  0.7264  0.1279
17120TIP3    H172775   0.274   1.775   1.910  0.7336 -1.2020  0.3398
17120TIP3    H272776   0.241   1.714   1.776 -1.0246 -1.6544  0.9414
17121TIP3   OH272777   1.651   1.617   5.528 -0.3112  0.1637  0.0622
17121TIP3    H172778   1.655   1.530   5.567 -0.9215 -0.2326 -0.7172
17121TIP3    H272779   1.658   1.601   5.434 -1.5260  0.8509 -0.1691
17122TIP3   OH272780   3.052   3.258   4.550  0.2966  0.1655  0.0116
17122TIP3    H172781   3.001   3.207   4.488  0.0061  0.1444  0.2664
17122TIP3    H272782   3.143   3.239   4.528  0.2332 -1.9359  1.2726
17123TIP3   OH272783   1.920   5.864   3.385  0.4899 -0.2627  0.0248
17123TIP3    H172784   1.912   5.876   3.480  0.2608  1.8195 -0.2105
17123TIP3    H272785   2.013   5.851   3.370  1.0395  2.7922  0.2771
17124TIP3   OH272786   0.644   1.322  16.577 -0.8531 -0.7366 -0.2578
17124TIP3    H172787   0.704   1.295  16.647 -0.1641 -0.1624 -0.6023
17124TIP3    H272788   0.700   1.331  16.500 -0.7221  2.7877  0.0778
17125TIP3   OH272789   0.703   1.549   4.805 -0.2672 -0.5676  0.2695
17125TIP3    H172790   0.672   1.495   4.733  0.6905 -0.8357  0.0478
17125TIP3    H272791   0.798   1.549   4.797 -0.1822  0.0599  1.0572
17126TIP3   OH272792   1.519   3.142   3.178 -1.0165  0.3140 -0.1954
17126TIP3    H172793   1.564   3.059   3.161  0.3168  1.3712 -2.2516
17126TIP3    H272794   1.523   3.152   3.273  0.7907 -0.9010 -0.0921
17127TIP3   OH272795   0.227   6.191   0.559 -0.0406 -0.0097 -0.1234
17127TIP3    H172796   0.187   6.220   0.642 -1.9703  1.5497 -1.4768
17127TIP3    H272797   0.304   6.246   0.549  0.0920 -0.0691  0.5477
17128TIP3   OH272798   2.819   1.667   5.457  0.0853 -0.2735  0.1548
17128TIP3    H172799   2.764   1.588   5.466 -1.9111  0.6992 -2.3341
17128TIP3    H272800   2.897   1.637   5.411  0.1242 -1.0827  0.7228
17129TIP3   OH272801   2.138   2.389   1.924  0.0774  0.0103  0.0525
17129TIP3    H172802   2.195   2.341   1.863  1.0549  1.0686  0.0931
17129TIP3    H272803   2.133   2.332   2.001  4.1280  1.3249  1.5865
17130TIP3   OH272804   0.695   0.999   0.153  0.2763 -0.3443  0.4112
17130TIP3    H172805   0.672   1.092   0.149  1.0331 -0.1827 -1.3180
17130TIP3    H272806   0.782   0.995   0.113 -0.4591 -2.0077 -1.1627
17131TIP3   OH272807   6.457   6.160  12.635 -0.1248  0.3038 -0.2733
17131TIP3    H172808   6.514   6.112  12.696 -1.0997 -0.0583  0.3839
17131TIP3    H272809   6.369   6.129  12.656 -0.3784 -1.4262 -3.2615
17132TIP3   OH272810   2.842   3.312   3.852 -0.0415 -0.0826 -0.3667
17132TIP3    H172811   2.803   3.341   3.769 -1.1613 -0.6041 -0.0388
17132TIP3    H272812   2.920   3.263   3.826 -1.4142 -1.8923 -1.2330
17133TIP3   OH272813   1.144   4.722  16.653  0.7896 -0.2244 -0.3328
17133TIP3    H172814   1.239   4.721  16.641  0.7028 -1.2077 -1.1218
17133TIP3    H272815   1.110   4.679  16.574 -0.2888 -0.2291  0.1181
17134TIP3   OH272816   0.924   0.629  12.254 -0.0395 -0.3000  0.1063
17134TIP3    H172817   0.876   0.615  12.336  0.3548  0.8993  0.5634
17134TIP3    H272818   0.974   0.709  12.269  1.5110 -1.0959 -0.6470
17135TIP3   OH272819   2.366   3.502   4.029  0.1011  0.7343 -0.2636
17135TIP3    H172820   2.397   3.476   4.115  0.8487  2.6028  0.0942
17135TIP3    H272821   2.446   3.523   3.980 -0.3910  2.7331 -0.3165
17136TIP3   OH272822   3.080   6.593  15.603  0.1522 -0.0025  0.1562
17136TIP3    H172823   3.005   6.537  15.583 -0.3224  0.4783  0.5515
17136TIP3    H272824   3.089   6.587  15.699  0.0455  0.6626  0.2088
17137TIP3   OH272825   2.001   0.553  16.926 -0.2550  0.3055  0.1363
17137TIP3    H172826   1.931   0.589  16.871 -0.9584 -1.3324 -0.1225
17137TIP3    H272827   2.065   0.518  16.864  1.1264  2.2561  0.3631
17138TIP3   OH272828   2.761   3.075  15.309  0.0514  0.1024  0.6527
17138TIP3    H172829   2.799   3.042  15.228  0.4209 -1.1815  1.3028
17138TIP3    H272830   2.706   3.148  15.283  0.3286 -0.1578 -0.7234
17139TIP3   OH272831   4.860   2.617  12.625  0.0190  0.1992  0.3351
17139TIP3    H172832   4.857   2.584  12.535 -1.1654 -2.3364  1.2100
17139TIP3    H272833   4.931   2.681  12.624  1.6167 -1.4257 -1.8714
17140TIP3   OH272834   0.683   0.687  12.401  0.1566 -0.3622  0.3869
17140TIP3    H172835   0.644   0.669  12.315  1.4217  0.8375 -0.4708
17140TIP3    H272836   0.647   0.772  12.427 -0.2746 -0.7510  1.0985
17141TIP3   OH272837   3.472   6.693  15.555  0.2378  0.0767 -1.2527
17141TIP3    H172838   3.553   6.735  15.527 -0.4365  1.6875 -0.8844
17141TIP3    H272839   3.404   6.759  15.539 -0.5922 -0.0580  1.3204
17142TIP3   OH272840   2.651   6.275   6.040  0.1626  0.0654 -0.6037
17142TIP3    H172841   2.602   6.280   6.122 -0.9237  1.5849 -1.2908
17142TIP3    H272842   2.648   6.183   6.016 -0.9284 -0.1395  0.2240
17143TIP3   OH272843   3.804   0.749  11.385 -0.1561  0.1028  0.1607
17143TIP3    H172844   3.798   0.843  11.398  0.4533  0.0477  0.8761
17143TIP3    H272845   3.843   0.739  11.298  2.5026  0.5691  1.2116
17144TIP3   OH272846   2.607   2.299  13.643  0.6910  0.3443  0.3855
17144TIP3    H172847   2.514   2.304  13.621  1.3158 -1.0656 -3.3184
17144TIP3    H272848   2.612   2.331  13.733 -3.3946  0.0752  0.9100
17145TIP3   OH272849   1.529   1.884  12.787  0.4193  0.0973  0.1453
17145TIP3    H172850   1.623   1.900  12.790  0.3099  0.8104  0.0970
17145TIP3    H272851   1.509   1.875  12.694  0.7311 -2.0553  0.2340
17146TIP3   OH272852   1.486   6.086  11.923  0.1939  0.8735 -0.5135
17146TIP3    H172853   1.452   6.000  11.948  0.3393  0.5467 -1.4072
17146TIP3    H272854   1.437   6.109  11.844  0.2775  1.5363 -0.3790
17147TIP3   OH272855   2.136   4.409  16.152  0.5703  0.0037  0.4426
17147TIP3    H172856   2.215   4.440  16.197  0.7615 -0.3904  0.3838
17147TIP3    H272857   2.078   4.382  16.222  0.7832 -0.4058  0.4647
17148TIP3   OH272858   1.241   0.992  12.062 -0.1466 -0.4291  0.4780
17148TIP3    H172859   1.208   0.913  12.019  1.3112  0.2142 -2.0178
17148TIP3    H272860   1.198   1.064  12.015 -0.0900  0.3107  1.5255
17149TIP3   OH272861   4.149   2.252   4.449 -0.5687 -0.8665 -0.2274
17149TIP3    H172862   4.239   2.235   4.422 -0.2990  1.8640 -1.4035
17149TIP3    H272863   4.153   2.260   4.544  0.4875 -0.5209 -0.2874
17150TIP3   OH272864   5.673   0.023  14.561 -0.3755  0.1431 -0.5534
17150TIP3    H172865   5.755   0.029  14.609 -1.2020 -2.7080  1.5368
17150TIP3    H272866   5.676  -0.064  14.520 -1.3620  0.9597 -2.4814
17151TIP3   OH272867   2.945   3.893  14.318  0.5401 -0.0038  0.2513
17151TIP3    H172868   2.880   3.889  14.247  0.8223 -4.2689 -0.0501
17151TIP3    H272869   3.013   3.830  14.292  1.2701 -0.8612  3.7016
17152TIP3   OH272870   4.429   0.321  16.831  0.2459  0.2267 -0.4239
17152TIP3    H172871   4.373   0.294  16.904  0.2722  1.6351  0.1581
17152TIP3    H272872   4.416   0.416  16.825 -0.5221  0.0292 -2.9205
17153TIP3   OH272873   0.087   2.643  16.089  0.3449  0.1346  0.1713
17153TIP3    H172874   0.139   2.610  16.015  2.0817  0.2507  1.2721
17153TIP3    H272875   0.068   2.565  16.141 -1.0141  0.0296 -0.4320
17154TIP3   OH272876   2.338   1.350  15.755  0.3306 -0.1196  0.0420
17154TIP3    H172877   2.427   1.321  15.777 -0.9606 -1.2863  4.8809
17154TIP3    H272878   2.294   1.271  15.723  0.0935 -0.5391  1.3433
17155TIP3   OH272879   3.824   6.749   6.105  0.6651  0.2260 -0.2330
17155TIP3    H172880   3.867   6.833   6.120  1.4002 -0.1396 -0.2728
17155TIP3    H272881   3.810   6.746   6.010  3.7940 -1.1655 -0.7694
17156TIP3   OH272882   4.392   2.462   0.163  0.1375  0.1339  0.2824
17156TIP3    H172883   4.446   2.524   0.212  1.1903 -0.0933 -0.5577
17156TIP3    H272884   4.420   2.376   0.194 -0.4206  0.0413  0.5308
17157TIP3   OH272885   0.838   2.025  17.412 -0.5709 -0.4759  0.0444
17157TIP3    H172886   0.876   2.111  17.430  0.3967 -0.0746 -3.3127
17157TIP3    H272887   0.896   1.964  17.458  0.1569  0.5226  0.4949
17158TIP3   OH272888   6.643   1.646  16.286 -0.2091  0.0930  0.5622
17158TIP3    H172889   6.617   1.732  16.253  1.9272  0.9362  0.8722
17158TIP3    H272890   6.690   1.666  16.368  0.4690 -1.3451  0.5497
17159TIP3   OH272891   1.824   5.175   1.157  0.1329 -0.1176 -0.0844
17159TIP3    H172892   1.750   5.115   1.172 -1.6936  2.3784  1.7188
17159TIP3    H272893   1.842   5.167   1.064 -2.0623 -1.2361 -0.5022
17160TIP3   OH272894   6.251   5.941   3.130 -0.2262 -0.5872 -0.0778
17160TIP3    H172895   6.262   5.968   3.221 -0.0683 -1.7325  0.2537
17160TIP3    H272896   6.209   6.016   3.088  2.1098  1.0458  0.2905
17161TIP3   OH272897   4.342   0.231  15.945 -0.5460  0.4692  0.0439
17161TIP3    H172898   4.350   0.213  16.038 -1.9934  1.5218  0.3974
17161TIP3    H272899   4.414   0.290  15.925  0.5221 -0.7335  0.1904
17162TIP3   OH272900   3.988   3.272  15.183  0.3503  0.1738 -0.6519
17162TIP3    H172901   4.073   3.256  15.225  0.9671  0.3028 -1.8032
17162TIP3    H272902   3.971   3.364  15.199  0.6254  0.2440 -0.7514
17163TIP3   OH272903   0.223   5.214   0.537  0.0135 -0.1156  0.3319
17163TIP3    H172904   0.305   5.182   0.575  0.2228  0.5295  0.4414
17163TIP3    H272905   0.168   5.237   0.612  0.6619  1.7519  0.2997
17164TIP3   OH272906   0.987   3.464   0.635  0.4172 -0.1403 -0.6858
17164TIP3    H172907   0.975   3.553   0.667 -1.7652 -0.6369 -0.0140
17164TIP3    H272908   1.080   3.446   0.649  0.4407  1.2278  1.2787
17165TIP3   OH272909   0.699   1.156  12.591 -0.2310 -0.5800 -0.2215
17165TIP3    H172910   0.691   1.140  12.685  0.3674 -2.1126 -0.3943
17165TIP3    H272911   0.738   1.243  12.584 -0.7600 -0.2406  0.9352
17166TIP3   OH272912   2.825   5.172   0.877 -0.6344  0.0058  0.4124
17166TIP3    H172913   2.848   5.247   0.931  0.4969 -1.8772  2.7366
17166TIP3    H272914   2.790   5.108   0.939  0.4100 -2.1759 -1.1279
17167TIP3   OH272915   3.796   6.382   0.784  0.6308 -0.7303  0.3665
17167TIP3    H172916   3.830   6.441   0.851 -0.4847  1.1428 -0.6326
17167TIP3    H272917   3.795   6.435   0.704 -0.8065 -1.9850 -0.4973
17168TIP3   OH272918   1.786   1.497   0.478 -0.0600  0.8585 -0.5076
17168TIP3    H172919   1.836   1.438   0.422 -1.1319  0.2598 -0.8559
17168TIP3    H272920   1.824   1.583   0.461  0.3480  0.5263 -1.3462
17169TIP3   OH272921   0.047   1.670   1.527  0.0119  0.2159  0.2116
17169TIP3    H172922   0.141   1.688   1.518 -0.3217  2.3078  0.3399
17169TIP3    H272923   0.041   1.575   1.528  2.0113  0.0164 -1.0199
17170TIP3   OH272924   6.406   6.626   6.056  0.6463  0.4541 -0.2263
17170TIP3    H172925   6.406   6.721   6.064  3.5376  0.6218 -1.0969
17170TIP3    H272926   6.485   6.598   6.103 -0.2243 -1.5436  0.1530
17171TIP3   OH272927   1.162   5.612  11.888 -0.5729 -0.0094 -0.3657
17171TIP3    H172928   1.203   5.680  11.835  1.3214  0.1397  1.1961
17171TIP3    H272929   1.069   5.616  11.864  0.0694  0.5148 -3.0843
17172TIP3   OH272930   4.136   0.492   1.968  0.3676  0.1914 -0.3361
17172TIP3    H172931   4.171   0.427   1.907  1.7224 -0.5575  1.1725
17172TIP3    H272932   4.054   0.453   1.998  0.3656 -0.0575 -0.6481
17173TIP3   OH272933   4.051   5.957   1.721 -0.1668 -0.1074 -0.3272
17173TIP3    H172934   4.115   5.981   1.654 -0.5811 -0.3276 -0.8118
17173TIP3    H272935   3.970   6.000   1.694 -1.2176 -2.7341 -1.7912
17174TIP3   OH272936   5.631   2.875   3.811 -0.5487 -0.0717 -0.0621
17174TIP3    H172937   5.717   2.917   3.802 -0.1310 -0.8666  0.0886
17174TIP3    H272938   5.647   2.802   3.872 -1.2273 -0.5028 -0.3951
17175TIP3   OH272939   4.624   5.833  13.738 -0.0475  0.0868 -0.3878
17175TIP3    H172940   4.718   5.818  13.724 -0.2784  0.6486 -2.9783
17175TIP3    H272941   4.589   5.850  13.651 -2.2185  1.9357  0.7379
17176TIP3   OH272942   4.139   4.263  13.931 -0.0016  0.4040 -0.3565
17176TIP3    H172943   4.105   4.235  13.846 -0.8590  2.1193 -0.6392
17176TIP3    H272944   4.127   4.187  13.988 -1.0232 -0.2239 -1.3576
17177TIP3   OH272945   4.666   6.335  13.190 -0.0067 -0.2965  0.4857
17177TIP3    H172946   4.621   6.250  13.185  0.5912 -0.5796 -0.3770
17177TIP3    H272947   4.638   6.382  13.112  0.1299  0.0604  0.6506
17178TIP3   OH272948   0.470   4.782  14.132 -0.2636 -0.3761 -0.0448
17178TIP3    H172949   0.464   4.813  14.041 -0.4733  1.3120  0.5106
17178TIP3    H272950   0.525   4.847  14.176 -0.5359 -0.9219  1.1496
17179TIP3   OH272951   1.213   4.849  12.430  0.3833  0.3939  0.4364
17179TIP3    H172952   1.222   4.782  12.363  1.7126  0.6307  0.3535
17179TIP3    H272953   1.120   4.875  12.427  0.4982  0.6836 -1.5770
17180TIP3   OH272954   4.772   3.771   1.800 -0.4082 -0.7916  0.2506
17180TIP3    H172955   4.728   3.829   1.861 -0.5093 -0.1217 -0.4375
17180TIP3    H272956   4.706   3.752   1.733  0.1554 -0.2344 -0.4845
17181TIP3   OH272957   0.005   2.706  14.611  0.5812 -0.3195  0.0543
17181TIP3    H172958   0.075   2.644  14.592  0.3936 -0.3269 -0.6506
17181TIP3    H272959  -0.039   2.670  14.688 -0.4704 -1.9115 -1.2250
17182TIP3   OH272960   4.435   4.437  14.950 -0.0868  0.0362  0.6604
17182TIP3    H172961   4.435   4.390  14.866 -0.1208  0.0204  0.6693
17182TIP3    H272962   4.371   4.390  15.003 -0.6165  0.4996  0.4420
17183TIP3   OH272963   5.111   6.654   1.281 -0.2231  0.2370 -0.1516
17183TIP3    H172964   5.054   6.700   1.220  1.2063 -0.7821 -2.3789
17183TIP3    H272965   5.094   6.561   1.265  1.7291 -0.0919 -0.6120
17184TIP3   OH272966   0.629   2.317  14.151  0.1950  0.1663  0.4665
17184TIP3    H172967   0.686   2.312  14.228 -1.1556  1.3711  1.6031
17184TIP3    H272968   0.689   2.331  14.077  1.5262 -1.0847  1.2613
17185TIP3   OH272969   2.232   2.378  14.509  0.5761 -0.0020  0.1598
17185TIP3    H172970   2.181   2.317  14.457  1.3058 -1.1294  0.7394
17185TIP3    H272971   2.196   2.370  14.597  0.0306  1.1406  0.0594
17186TIP3   OH272972   0.429   2.615  12.614 -0.3311  0.6154 -0.4694
17186TIP3    H172973   0.384   2.557  12.552 -0.6808  1.3097 -0.8834
17186TIP3    H272974   0.506   2.646  12.565  0.8720 -0.8745  0.3656
17187TIP3   OH272975   1.165   4.962  14.250 -0.0171  0.2937  0.6441
17187TIP3    H172976   1.230   4.999  14.191 -0.4355  1.4533  0.8972
17187TIP3    H272977   1.216   4.915  14.316  0.6038  1.5977  1.1168
17188TIP3   OH272978   6.468   1.990   1.813 -0.5414  0.0687  0.2839
17188TIP3    H172979   6.430   2.054   1.753 -2.7096  0.0702  1.5543
17188TIP3    H272980   6.477   1.910   1.761  0.3508  0.8464 -0.7850
17189TIP3   OH272981   0.100   3.605  14.204 -0.1489 -0.0375 -0.2180
17189TIP3    H172982   0.093   3.521  14.250  0.2363  1.5642  3.0066
17189TIP3    H272983   0.178   3.596  14.150 -0.4250 -1.9104 -0.3918
17190TIP3   OH272984   4.721   2.004  12.554  0.0110 -0.5713 -0.2557
17190TIP3    H172985   4.637   2.026  12.595 -0.6602  0.8344 -2.2348
17190TIP3    H272986   4.697   1.955  12.475  1.1440 -1.2380 -0.2149
17191TIP3   OH272987   6.364   1.480  11.274  0.1032  0.0936 -0.1955
17191TIP3    H172988   6.383   1.415  11.206  2.0006  0.9633 -0.5483
17191TIP3    H272989   6.432   1.467  11.340  0.0248  1.1694  0.1238
17192TIP3   OH272990   6.386   6.503   4.417  0.1759  0.0542  0.2158
17192TIP3    H172991   6.405   6.486   4.509 -2.8731  0.7163  1.0879
17192TIP3    H272992   6.372   6.598   4.413  0.3777  0.0517 -0.9778
17193TIP3   OH272993   4.747   6.248   0.769 -0.5166 -0.7428  0.1506
17193TIP3    H172994   4.835   6.215   0.750 -0.7898 -1.1348 -0.4455
17193TIP3    H272995   4.740   6.243   0.864 -0.5340 -2.3927  0.0834
17194TIP3   OH272996   4.765   2.027   5.507 -0.2842  0.1590 -0.2334
17194TIP3    H172997   4.798   2.112   5.478 -1.2826  0.4990 -0.4032
17194TIP3    H272998   4.790   2.021   5.599 -0.7147  0.8958 -0.0642
17195TIP3   OH272999   3.105   2.857   0.605  0.2834 -0.1911 -0.0286
17195TIP3    H173000   3.029   2.810   0.572 -0.1355  0.5343 -0.1127
17195TIP3    H273001   3.144   2.898   0.528  0.1792  0.2576  0.1542
17196TIP3   OH273002   5.411   3.849  16.309 -0.4961  0.4157 -0.0967
17196TIP3    H173003   5.483   3.789  16.293 -1.3089 -0.6679  0.2107
17196TIP3    H273004   5.454   3.931  16.334  0.6231 -0.1325 -0.1510
17197TIP3   OH273005   2.822   5.700  16.839  0.3674  0.0677  0.1153
17197TIP3    H173006   2.815   5.695  16.934 -0.3266  3.1705  0.3340
17197TIP3    H273007   2.866   5.619  16.814 -1.1814 -1.7638  2.8389
17198TIP3   OH273008   2.698   0.406   0.790 -0.3972  0.5078 -0.5145
17198TIP3    H173009   2.716   0.351   0.866  0.8043 -0.2005 -1.2746
17198TIP3    H273010   2.612   0.378   0.759 -0.1550 -0.3879 -0.4039
17199TIP3   OH273011   6.606   2.243   4.222  0.1997  0.0186  0.0428
17199TIP3    H173012   6.652   2.311   4.272  1.7034  0.3751 -1.7235
17199TIP3    H273013   6.581   2.286   4.140 -1.2398 -0.8454 -0.0076
17200TIP3   OH273014   5.627   2.334  14.032 -0.2012 -0.0010  0.3927
17200TIP3    H173015   5.665   2.400  14.090 -0.1909  0.4113 -0.0801
17200TIP3    H273016   5.681   2.256  14.046  1.6124  0.8944 -1.1236
17201TIP3   OH273017   2.528   2.771  15.511  0.1849  0.2185  0.7250
17201TIP3    H173018   2.464   2.789  15.442  0.0589  1.5757  1.1753
17201TIP3    H273019   2.558   2.857  15.539  0.8662 -0.3479  1.7831
17202TIP3   OH273020   1.113   6.062   5.323  0.1762  0.0099 -0.2006
17202TIP3    H173021   1.021   6.039   5.310  0.7026 -3.5658  1.1347
17202TIP3    H273022   1.146   6.078   5.235 -1.1150 -1.5744 -1.0259
17203TIP3   OH273023   3.818   5.148   0.081 -0.3315 -0.3382  0.5835
17203TIP3    H173024   3.837   5.190   0.165  2.7021 -0.7312  0.1970
17203TIP3    H273025   3.884   5.079   0.073  1.9495  1.9371 -3.6532
17204TIP3   OH273026   0.140   4.460  15.438  0.1750 -0.3111 -0.1319
17204TIP3    H173027   0.220   4.409  15.424  0.3855  0.2691 -1.1627
17204TIP3    H273028   0.140   4.524  15.366 -1.7931 -1.0222 -0.8290
17205TIP3   OH273029   2.695   4.423   0.438  0.4665 -0.1199 -0.2641
17205TIP3    H173030   2.786   4.440   0.413  0.7160  0.7474  1.0933
17205TIP3    H273031   2.646   4.496   0.400  0.0295 -1.4224 -2.3755
17206TIP3   OH273032   4.956   1.464  13.298 -0.3416 -0.5870  0.2053
17206TIP3    H173033   4.898   1.389  13.283  0.5410 -1.0609 -1.0130
17206TIP3    H273034   5.002   1.442  13.379 -0.6984 -0.9669  0.3096
17207TIP3   OH273035   4.133   4.681   0.871 -0.0396  0.1422 -0.2564
17207TIP3    H173036   4.139   4.588   0.893  0.2843 -0.0650 -1.2037
17207TIP3    H273037   4.048   4.690   0.828  0.4154  0.0570 -1.1968
17208TIP3   OH273038   0.256   3.484   1.839 -0.6038 -0.0486 -0.3751
17208TIP3    H173039   0.169   3.445   1.825 -0.0638 -1.3684 -0.1718
17208TIP3    H273040   0.283   3.452   1.925  0.0574  0.4258 -0.3956
17209TIP3   OH273041   1.614   0.139  11.318  0.0137  0.3072  0.0323
17209TIP3    H173042   1.631   0.194  11.394 -0.4288 -0.2977  0.5842
17209TIP3    H273043   1.527   0.101  11.335  0.2119 -0.3758 -0.4345
17210TIP3   OH273044   6.083   3.701  15.781  0.7795  0.0444 -0.1178
17210TIP3    H173045   6.095   3.702  15.876  1.3805 -0.7292 -0.1760
17210TIP3    H273046   6.171   3.690  15.745  0.4992 -0.2490 -0.7474
17211TIP3   OH273047   3.151   5.353  15.068 -0.1184  0.2400 -0.4731
17211TIP3    H173048   3.197   5.433  15.090  1.4071 -0.6044 -0.4704
17211TIP3    H273049   3.075   5.382  15.016 -0.9206  1.8325  1.4693
17212TIP3   OH273050   2.746   6.064  17.166  0.0079 -0.3877 -0.0243
17212TIP3    H173051   2.741   6.055  17.071 -0.1782 -0.4982 -0.0052
17212TIP3    H273052   2.655   6.078  17.193 -0.2438 -2.3956  0.3445
17213TIP3   OH273053   2.695   5.991  12.079 -0.7935  0.3082 -0.2919
17213TIP3    H173054   2.619   5.938  12.055  1.0532 -2.1962 -0.9730
17213TIP3    H273055   2.720   6.035  11.997  1.0530 -2.4164 -1.3459
17214TIP3   OH273056   0.442   2.095  11.594  0.0700 -0.2392 -0.4421
17214TIP3    H173057   0.438   2.189  11.577 -0.4794 -0.1922 -0.1187
17214TIP3    H273058   0.473   2.056  11.513 -0.6736  0.1336 -0.9134
17215TIP3   OH273059   0.189   2.615   2.421 -0.2016 -0.1110  0.0671
17215TIP3    H173060   0.093   2.615   2.412 -0.2350  1.5554  0.1819
17215TIP3    H273061   0.219   2.551   2.356 -1.3599 -0.3358 -0.2732
17216TIP3   OH273062   4.704   0.259   5.116  0.1602  0.1483  0.3514
17216TIP3    H173063   4.785   0.221   5.151  0.4881  1.4125  1.0324
17216TIP3    H273064   4.635   0.227   5.173 -0.3549 -3.3774 -1.9417
17217TIP3   OH273065   5.148   3.648   1.580  0.6280 -0.0003 -0.4103
17217TIP3    H173066   5.179   3.586   1.514  1.1435  1.8014 -1.9629
17217TIP3    H273067   5.053   3.650   1.568  0.6605 -0.1130 -0.6943
17218TIP3   OH273068   3.880   1.754  15.335 -0.2250 -0.1029 -0.2423
17218TIP3    H173069   3.834   1.836  15.315 -2.9773 -1.5732 -0.4288
17218TIP3    H273070   3.942   1.743  15.262  0.4984  1.9485 -0.0094
17219TIP3   OH273071   4.063   6.537  13.321  0.7291 -0.2200  0.2089
17219TIP3    H173072   3.995   6.477  13.292  1.8459 -2.2489  1.5248
17219TIP3    H273073   4.026   6.624  13.309 -1.0461 -1.1603 -1.5846
17220TIP3   OH273074   5.956   6.619  13.606  0.0016 -0.1759 -0.4334
17220TIP3    H173075   5.961   6.660  13.520 -0.5271 -1.4341 -1.0967
17220TIP3    H273076   6.029   6.558  13.608 -0.6735 -1.0041 -0.4711
17221TIP3   OH273077   4.715   5.158   5.355 -0.5332  0.1372  0.1079
17221TIP3    H173078   4.651   5.177   5.423 -1.0050 -2.4453  0.4757
17221TIP3    H273079   4.796   5.137   5.402 -0.0484  1.0887 -0.2694
17222TIP3   OH273080   1.814   0.001  12.002  0.3278  0.1229 -0.4655
17222TIP3    H173081   1.745  -0.013  12.066  0.1383 -0.1950 -0.7379
17222TIP3    H273082   1.880   0.053  12.049 -0.4767  1.1891 -0.4603
17223TIP3   OH273083   3.581   2.162   3.431  0.3532 -0.5749 -0.0931
17223TIP3    H173084   3.653   2.216   3.398  1.3076 -1.3783  0.6200
17223TIP3    H273085   3.593   2.163   3.526 -1.1513  0.0427  0.1219
17224TIP3   OH273086   5.493   6.039   0.007  0.1610  0.4573  0.3640
17224TIP3    H173087   5.579   6.081   0.009  1.0356 -1.2511  0.5772
17224TIP3    H273088   5.511   5.946   0.022 -1.6175 -0.1040 -0.6118
17225TIP3   OH273089   0.098   6.104   4.499 -0.4595  0.1263  0.0593
17225TIP3    H173090   0.039   6.166   4.542  0.1530  0.5793  0.2593
17225TIP3    H273091   0.081   6.116   4.406 -1.3194 -0.3919  0.1345
17226TIP3   OH273092   1.907   0.466   1.456 -0.1439  0.5617  0.4557
17226TIP3    H173093   1.887   0.373   1.466  1.5619  0.2473  1.1382
17226TIP3    H273094   1.889   0.504   1.542 -3.3389  1.4325 -0.4577
17227TIP3   OH273095   5.231   4.234  15.383  0.2129 -0.4145 -0.5161
17227TIP3    H173096   5.157   4.184  15.350 -3.0615  2.4975  1.6086
17227TIP3    H273097   5.275   4.175  15.445  0.2578 -2.4890 -2.4147
17228TIP3   OH273098   2.474   5.307  17.348 -0.2230 -0.2277  0.0926
17228TIP3    H173099   2.529   5.231  17.364  1.2944  0.4764 -1.4820
17228TIP3    H273100   2.406   5.274  17.288  1.2553 -0.0835 -1.7415
17229TIP3   OH273101   5.877   2.768   1.266  0.3997  0.3319 -0.2252
17229TIP3    H173102   5.798   2.784   1.317  0.8363 -0.7858  0.8422
17229TIP3    H273103   5.877   2.674   1.249  0.2676  0.6502 -2.3543
17230TIP3   OH273104   5.310   5.483  12.428 -0.1353 -0.3179 -0.2698
17230TIP3    H173105   5.247   5.552  12.448 -0.9768 -1.2349  0.3322
17230TIP3    H273106   5.390   5.509  12.475 -0.0562  0.8310 -1.0104
17231TIP3   OH273107   5.298   4.902  16.739  0.0823 -0.3027  0.4374
17231TIP3    H173108   5.330   4.909  16.650  1.7886  3.0680  1.1706
17231TIP3    H273109   5.283   4.808  16.752  0.7735 -1.0060 -2.9898
17232TIP3   OH273110   5.936   5.273  11.001  0.0811 -0.7469 -0.4157
17232TIP3    H173111   6.019   5.228  11.019 -0.8385 -1.8746  1.2510
17232TIP3    H273112   5.884   5.262  11.081 -1.2870  0.8719 -1.0122
17233TIP3   OH273113   5.619   5.042  12.619  0.1313  0.4164 -0.1897
17233TIP3    H173114   5.648   4.975  12.558  1.0720  0.7647 -0.1400
17233TIP3    H273115   5.524   5.034  12.620  0.2604 -1.8414  0.8678
17234TIP3   OH273116   1.707   3.190   2.806  0.1545  0.4819  0.5318
17234TIP3    H173117   1.767   3.168   2.877  0.7935  0.3436 -0.0413
17234TIP3    H273118   1.757   3.248   2.749 -0.4451  0.8139  0.3383
17235TIP3   OH273119   3.175   0.135   0.156  0.5583  0.4914  0.2710
17235TIP3    H173120   3.253   0.099   0.198  1.4622  1.3257 -0.6265
17235TIP3    H273121   3.134   0.188   0.224  1.6219  1.2714  0.3409
17236TIP3   OH273122   3.649   3.090   0.046 -0.5590 -0.1321 -0.3362
17236TIP3    H173123   3.720   3.104  -0.017 -0.3680  2.9942  0.3873
17236TIP3    H273124   3.667   3.004   0.084 -0.5617 -2.0633 -4.2343
17237TIP3   OH273125   6.564   5.948  14.631 -0.1747 -0.0796 -0.5208
17237TIP3    H173126   6.555   5.902  14.548  0.8644  0.6954 -1.0934
17237TIP3    H273127   6.636   5.903  14.676 -1.0841 -0.8430  0.2306
17238TIP3   OH273128   2.128   5.904  16.975  0.2749  0.0794 -0.0037
17238TIP3    H173129   2.209   5.878  16.931 -0.4689  0.4941 -1.6846
17238TIP3    H273130   2.089   5.969  16.917 -0.7383  0.6875  1.3179
17239TIP3   OH273131   3.340   0.505   2.859  0.1278 -0.1452 -0.4470
17239TIP3    H173132   3.302   0.492   2.772  0.0133 -0.2483 -0.3813
17239TIP3    H273133   3.390   0.586   2.851  0.8558 -0.6191 -0.8695
17240TIP3   OH273134   1.835   0.478  15.177  0.1138  0.5075  0.3471
17240TIP3    H173135   1.850   0.396  15.223 -0.3546 -0.1102 -0.5815
17240TIP3    H273136   1.894   0.540  15.220 -0.9790  0.2142  2.4322
17241TIP3   OH273137   2.298   6.295  16.289 -0.3256 -0.3634  0.2222
17241TIP3    H173138   2.350   6.327  16.215 -0.8315  1.8227  0.7369
17241TIP3    H273139   2.230   6.362  16.301 -1.5382 -1.7345  1.3474
17242TIP3   OH273140   5.586   1.846   0.455 -0.1300 -0.2076  0.0580
17242TIP3    H173141   5.623   1.798   0.381 -0.2872 -0.4082  0.1068
17242TIP3    H273142   5.573   1.935   0.422 -0.7910 -0.4489 -0.3620
17243TIP3   OH273143   3.689   0.106  16.598 -0.3289 -0.8090 -0.2063
17243TIP3    H173144   3.695   0.097  16.503 -1.0926  0.9231 -0.4529
17243TIP3    H273145   3.777   0.084  16.630 -0.5477 -3.2621 -1.1003
17244TIP3   OH273146   6.322   4.010  16.938 -0.2330  0.0751  0.2040
17244TIP3    H173147   6.237   4.020  16.894 -0.7836  0.0930  1.2465
17244TIP3    H273148   6.301   4.007  17.031  0.8519 -0.6796  0.4425
17245TIP3   OH273149   6.031   3.840   5.125  0.0079 -0.1506 -0.2202
17245TIP3    H173150   5.939   3.862   5.106  0.2327 -0.9968 -2.7187
17245TIP3    H273151   6.071   3.829   5.039  2.1062 -1.2841  0.8190
17246TIP3   OH273152   2.237   0.268   3.712 -0.3276 -0.7756  0.5873
17246TIP3    H173153   2.165   0.259   3.650 -0.9175  1.6746  0.8169
17246TIP3    H273154   2.309   0.304   3.660  1.0150 -3.6497  0.2449
17247TIP3   OH273155   0.142   3.517  14.884 -1.1116  0.1317  0.3837
17247TIP3    H173156   0.088   3.472  14.949  1.3651 -0.7475  1.9900
17247TIP3    H273157   0.196   3.447  14.845 -2.1698  0.7096 -2.3596
17248TIP3   OH273158   3.588   3.410   6.748 -0.7649 -0.4577  0.7714
17248TIP3    H173159   3.506   3.363   6.735  0.2492 -1.9182 -0.9300
17248TIP3    H273160   3.592   3.472   6.675  1.0881 -2.7637 -1.2853
17249TIP3   OH273161   6.214   6.470   2.594 -0.4476 -0.2191  0.0417
17249TIP3    H173162   6.208   6.558   2.631  0.1587  0.1502 -0.7099
17249TIP3    H273163   6.150   6.469   2.523 -0.4645 -0.3942  0.0588
17250TIP3   OH273164   0.140   1.261  14.684  0.2819 -0.3411  0.0985
17250TIP3    H173165   0.228   1.225  14.669 -0.1782 -1.4713  0.0087
17250TIP3    H273166   0.154   1.333  14.745  1.2127 -0.8624  0.5291
17251TIP3   OH273167   4.631   3.767   4.660  0.3282  0.1569 -0.0899
17251TIP3    H173168   4.638   3.684   4.707 -0.0581 -0.0734 -0.4362
17251TIP3    H273169   4.542   3.796   4.677  1.0027  1.4466  1.5908
17252TIP3   OH273170   5.901   4.581   0.595 -0.2644 -0.6288  0.1619
17252TIP3    H173171   5.946   4.585   0.511 -2.5163 -1.4895 -1.1891
17252TIP3    H273172   5.842   4.656   0.594  0.0906 -0.3224  1.2371
17253TIP3   OH273173   2.899   5.091  16.885  0.1887  0.8637 -0.7473
17253TIP3    H173174   2.843   5.049  16.820  0.6408 -2.6702  0.9073
17253TIP3    H273175   2.841   5.147  16.935 -1.3171 -0.5625 -0.8260
17254TIP3   OH273176   5.925   6.407  17.147 -0.5914  0.5509  0.5340
17254TIP3    H173177   5.998   6.383  17.090 -2.2540  0.7091 -1.7907
17254TIP3    H273178   5.894   6.324  17.183 -1.1458  0.0983 -0.9220
17255TIP3   OH273179   3.419   4.249  15.870  0.0433 -0.6911  0.3827
17255TIP3    H173180   3.380   4.194  15.803  0.2855 -0.9914  0.4851
17255TIP3    H273181   3.505   4.273  15.834  0.4209 -1.3425  0.8378
17256TIP3   OH273182   2.980   2.467  17.230 -0.1945 -0.6999  0.5862
17256TIP3    H173183   2.909   2.530  17.244 -0.5598 -1.2160  1.0889
17256TIP3    H273184   2.970   2.438  17.140 -0.0346 -0.0593  0.3546
17257TIP3   OH273185   3.438   0.164   0.289 -0.3515  0.5984 -0.5144
17257TIP3    H173186   3.486   0.230   0.339 -1.4263 -0.2661  1.7990
17257TIP3    H273187   3.502   0.131   0.226  1.0629  1.8213  0.2162
17258TIP3   OH273188   3.307   5.205   0.574  0.6859  0.2607  0.1528
17258TIP3    H173189   3.399   5.186   0.592  1.4083  1.6985 -1.7211
17258TIP3    H273190   3.303   5.301   0.566 -0.9840  0.2289  0.2302
17259TIP3   OH273191   6.119   6.225   3.662 -0.1114 -0.1075 -0.4295
17259TIP3    H173192   6.023   6.228   3.664 -0.0863  0.7391  0.1049
17259TIP3    H273193   6.142   6.257   3.575 -0.2984  0.5060 -0.2576
17260TIP3   OH273194   3.031   0.238  15.717  0.3604  0.1144  0.4659
17260TIP3    H173195   3.090   0.174  15.676 -0.1585 -1.4634  2.0282
17260TIP3    H273196   3.040   0.221  15.811 -2.3904 -0.0667  0.7714
17261TIP3   OH273197   5.677   2.443  15.614  0.1781  0.5332 -0.2200
17261TIP3    H173198   5.770   2.463  15.618  0.2335  0.5762 -1.3288
17261TIP3    H273199   5.665   2.405  15.527 -0.6511 -0.4479  0.2970
17262TIP3   OH273200   1.732   1.821   4.344  0.2190  0.0778 -0.0034
17262TIP3    H173201   1.729   1.860   4.257 -0.6193  1.8755  0.7899
17262TIP3    H273202   1.802   1.867   4.389 -0.2036  0.0587  0.6823
17263TIP3   OH273203   3.453   3.916  15.265 -0.6738 -0.2234 -0.3697
17263TIP3    H173204   3.398   3.941  15.338  0.4485 -0.3706  0.5624
17263TIP3    H273205   3.467   3.822  15.276  2.3610  0.2822  1.3644
17264TIP3   OH273206   0.715   6.306   0.872  0.6914 -0.0493 -0.0373
17264TIP3    H173207   0.743   6.300   0.963 -0.5400 -0.7433  0.3096
17264TIP3    H273208   0.650   6.237   0.862  0.6890  0.1165 -1.4081
17265TIP3   OH273209   0.754   6.395   1.607  0.0081 -0.2128 -0.0272
17265TIP3    H173210   0.665   6.359   1.604 -0.2358  0.1999  1.2680
17265TIP3    H273211   0.803   6.347   1.540 -1.1131 -0.6510 -0.5551
17266TIP3   OH273212   3.480   4.346  13.826 -0.3991  0.0993  0.6372
17266TIP3    H173213   3.461   4.431  13.787  0.6825 -0.0277 -0.2055
17266TIP3    H273214   3.545   4.307  13.768  0.5507 -0.4957  2.0430
17267TIP3   OH273215   0.152   2.726  14.965 -0.1199  0.5487 -0.3915
17267TIP3    H173216   0.082   2.665  14.941 -0.5438  0.4047  1.1315
17267TIP3    H273217   0.159   2.785  14.890 -0.8114 -0.3736 -1.2099
17268TIP3   OH273218   5.841   4.038   2.087  0.0480 -0.1637 -0.6557
17268TIP3    H173219   5.853   4.051   2.181  0.7815  0.6005 -0.8407
17268TIP3    H273220   5.906   4.094   2.047 -1.3276  0.7931 -1.6569
17269TIP3   OH273221   1.898   1.355  12.974 -0.2043  0.0204 -0.6504
17269TIP3    H173222   1.843   1.286  12.936  0.9438 -0.5092 -1.4191
17269TIP3    H273223   1.986   1.318  12.972  0.2246  0.9569  0.3014
17270TIP3   OH273224   2.433   2.637   4.506 -0.0424 -0.2302 -0.0315
17270TIP3    H173225   2.387   2.709   4.462  0.2504  0.7615  1.2202
17270TIP3    H273226   2.505   2.680   4.553  0.5356 -1.4301  0.2095
17271TIP3   OH273227   6.664   4.755  15.883  0.0463  0.1645 -0.1214
17271TIP3    H173228   6.741   4.785  15.835  0.9143 -1.9492 -0.1552
17271TIP3    H273229   6.596   4.818  15.860  0.9792  0.4143 -2.4572
17272TIP3   OH273230   5.428   6.342  15.633  0.5078 -0.0357 -0.2720
17272TIP3    H173231   5.420   6.350  15.538 -0.3400  0.7220 -0.1539
17272TIP3    H273232   5.347   6.298  15.660 -0.3072  1.7288  0.2980
17273TIP3   OH273233   3.110   3.362  17.400 -0.4043  0.0255  0.7216
17273TIP3    H173234   3.042   3.411  17.355  0.3905 -1.3838 -2.2708
17273TIP3    H273235   3.078   3.272  17.402  1.1111 -0.5790 -0.3155
17274TIP3   OH273236   5.122   2.539  14.178  0.0303  0.3422  0.6466
17274TIP3    H173237   5.088   2.490  14.253 -0.3445 -0.1731  0.1449
17274TIP3    H273238   5.091   2.491  14.101  1.5183  0.1293  0.1571
17275TIP3   OH273239   4.117   1.915   2.168 -0.0396  0.4376  0.3249
17275TIP3    H173240   4.100   1.998   2.212 -0.1072  0.9544 -0.6392
17275TIP3    H273241   4.204   1.924   2.131 -0.7515  0.8231 -1.3538
17276TIP3   OH273242   1.636   1.893   1.332 -0.0692 -0.3377 -0.2305
17276TIP3    H173243   1.601   1.872   1.419  0.2868  0.0166 -0.0023
17276TIP3    H273244   1.699   1.963   1.348  1.2573 -1.4289 -0.5523
17277TIP3   OH273245   5.339   4.878  11.505  0.4197  0.2503  0.1964
17277TIP3    H173246   5.431   4.904  11.510  0.3518  0.4335  0.5220
17277TIP3    H273247   5.299   4.942  11.447  0.3210  0.6829  0.7344
17278TIP3   OH273248   4.707   4.226   4.858  0.2143 -0.1311  0.0440
17278TIP3    H173249   4.690   4.268   4.774 -2.0682 -0.7624  0.1045
17278TIP3    H273250   4.713   4.133   4.837  1.5636 -0.1286  0.3622
17279TIP3   OH273251   1.567   2.136  15.558 -0.3457 -0.4052 -0.6738
17279TIP3    H173252   1.590   2.166  15.646 -0.8011  0.3837 -0.8228
17279TIP3    H273253   1.473   2.153  15.550 -1.0378 -3.3181 -0.1796
17280TIP3   OH273254   4.815   0.595  13.063 -0.1705  0.4297 -0.5220
17280TIP3    H173255   4.811   0.584  13.158  1.8828 -1.0313 -0.5324
17280TIP3    H273256   4.805   0.506  13.029  0.5747  0.7533 -1.6074
17281TIP3   OH273257   4.854   3.793  12.014 -0.0307 -0.1347 -0.2506
17281TIP3    H173258   4.838   3.708  12.057 -0.8898  0.7110  1.1923
17281TIP3    H273259   4.836   3.777  11.922  0.8427 -1.7731 -0.1783
17282TIP3   OH273260   0.049   6.118   6.764  0.4598 -0.1331  0.0599
17282TIP3    H173261   0.016   6.132   6.853 -0.6246 -1.2188 -0.1472
17282TIP3    H273262  -0.028   6.129   6.708  1.0831  0.2919 -0.7358
17283TIP3   OH273263   6.362   2.007  17.260 -0.0448 -0.6632 -0.2948
17283TIP3    H173264   6.281   2.051  17.233  1.0675  1.3240 -0.5896
17283TIP3    H273265   6.356   1.920  17.220 -1.2042  0.0846 -1.8737
17284TIP3   OH273266   5.161   1.040   2.436 -0.0811 -0.5550  0.0235
17284TIP3    H173267   5.110   1.000   2.366  0.6964 -1.1278 -0.2275
17284TIP3    H273268   5.107   1.113   2.466 -0.2556 -0.0572 -1.4369
17285TIP3   OH273269   5.689   6.280   1.759 -0.0017 -0.0829 -0.0327
17285TIP3    H173270   5.745   6.352   1.730  2.1300 -1.2874  0.8935
17285TIP3    H273271   5.707   6.209   1.698  0.8710 -1.0610  1.3095
17286TIP3   OH273272   1.738   6.160  13.136 -0.0297 -0.1961 -0.3354
17286TIP3    H173273   1.786   6.208  13.203 -0.0981  1.8878 -1.7188
17286TIP3    H273274   1.646   6.173  13.159 -0.1076 -2.8443  1.3753
17287TIP3   OH273275   6.562   0.681   4.440  0.3820 -0.6221 -0.2802
17287TIP3    H173276   6.474   0.671   4.404  0.4174  0.2449 -0.6257
17287TIP3    H273277   6.548   0.711   4.530  0.3249 -0.0725 -0.4700
17288TIP3   OH273278   3.142   0.103   2.012  0.5089  0.5774 -0.3582
17288TIP3    H173279   3.091   0.096   1.932 -0.3845 -2.2724  0.3251
17288TIP3    H273280   3.093   0.051   2.076  2.7207  0.2534  1.1858
17289TIP3   OH273281   3.130   6.145   0.044 -0.2739 -0.0280  0.0406
17289TIP3    H173282   3.076   6.207   0.093 -0.1582 -0.6123  0.9262
17289TIP3    H273283   3.096   6.059   0.067 -0.7539 -0.2926 -1.5766
17290TIP3   OH273284   5.545   5.455   0.842 -0.1130  0.2146  0.1281
17290TIP3    H173285   5.577   5.380   0.892 -1.4274  0.0752  0.7878
17290TIP3    H273286   5.566   5.531   0.897  1.4111  0.3730 -0.6374
17291TIP3   OH273287   0.137   6.537   1.329  0.5931  0.0315 -0.8337
17291TIP3    H173288   0.197   6.568   1.261  2.3857 -0.4485  0.4303
17291TIP3    H273289   0.081   6.612   1.348  2.5452  1.4352 -0.2692
17292TIP3   OH273290   0.414   3.695  16.767 -0.2671 -0.2609 -0.2511
17292TIP3    H173291   0.499   3.650  16.775  0.1444  0.5040 -0.1858
17292TIP3    H273292   0.362   3.661  16.840 -0.1517 -1.0067 -0.5032
17293TIP3   OH273293   2.649   6.011   4.126 -0.0550  0.9913 -0.0466
17293TIP3    H173294   2.722   5.951   4.138 -0.5534 -0.1726 -2.2736
17293TIP3    H273295   2.626   6.039   4.214  1.4337 -0.6095  0.9041
17294TIP3   OH273296   6.024   3.030   5.953  0.0844  0.1774 -0.0065
17294TIP3    H173297   6.045   3.101   6.014 -1.6983  0.1443  0.6987
17294TIP3    H273298   5.968   3.070   5.887  1.3082  0.0142 -1.1870
17295TIP3   OH273299   0.789   3.634  16.187 -0.1275  0.0755  0.2888
17295TIP3    H173300   0.830   3.719  16.205  0.7169  0.0045 -1.1395
17295TIP3    H273301   0.758   3.604  16.273 -0.3501  1.7605  0.8395
17296TIP3   OH273302   5.419   4.820   5.164 -0.0298 -0.1787  0.2154
17296TIP3    H173303   5.330   4.845   5.190 -0.1447  0.9531 -1.1573
17296TIP3    H273304   5.417   4.724   5.162 -0.7827 -0.2192  1.6044
17297TIP3   OH273305   0.458   0.040   4.890  0.0607 -0.8581 -0.6620
17297TIP3    H173306   0.462   0.135   4.879 -0.2760 -0.9788 -2.1101
17297TIP3    H273307   0.523   0.020   4.957 -0.2616  0.4422  0.0670
17298TIP3   OH273308   5.762   5.821   4.841  0.0707 -0.7297 -0.2275
17298TIP3    H173309   5.827   5.775   4.894 -0.1403  1.9766  2.6518
17298TIP3    H273310   5.815   5.875   4.781  0.3961 -1.2919 -0.4504
17299TIP3   OH273311   1.447   2.604   2.140  0.4480  0.1759 -0.0344
17299TIP3    H173312   1.370   2.576   2.191 -0.4276 -0.3460 -1.5849
17299TIP3    H273313   1.501   2.652   2.203  0.0461 -1.5434  1.7165
17300TIP3   OH273314   3.240   3.321   4.313 -0.1881 -0.1415  0.3899
17300TIP3    H173315   3.174   3.295   4.249 -0.3191  1.6433 -0.2530
17300TIP3    H273316   3.323   3.311   4.268 -0.3630  2.7090 -0.7487
17301TIP3   OH273317   2.706   0.841   5.456  0.7507 -0.1375  0.6204
17301TIP3    H173318   2.674   0.810   5.541 -0.5860  0.6629  0.4462
17301TIP3    H273319   2.780   0.897   5.478  0.4197  0.0624  1.2651
17302TIP3   OH273320   1.682   5.670   5.777  0.2718  0.0744  0.1152
17302TIP3    H173321   1.690   5.761   5.752  0.9755 -0.1205 -0.3702
17302TIP3    H273322   1.615   5.670   5.846 -3.2219  0.4039 -2.9717
17303TIP3   OH273323   4.697   0.260   5.762 -0.0039  0.1624 -0.1401
17303TIP3    H173324   4.714   0.231   5.672 -0.4935 -1.3994  0.2324
17303TIP3    H273325   4.606   0.291   5.760  0.0309  0.2587 -0.2185
17304TIP3   OH273326   4.552   3.944   5.404 -0.3470 -0.8860  0.4412
17304TIP3    H173327   4.460   3.970   5.405 -0.9815 -2.9924  0.5818
17304TIP3    H273328   4.586   3.984   5.323 -1.1478  0.5651  0.7772
17305TIP3   OH273329   3.478   2.486   3.726 -0.6507 -0.7793  0.6948
17305TIP3    H173330   3.568   2.518   3.722  0.0083 -2.6161 -2.3675
17305TIP3    H273331   3.425   2.562   3.705  0.5850 -0.5759 -2.1803
17306TIP3   OH273332   6.241   5.483   1.481  0.2239 -0.1433 -0.9539
17306TIP3    H173333   6.175   5.502   1.548  2.0417  0.5148  0.7600
17306TIP3    H273334   6.191   5.446   1.408 -1.9116 -0.5724  0.6127
17307TIP3   OH273335   2.170   1.345  10.524  0.2023 -0.0280 -0.2200
17307TIP3    H173336   2.223   1.423  10.541 -0.8111  0.3973  1.2787
17307TIP3    H273337   2.216   1.274  10.569  1.1026 -0.3128 -1.5478
17308TIP3   OH273338   1.569   2.319   3.866  0.0110  0.3039  0.1032
17308TIP3    H173339   1.492   2.270   3.897 -0.7009  1.8132  0.8583
17308TIP3    H273340   1.546   2.346   3.777 -0.7082  1.3797  0.5803
17309TIP3   OH273341   4.602   0.614   2.395  0.2804  0.5295  0.2045
17309TIP3    H173342   4.635   0.671   2.326 -0.1615  1.2659  0.5912
17309TIP3    H273343   4.671   0.550   2.409  0.4983  0.5511 -0.7159
17310TIP3   OH273344   6.649   1.912  15.049 -0.3291  0.7633 -0.2688
17310TIP3    H173345   6.598   1.878  14.975  1.5456 -1.1863 -0.7651
17310TIP3    H273346   6.618   2.002  15.060 -2.4362  0.3043 -1.7886
17311TIP3   OH273347   1.035   3.235  15.900  0.7260 -0.0145  0.0474
17311TIP3    H173348   1.050   3.280  15.983 -0.7505  0.2034  0.2383
17311TIP3    H273349   1.122   3.210  15.869  1.3117  0.0354  1.5811
17312TIP3   OH273350   5.957   5.510   0.062 -0.1118 -0.1191  0.0245
17312TIP3    H173351   6.033   5.490   0.116 -1.0250 -1.6787  0.8425
17312TIP3    H273352   5.888   5.529   0.126 -0.0895  2.8379 -0.7078
17313TIP3   OH273353   1.900   6.311   4.112  0.1905 -0.6277  0.1165
17313TIP3    H173354   1.892   6.316   4.017  0.6332  0.2079  0.1149
17313TIP3    H273355   1.993   6.299   4.128  0.1806 -0.2748  0.4549
17314TIP3   OH273356   4.397   6.268   1.819  0.4003 -0.1720 -0.3636
17314TIP3    H173357   4.305   6.244   1.828 -0.4043  1.7190 -2.5202
17314TIP3    H273358   4.408   6.344   1.877  0.5888 -0.3983 -0.1048
17315TIP3   OH273359   3.049   1.492  13.173 -0.3442  0.1658  0.0324
17315TIP3    H173360   3.096   1.454  13.248  1.1497  0.4670 -0.7132
17315TIP3    H273361   3.087   1.579  13.162 -1.9333  0.9035  0.1197
17316TIP3   OH273362   0.911   1.928  14.912 -0.0235 -0.2408 -0.4183
17316TIP3    H173363   0.907   1.899  15.003 -1.4881  2.2021  0.4053
17316TIP3    H273364   0.819   1.930  14.884  0.4333 -1.3841 -2.1377
17317TIP3   OH273365   6.071   5.689  11.309 -0.3243  0.5446  0.1616
17317TIP3    H173366   6.077   5.598  11.280  2.1285  0.9041 -0.7770
17317TIP3    H273367   5.987   5.695  11.354 -0.5016 -2.2075  0.3818
17318TIP3   OH273368   3.551   4.668  15.856  0.3659 -0.0567  0.7693
17318TIP3    H173369   3.487   4.626  15.798  0.7411 -0.3810  0.5843
17318TIP3    H273370   3.566   4.603  15.924  0.8650 -0.1786  0.5444
17319TIP3   OH273371   3.057   4.070   0.139  0.4188 -0.2335 -0.3212
17319TIP3    H173372   3.151   4.053   0.134  0.9411  2.1747  0.0050
17319TIP3    H273373   3.029   4.028   0.221  1.1543 -1.1376 -0.5208
17320TIP3   OH273374   0.178   4.594   2.118  0.3704  0.0305 -0.0757
17320TIP3    H173375   0.195   4.608   2.025 -0.1638 -0.7037 -0.2942
17320TIP3    H273376   0.218   4.669   2.162 -0.2976  0.9422 -0.9843
17321TIP3   OH273377   4.716   4.782  15.718  0.1632 -0.1781 -0.0719
17321TIP3    H173378   4.715   4.726  15.796 -1.8833  0.0304  0.1248
17321TIP3    H273379   4.701   4.870  15.751 -4.0154 -0.4135 -0.7417
17322TIP3   OH273380   0.083   2.329  15.694 -0.2481 -0.4976  0.5572
17322TIP3    H173381   0.018   2.398  15.706  2.1778  1.9174  0.8431
17322TIP3    H273382   0.077   2.306  15.602  1.4780  3.0951 -0.6438
17323TIP3   OH273383   5.282   5.162   3.658 -0.1261  0.6304 -0.2948
17323TIP3    H173384   5.304   5.241   3.707 -1.5569 -0.4930  2.3472
17323TIP3    H273385   5.367   5.124   3.636  0.6260  1.0552  1.6193
17324TIP3   OH273386   1.714   3.504  12.603 -0.4040 -0.0465  0.0504
17324TIP3    H173387   1.659   3.445  12.550  1.2836 -1.9789  0.3200
17324TIP3    H273388   1.719   3.584  12.552 -1.0419 -0.8786 -1.4047
17325TIP3   OH273389   1.987   5.874   0.059  0.1781 -0.2602  0.7114
17325TIP3    H173390   1.975   5.961   0.099  3.2156  0.9057 -0.5760
17325TIP3    H273391   1.955   5.885  -0.031  0.9773 -0.3085  0.4154
17326TIP3   OH273392   5.351   1.766  15.648 -0.3023  0.0864 -0.0143
17326TIP3    H173393   5.263   1.729  15.654  0.1891 -0.8992  1.8743
17326TIP3    H273394   5.339   1.860  15.657 -1.1503 -0.0576  0.4426
17327TIP3   OH273395   5.610   5.896  14.968 -0.2523  0.0371 -0.2263
17327TIP3    H173396   5.669   5.852  14.906 -1.4327 -1.8820 -0.0490
17327TIP3    H273397   5.524   5.890  14.927 -0.6253  1.2599  0.3312
17328TIP3   OH273398   4.993   0.236  15.137 -0.2993  0.6986 -0.3353
17328TIP3    H173399   4.993   0.143  15.116 -0.6522  0.6864 -0.2855
17328TIP3    H273400   5.077   0.268  15.104  0.1207  0.2283  0.2571
17329TIP3   OH273401   3.250   1.190   1.993 -0.1215 -0.1534 -0.3744
17329TIP3    H173402   3.315   1.255   2.022 -0.7389  0.3794 -0.1652
17329TIP3    H273403   3.293   1.106   2.007  0.7968  0.2146 -0.8948
17330TIP3   OH273404   4.579   4.393   1.676 -0.5676  0.3347 -0.3485
17330TIP3    H173405   4.611   4.395   1.767 -1.9531 -0.5774  0.1899
17330TIP3    H273406   4.570   4.486   1.652  1.1251  0.5986 -0.0624
17331TIP3   OH273407   6.386   4.624   3.760  0.3379  0.2977 -0.5221
17331TIP3    H173408   6.372   4.683   3.833 -2.3341  1.6494 -1.9909
17331TIP3    H273409   6.327   4.551   3.776  0.9970 -0.2479 -0.5154
17332TIP3   OH273410   3.613   4.134  15.200 -0.1360 -0.0839 -0.0584
17332TIP3    H173411   3.562   4.056  15.220 -0.8395  0.3900  0.0375
17332TIP3    H273412   3.686   4.102  15.148  1.7710 -1.3625  3.1595
17333TIP3   OH273413   6.443   4.918   4.140 -0.0496 -0.2611  0.6875
17333TIP3    H173414   6.506   4.914   4.212  3.1289  0.0904 -1.8029
17333TIP3    H273415   6.436   4.827   4.110  1.4250 -0.0110 -0.5902
17334TIP3   OH273416   3.784   6.095   2.041 -0.1954 -0.0086  0.2775
17334TIP3    H173417   3.869   6.054   2.054  0.2289  0.7670  0.0176
17334TIP3    H273418   3.722   6.038   2.086  0.4257 -0.7294  0.2291
17335TIP3   OH273419   0.950   5.117   0.704 -0.9875  0.2843 -0.4359
17335TIP3    H173420   0.896   5.063   0.762 -0.9566  0.2421 -0.4469
17335TIP3    H273421   0.913   5.102   0.617 -0.7911  0.0510 -0.4801
17336TIP3   OH273422   5.753   1.420   1.164 -0.1320 -0.2209 -0.4351
17336TIP3    H173423   5.832   1.458   1.202  0.6423 -1.1801 -1.0345
17336TIP3    H273424   5.780   1.392   1.077 -0.5601 -2.3518  0.0575
17337TIP3   OH273425   3.530   3.591   0.875  0.6401 -0.4287 -0.1136
17337TIP3    H173426   3.441   3.561   0.892  0.0339  0.5013 -1.4811
17337TIP3    H273427   3.576   3.512   0.845 -0.3233 -0.4982 -1.5065
17338TIP3   OH273428   6.329   2.996  16.173 -0.6625 -0.1715 -0.2298
17338TIP3    H173429   6.310   2.964  16.261  0.7015  0.0377  0.1592
17338TIP3    H273430   6.363   3.085  16.187 -1.0542  0.1121 -1.0236
17339TIP3   OH273431   6.194   3.820  11.722 -0.3573  0.0417 -0.6944
17339TIP3    H173432   6.129   3.859  11.663 -0.6762  0.2980 -0.1816
17339TIP3    H273433   6.142   3.777  11.790 -0.0489  2.3511  1.1310
17340TIP3   OH273434   0.800   2.338  14.343 -0.1401  0.2660 -1.0255
17340TIP3    H173435   0.881   2.389  14.337 -0.3258  0.6727 -0.2031
17340TIP3    H273436   0.815   2.278  14.416 -0.4956  0.1797 -1.0249
17341TIP3   OH273437   6.323   1.603  14.522  0.5529 -0.3053 -0.0403
17341TIP3    H173438   6.406   1.572  14.485  0.4717 -2.6597  1.5133
17341TIP3    H273439   6.276   1.522  14.545 -0.1909  0.9528  3.3825
17342TIP3   OH273440   3.522   1.042   4.151  0.1987 -0.7534 -0.2931
17342TIP3    H173441   3.531   0.981   4.225  1.3971 -1.5805 -1.0734
17342TIP3    H273442   3.459   1.000   4.093 -0.2724 -0.4076 -0.0330
17343TIP3   OH273443   3.908   0.741   5.493  0.1622  0.1701 -0.3175
17343TIP3    H173444   3.876   0.657   5.460  0.3707  0.3766 -1.0582
17343TIP3    H273445   3.937   0.723   5.582 -0.1775 -0.4523 -0.3310
17344TIP3   OH273446   4.377   5.515   4.616  0.4748  0.6608 -0.3490
17344TIP3    H173447   4.460   5.467   4.606  0.6134  0.6104  0.8755
17344TIP3    H273448   4.321   5.481   4.546  0.1276 -2.2580  1.1940
17345TIP3   OH273449   0.727   0.132  11.563  0.3984  0.5547  0.1396
17345TIP3    H173450   0.765   0.181  11.491 -1.0019  1.1567 -0.2251
17345TIP3    H273451   0.801   0.110  11.619  1.4288  0.6233 -1.1463
17346TIP3   OH273452   3.498   5.337   0.855  0.6546 -0.3816 -0.0131
17346TIP3    H173453   3.566   5.325   0.922  0.5111  0.3812  0.2753
17346TIP3    H273454   3.507   5.260   0.799  0.8223 -1.0037  0.8405
17347TIP3   OH273455   6.128   0.353  14.520  0.8242  0.1028  0.5093
17347TIP3    H173456   6.073   0.430  14.533  0.7969  0.2986 -0.6991
17347TIP3    H273457   6.106   0.322  14.432 -0.2771 -2.1706  1.4837
17348TIP3   OH273458   3.914   5.545  16.389 -0.2327  0.3802 -0.3071
17348TIP3    H173459   3.961   5.463  16.403  0.8435  0.7866 -1.3489
17348TIP3    H273460   3.839   5.521  16.334  0.2612  0.1393 -0.8827
17349TIP3   OH273461   5.951   6.131  15.069 -0.0814 -0.1038  0.0090
17349TIP3    H173462   5.977   6.042  15.094 -1.3236 -0.3016  0.6728
17349TIP3    H273463   5.855   6.127  15.064 -0.1449  1.1896 -0.0260
17350TIP3   OH273464   0.868   4.677   5.109  0.0443  0.0694 -0.3087
17350TIP3    H173465   0.799   4.622   5.144 -0.8933  0.9898 -0.6368
17350TIP3    H273466   0.890   4.639   5.024 -1.1540  0.6249 -0.8870
17351TIP3   OH273467   2.102   4.543  11.504 -0.4954 -0.2621  0.4503
17351TIP3    H173468   2.029   4.579  11.554 -0.9719 -1.0208  0.3254
17351TIP3    H273469   2.097   4.448  11.520  0.9096 -0.2631  1.0432
17352TIP3   OH273470   4.471   2.014  12.684  0.7226  0.2244  0.6338
17352TIP3    H173471   4.470   1.973  12.770  1.6930 -2.7754 -0.6449
17352TIP3    H273472   4.411   1.960  12.631  1.4369  0.9235 -0.9571
17353TIP3   OH273473   6.360   4.004  15.807 -0.4498  0.9023  0.1139
17353TIP3    H173474   6.351   3.913  15.779 -2.0563  1.4479 -1.4051
17353TIP3    H273475   6.321   4.006  15.894  2.6360 -0.4295  1.6735
17354TIP3   OH273476   2.523   3.304   0.871  0.2682  0.5910 -0.6796
17354TIP3    H173477   2.459   3.340   0.933  0.5795  0.4362 -0.2616
17354TIP3    H273478   2.488   3.326   0.785 -0.5467  0.1763 -0.4688
17355TIP3   OH273479   5.018   0.949   3.859 -0.0090 -0.2261  0.0454
17355TIP3    H173480   5.000   0.863   3.897  0.9701 -1.0153 -1.2095
17355TIP3    H273481   4.937   0.998   3.870 -0.3010 -0.9990  1.5728
17356TIP3   OH273482   0.629   6.377  10.840  1.1750 -0.0546  0.7617
17356TIP3    H173483   0.643   6.422  10.757 -0.0281 -1.5272 -0.2860
17356TIP3    H273484   0.594   6.292  10.816  0.7602 -0.5151  2.7976
17357TIP3   OH273485   4.215   2.975  14.344 -0.0245  0.0487 -0.6203
17357TIP3    H173486   4.253   2.977  14.257 -2.6974 -0.4105 -1.9017
17357TIP3    H273487   4.201   3.067  14.366  0.6898  0.1663 -0.6402
17358TIP3   OH273488   1.571   2.279   5.073 -0.3244 -0.7899  0.0065
17358TIP3    H173489   1.516   2.207   5.103 -1.5982 -0.3560 -1.1973
17358TIP3    H273490   1.534   2.357   5.114  0.8791 -0.7475  1.0828
17359TIP3   OH273491   2.937   3.704  12.491  0.2013  0.5431  0.4182
17359TIP3    H173492   2.997   3.729  12.421  0.5214 -1.2316 -0.0139
17359TIP3    H273493   2.981   3.630  12.535 -1.7709 -1.0617 -0.1466
17360TIP3   OH273494   5.245   0.314  14.604 -0.1274  0.0221  0.4472
17360TIP3    H173495   5.235   0.398  14.558 -0.6583  0.7910  1.8760
17360TIP3    H273496   5.320   0.328  14.663 -1.3380  0.1793  2.0239
17361TIP3   OH273497   4.591   0.446  12.419  0.7896 -0.1625  0.3049
17361TIP3    H173498   4.501   0.424  12.443  0.4425  1.3085  0.4942
17361TIP3    H273499   4.582   0.508  12.346  1.4696  2.0869  1.9852
17362TIP3   OH273500   0.042   1.800  11.752 -0.1941 -0.3473 -0.1661
17362TIP3    H173501   0.016   1.811  11.843 -0.4243  0.3035 -0.3068
17362TIP3    H273502   0.031   1.886  11.713  0.5136 -0.4656 -0.6567
17363TIP3   OH273503   0.870   0.598   4.838  0.1215 -0.7113 -0.0301
17363TIP3    H173504   0.884   0.513   4.797 -0.0416 -2.6494  3.5462
17363TIP3    H273505   0.780   0.621   4.816 -1.3183 -3.6078  2.2517
17364TIP3   OH273506   1.085   3.466  10.747  0.0800  0.2609 -0.2235
17364TIP3    H173507   1.147   3.521  10.699 -1.6920  4.2186  1.5454
17364TIP3    H273508   1.139   3.418  10.810  1.6124  0.9683 -0.9415
17365TIP3   OH273509   0.017   1.058   0.611 -0.1549  0.2682  0.0579
17365TIP3    H173510  -0.063   1.104   0.635 -0.4281 -0.2759  0.2206
17365TIP3    H273511   0.077   1.075   0.683 -0.3338  0.1761  0.2294
17366TIP3   OH273512   2.405   1.690  12.663 -0.0366  0.2000  0.6792
17366TIP3    H173513   2.439   1.650  12.583 -0.3936  1.0504  0.0869
17366TIP3    H273514   2.466   1.761  12.682  0.5697 -0.5665  1.7004
17367TIP3   OH273515   2.235   3.208   5.746  0.0326 -0.1119 -0.3376
17367TIP3    H173516   2.219   3.165   5.662 -0.2684  1.4571 -1.1095
17367TIP3    H273517   2.222   3.301   5.729 -1.4426  0.1441  1.7799
17368TIP3   OH273518   6.512   0.579   3.720  0.3889 -0.5612  0.3713
17368TIP3    H173519   6.456   0.562   3.645 -0.8741 -2.2280  1.6175
17368TIP3    H273520   6.452   0.598   3.792  1.5744  1.3149  0.9439
17369TIP3   OH273521   2.642   1.412   0.855  0.4652 -0.6102 -0.4967
17369TIP3    H173522   2.626   1.374   0.768  1.0582 -0.7576 -0.5461
17369TIP3    H273523   2.726   1.457   0.846  0.3055 -0.2365 -0.1224
17370TIP3   OH273524   1.998   4.270  14.673 -0.5007 -0.4177  0.3327
17370TIP3    H173525   1.946   4.190  14.685  0.0053 -0.8105 -0.0788
17370TIP3    H273526   2.088   4.243  14.686 -0.3343  0.1212  0.3259
17371TIP3   OH273527   5.433   3.507  11.345  0.7564 -0.3111 -0.1803
17371TIP3    H173528   5.482   3.438  11.301  0.5435 -1.2097  0.9408
17371TIP3    H273529   5.344   3.472  11.354  0.6966  0.0117  0.5868
17372TIP3   OH273530   6.433   2.406  12.167  0.3298 -0.4150  0.3207
17372TIP3    H173531   6.366   2.402  12.235 -0.1079 -1.5594 -0.1555
17372TIP3    H273532   6.393   2.459  12.097 -0.4266 -1.7687 -0.3058
17373TIP3   OH273533   2.691   2.383  11.819 -0.2297  0.4209 -0.1319
17373TIP3    H173534   2.709   2.307  11.765 -2.0640 -0.5290  0.5299
17373TIP3    H273535   2.766   2.388  11.879  0.4299 -0.1903 -0.8954
17374TIP3   OH273536   3.685   5.403   0.362  0.4241  0.3189  0.0006
17374TIP3    H173537   3.633   5.460   0.304  0.4698  2.5397  1.9599
17374TIP3    H273538   3.690   5.452   0.444  0.7437 -2.4674  1.7633
17375TIP3   OH273539   0.293   3.604   0.003 -0.1207 -0.2659 -0.2814
17375TIP3    H173540   0.260   3.515   0.020 -2.3883  0.0216 -2.6333
17375TIP3    H273541   0.216   3.660   0.012  1.6127  1.9135  3.1983
17376TIP3   OH273542   2.514   2.378  14.447  0.2708 -0.1039 -0.5103
17376TIP3    H173543   2.492   2.400  14.357 -0.1120 -1.7084 -0.8294
17376TIP3    H273544   2.430   2.370  14.492  0.4403  0.0377 -0.1554
17377TIP3   OH273545   5.316   2.350  11.359  0.3374 -0.0276  0.3436
17377TIP3    H173546   5.302   2.419  11.294  2.5253  0.4979  0.3367
17377TIP3    H273547   5.233   2.303  11.363 -1.2364  2.5229  0.2648
17378TIP3   OH273548   3.835   6.584   1.028  0.0721 -0.4180 -0.4440
17378TIP3    H173549   3.922   6.599   1.064  0.1086  0.2204 -0.7842
17378TIP3    H273550   3.775   6.596   1.102  0.2590 -0.7271 -0.2398
17379TIP3   OH273551   2.288   3.990   5.818  0.2146 -0.1200 -0.3565
17379TIP3    H173552   2.379   4.008   5.793 -0.2430  1.1072 -1.2086
17379TIP3    H273553   2.277   3.897   5.801  0.9697 -0.0375 -1.3831
17380TIP3   OH273554   3.652   2.370   4.990  0.5334  0.1540 -0.4685
17380TIP3    H173555   3.575   2.387   5.044  0.5910  2.4788 -0.9998
17380TIP3    H273556   3.709   2.316   5.045 -1.0821 -0.9388  0.2307
17381TIP3   OH273557   4.353   2.567  16.565  0.3227  0.1452 -0.5387
17381TIP3    H173558   4.370   2.553  16.472 -0.8822 -3.0108 -0.3834
17381TIP3    H273559   4.429   2.530  16.610  0.6343  1.1430 -0.2054
17382TIP3   OH273560   5.943   0.595   1.592 -0.2825 -0.1020  0.0718
17382TIP3    H173561   5.884   0.520   1.594  0.3359 -0.6113  2.8576
17382TIP3    H273562   5.927   0.641   1.674  0.3870  2.0392 -0.9285
17383TIP3   OH273563   4.663   6.252  11.975  0.4028 -0.3903 -0.1926
17383TIP3    H173564   4.591   6.192  11.997  0.1549 -0.9654 -2.3535
17383TIP3    H273565   4.636   6.336  12.012 -0.1785 -1.1427  1.1818
17384TIP3   OH273566   1.131   0.725  15.284  0.3088  0.3082  0.1488
17384TIP3    H173567   1.173   0.665  15.222  1.3856  1.9687 -0.8267
17384TIP3    H273568   1.046   0.743  15.246 -0.3350 -1.1217  0.8316
17385TIP3   OH273569   1.134   2.811  14.771  0.6683  0.3375 -0.1248
17385TIP3    H173570   1.155   2.885  14.713  0.1748  0.1462 -0.5543
17385TIP3    H273571   1.083   2.752  14.716  0.2718  0.1108  0.4876
17386TIP3   OH273572   1.196   3.013   2.785 -0.0670  0.4994  0.0401
17386TIP3    H173573   1.216   2.923   2.807  0.2194  0.7337  0.7443
17386TIP3    H273574   1.281   3.056   2.777 -0.2124  0.8054  0.1246
17387TIP3   OH273575   3.148   4.376   2.182  0.9675  0.3004  0.3098
17387TIP3    H173576   3.053   4.362   2.173  1.0184 -0.9177  1.4198
17387TIP3    H273577   3.155   4.465   2.216  0.1552 -0.0150  1.3403
17388TIP3   OH273578   6.586   6.349   0.049 -0.1010 -0.3477  0.2314
17388TIP3    H173579   6.607   6.271  -0.002 -0.4004 -1.5035  1.7982
17388TIP3    H273580   6.609   6.423  -0.008  1.5391 -1.5671 -0.7552
17389TIP3   OH273581   1.344   2.275   5.404 -0.1559  0.2519  0.2327
17389TIP3    H173582   1.401   2.264   5.480  0.0559  1.4841  0.2624
17389TIP3    H273583   1.379   2.351   5.358 -0.6681 -0.0912 -0.7573
17390TIP3   OH273584   3.331   0.918  16.612 -0.2723  0.5871 -0.1917
17390TIP3    H173585   3.423   0.893  16.626 -0.7041 -1.5157 -0.7773
17390TIP3    H273586   3.326   1.008  16.646  1.9439  0.7032  0.0293
17391TIP3   OH273587   2.804   5.102   4.163  0.2276 -0.1545 -0.7971
17391TIP3    H173588   2.876   5.091   4.101  0.5498  1.4344 -0.7431
17391TIP3    H273589   2.746   5.028   4.146  0.2316  0.3063 -3.1160
17392TIP3   OH273590   5.217   6.213   4.112 -0.2093 -0.0612 -0.4386
17392TIP3    H173591   5.276   6.170   4.050 -1.1599  1.1427 -2.2719
17392TIP3    H273592   5.177   6.142   4.161  1.3529 -1.0026 -0.4490
17393TIP3   OH273593   0.319   0.820   2.488 -0.1867  0.5929 -0.4735
17393TIP3    H173594   0.312   0.726   2.506 -0.5073  0.9447  1.4941
17393TIP3    H273595   0.230   0.854   2.505  0.2827  1.4601  0.3705
17394TIP3   OH273596   4.004   6.589   0.485  0.1100 -0.5084 -0.2717
17394TIP3    H173597   4.027   6.599   0.392 -0.2830  1.3090 -0.2160
17394TIP3    H273598   3.909   6.598   0.487  0.2415  1.0931  0.4417
17395TIP3   OH273599   4.697   6.444  10.551 -0.6719  0.0638 -0.2564
17395TIP3    H173600   4.614   6.430  10.597 -1.5814 -1.0070 -2.1077
17395TIP3    H273601   4.726   6.356  10.526  0.7536  0.4717 -0.1411
17396TIP3   OH273602   3.672   2.409   2.333 -0.9999  0.1587 -0.3108
17396TIP3    H173603   3.681   2.425   2.239 -0.8058  0.2474 -0.2780
17396TIP3    H273604   3.580   2.426   2.352 -1.3708 -1.2007 -0.7443
17397TIP3   OH273605   0.509   1.666   4.433  0.2231 -0.6300 -0.0653
17397TIP3    H173606   0.495   1.722   4.509 -1.4923 -0.2696 -0.6053
17397TIP3    H273607   0.535   1.581   4.470  1.4444  0.0802  0.8040
17398TIP3   OH273608   5.805   0.959   2.710  0.4082 -0.1808 -0.2996
17398TIP3    H173609   5.710   0.948   2.721  0.3735  0.7121  0.4863
17398TIP3    H273610   5.814   1.030   2.647  0.5368  0.3926  0.3548
17399TIP3   OH273611   1.376   4.208   4.882 -0.4619  0.1737  0.1941
17399TIP3    H173612   1.460   4.240   4.847 -0.4156 -0.4680 -0.3147
17399TIP3    H273613   1.311   4.268   4.846 -0.3576 -0.1648 -0.5992
17400TIP3   OH273614   1.708   4.139   4.307 -0.0038  0.0755 -0.7854
17400TIP3    H173615   1.754   4.055   4.295 -0.5882 -0.2962 -0.4563
17400TIP3    H273616   1.779   4.203   4.315  0.4607 -0.1195 -2.7012
17401TIP3   OH273617   1.999   4.159   1.260 -0.5034 -0.0032 -0.0471
17401TIP3    H173618   2.002   4.077   1.310 -1.1631 -0.2409 -0.3804
17401TIP3    H273619   1.906   4.172   1.241 -0.4689  1.1190  0.4736
17402TIP3   OH273620   2.814   5.713  11.475 -0.1174 -0.1792  0.5925
17402TIP3    H173621   2.729   5.748  11.503 -1.4043 -3.3204  1.0626
17402TIP3    H273622   2.806   5.704  11.380 -0.9397 -1.7958  0.7821
17403TIP3   OH273623   0.528   5.583  15.763  0.1116 -0.1806 -0.2155
17403TIP3    H173624   0.573   5.502  15.739 -0.9171 -0.9367  0.3041
17403TIP3    H273625   0.529   5.636  15.683  1.0824 -0.5627 -0.4666
17404TIP3   OH273626   3.505   6.031   1.483  0.2231 -0.2435  0.1525
17404TIP3    H173627   3.550   5.962   1.532 -0.0808 -1.6832 -1.5149
17404TIP3    H273628   3.532   6.018   1.392  0.8164  2.3907 -0.1322
17405TIP3   OH273629   6.109   6.255   6.219  0.1311  0.2466 -0.1633
17405TIP3    H173630   6.024   6.300   6.218  0.0891  0.1869  0.3218
17405TIP3    H273631   6.090   6.170   6.260  0.9951  1.4451  3.0116
17406TIP3   OH273632   0.699   1.347  12.049 -0.3710  0.8571  0.1327
17406TIP3    H173633   0.611   1.352  12.011 -0.3967  1.4264  0.2614
17406TIP3    H273634   0.690   1.388  12.135 -0.3436 -0.5279  0.8220
17407TIP3   OH273635   1.208   5.984  17.182  0.5079 -0.1984 -0.5283
17407TIP3    H173636   1.202   5.960  17.089  1.6438 -0.9678 -0.4229
17407TIP3    H273637   1.289   6.035  17.188  0.7296 -0.6211  0.1302
17408TIP3   OH273638   4.686   5.574  16.845 -0.2938 -0.5895  0.2053
17408TIP3    H173639   4.682   5.531  16.931 -0.0439 -0.5055  0.2607
17408TIP3    H273640   4.775   5.556  16.814  0.8889  2.3044  1.5072
17409TIP3   OH273641   5.593   6.507   4.805 -0.9356 -0.6212  0.4427
17409TIP3    H173642   5.560   6.429   4.849 -2.7939  0.1820  0.5873
17409TIP3    H273643   5.523   6.572   4.817  1.6873  2.0353  2.8508
17410TIP3   OH273644   3.728   6.032   5.320 -0.1972 -0.1316  0.0152
17410TIP3    H173645   3.768   5.947   5.302 -0.1490 -0.0006 -0.5022
17410TIP3    H273646   3.709   6.069   5.234 -1.0436 -0.0058  0.2408
17411TIP3   OH273647   1.914   2.256  12.554 -0.3711 -0.6183 -0.0200
17411TIP3    H173648   1.835   2.204  12.537 -1.8364  0.8391  1.8527
17411TIP3    H273649   1.904   2.287  12.644  2.9270 -1.2797  0.7099
17412TIP3   OH273650   2.857   6.434  16.228  0.5085  0.2498 -0.7814
17412TIP3    H173651   2.946   6.438  16.195  0.9845  1.0176  0.5200
17412TIP3    H273652   2.834   6.525  16.247 -0.1452 -0.0376 -0.1140
17413TIP3   OH273653   2.634   1.198  12.957 -0.3822 -0.0326  0.0978
17413TIP3    H173654   2.614   1.291  12.944 -0.0999  0.2714  1.6574
17413TIP3    H273655   2.598   1.155  12.879 -1.5900  1.2358 -0.0935
17414TIP3   OH273656   0.045   2.241   5.419 -0.3922  0.2944  0.3218
17414TIP3    H173657   0.129   2.199   5.406 -0.3301 -0.1319  1.8420
17414TIP3    H273658   0.066   2.333   5.436 -0.2387  0.2172  0.5546
17415TIP3   OH273659   5.093   5.689   4.732 -0.4663 -0.6418  0.3220
17415TIP3    H173660   5.113   5.764   4.675  1.0228 -1.8492 -0.8314
17415TIP3    H273661   5.007   5.710   4.769 -2.1934 -0.3222 -3.3572
17416TIP3   OH273662   0.309   0.139  12.334 -0.4296 -0.1282  0.1768
17416TIP3    H173663   0.328   0.168  12.423  3.0140 -1.0433 -0.1333
17416TIP3    H273664   0.308   0.043  12.339 -0.1944 -0.1917 -0.7641
17417TIP3   OH273665   1.650   5.140   4.403  0.2951  0.1052  0.5232
17417TIP3    H173666   1.657   5.120   4.310 -0.4421  1.6682  0.1043
17417TIP3    H273667   1.709   5.215   4.416  2.1108 -1.4545  1.7945
17418TIP3   OH273668   0.526   1.845   1.411  0.2979 -0.0676  0.1960
17418TIP3    H173669   0.524   1.929   1.367 -2.2716  0.0191  0.3251
17418TIP3    H273670   0.600   1.799   1.372 -0.6201  0.7614 -2.7876
17419TIP3   OH273671   2.403   2.740   3.261  0.0941 -0.6525 -0.0375
17419TIP3    H173672   2.389   2.697   3.345 -0.0633 -0.1363  0.2047
17419TIP3    H273673   2.464   2.811   3.280 -2.5687  1.7046  0.4004
17420TIP3   OH273674   4.252   5.081  14.913  0.0853  0.7536  0.2518
17420TIP3    H173675   4.191   5.066  14.840 -0.0632  1.1737  0.2916
17420TIP3    H273676   4.196   5.084  14.990  0.4566 -2.6827  0.8297
17421TIP3   OH273677   3.149   3.649   3.364  0.0511 -0.3966 -0.1923
17421TIP3    H173678   3.228   3.628   3.315 -0.2046  0.0082 -0.7961
17421TIP3    H273679   3.160   3.606   3.448  1.4396  0.6132  0.1705
17422TIP3   OH273680   4.919   5.947   0.792  0.0175  0.3919  0.3269
17422TIP3    H173681   4.904   6.029   0.839 -1.7265  1.0163 -1.1832
17422TIP3    H273682   4.893   5.879   0.853  0.9684  0.9665  1.4126
17423TIP3   OH273683   5.700   4.901  11.943 -0.0721 -0.1203  0.4199
17423TIP3    H173684   5.620   4.932  11.986  0.9126  1.2319  1.3750
17423TIP3    H273685   5.700   4.946  11.859 -1.7711 -2.4237 -0.9358
17424TIP3   OH273686   3.110   2.654   2.226 -0.3251 -0.2263 -0.0648
17424TIP3    H173687   3.193   2.674   2.180  0.0893 -0.3969  0.5987
17424TIP3    H273688   3.121   2.565   2.259 -0.6307 -0.1199  0.3358
17425TIP3   OH273689   2.111   3.910  15.693 -0.1932 -0.1203 -0.6969
17425TIP3    H173690   2.136   3.821  15.668  0.4011  0.1104 -0.9477
17425TIP3    H273691   2.167   3.966  15.639  2.2258  0.3892  2.0610
17426TIP3   OH273692   0.311   0.371  14.489 -0.1562  0.1447  0.4430
17426TIP3    H173693   0.378   0.429  14.452  0.4113 -0.7542  0.0305
17426TIP3    H273694   0.234   0.428  14.501  0.4336  1.0166  0.2171
17427TIP3   OH273695   3.351   5.100  13.790 -0.9642 -0.4784 -0.1092
17427TIP3    H173696   3.266   5.143  13.781 -0.2224  0.9056 -0.9175
17427TIP3    H273697   3.405   5.138  13.721 -0.0576 -2.3150 -0.4891
17428TIP3   OH273698   0.261   5.518  15.015 -0.1708 -0.1429  0.3084
17428TIP3    H173699   0.320   5.593  15.023  0.9895 -1.1583  1.9292
17428TIP3    H273700   0.176   5.551  15.043  0.2177  0.6981  0.5259
17429TIP3   OH273701   5.545   2.096   3.719 -0.2071  0.5631 -0.0524
17429TIP3    H173702   5.456   2.063   3.724 -0.0703  0.3230  1.5346
17429TIP3    H273703   5.582   2.079   3.806  1.3758  0.6839 -0.6513
17430TIP3   OH273704   2.169   0.520   5.844  0.7497 -0.2774  0.3476
17430TIP3    H173705   2.075   0.530   5.860  0.5521 -1.7596  0.2427
17430TIP3    H273706   2.211   0.561   5.920 -0.0544 -1.6775  1.5882
17431TIP3   OH273707   4.887   0.144  11.910  0.2439  0.4060  0.4315
17431TIP3    H173708   4.841   0.210  11.859 -1.8947  1.2502  3.1956
17431TIP3    H273709   4.933   0.091  11.845 -3.1268  0.6658 -2.4820
17432TIP3   OH273710   1.041   1.117  16.823 -0.0301 -0.0918 -0.2377
17432TIP3    H173711   0.976   1.052  16.849 -0.8212  0.3117 -1.1678
17432TIP3    H273712   1.093   1.073  16.756  0.5374 -0.3412  0.3564
17433TIP3   OH273713   5.000   6.254  11.435  0.5364  0.1442 -0.1778
17433TIP3    H173714   4.998   6.327  11.496  0.7822  1.8166 -2.0751
17433TIP3    H273715   5.091   6.247  11.408  0.4719 -0.7248 -0.2184
17434TIP3   OH273716   5.004   4.721  15.757 -0.3047 -0.0816 -0.0018
17434TIP3    H173717   5.056   4.682  15.687 -1.1423 -0.7691 -0.2592
17434TIP3    H273718   4.923   4.749  15.715 -0.9951 -0.8743  0.7334
17435TIP3   OH273719   3.948   4.018   3.659  0.6664  0.0270  0.1422
17435TIP3    H173720   4.008   4.080   3.701 -0.0496  0.5709  0.3872
17435TIP3    H273721   3.958   4.034   3.565  1.0975 -0.0652  0.1743
17436TIP3   OH273722   3.760   0.619  12.553  0.1405  0.6556 -0.6329
17436TIP3    H173723   3.842   0.591  12.513  1.8376  4.0149  0.0980
17436TIP3    H273724   3.717   0.672  12.486 -0.7166  0.1604 -0.4896
17437TIP3   OH273725   6.681   0.053   3.383 -0.6319  0.1522  0.0202
17437TIP3    H173726   6.610   0.040   3.320 -1.2300 -1.2372  0.9190
17437TIP3    H273727   6.750  -0.006   3.354 -0.9919 -0.6567  0.7382
17438TIP3   OH273728   3.903   3.590   4.271  0.2571  0.1412 -0.7480
17438TIP3    H173729   3.920   3.684   4.281 -0.9135  0.4734 -1.6961
17438TIP3    H273730   3.974   3.548   4.320  0.0246  1.5213  0.8729
17439TIP3   OH273731   0.443   1.504   0.745 -0.0275  0.0471 -0.0832
17439TIP3    H173732   0.479   1.453   0.672 -0.3534 -1.7305  0.9331
17439TIP3    H273733   0.350   1.509   0.726 -0.3656 -1.6896  0.8613
17440TIP3   OH273734   6.520   0.863   3.642 -0.0256  0.0312  0.1205
17440TIP3    H173735   6.566   0.791   3.684 -1.4614 -1.1893 -0.3174
17440TIP3    H273736   6.523   0.842   3.549 -0.0727  0.7803 -0.0574
17441TIP3   OH273737   4.076   1.219  11.601 -0.2341 -0.1800 -0.1103
17441TIP3    H173738   4.070   1.140  11.548 -1.8028 -0.1696  0.0170
17441TIP3    H273739   4.035   1.287  11.548  2.3451  0.9601 -0.8451
17442TIP3   OH273740   0.496   1.518  16.713 -0.2334  0.3091 -0.5503
17442TIP3    H173741   0.405   1.518  16.682 -0.6130  0.6206  0.5161
17442TIP3    H273742   0.539   1.449  16.662 -1.4171 -0.7980 -0.1128
17443TIP3   OH273743   6.195   5.185  17.126 -0.1651  0.3701  0.2493
17443TIP3    H173744   6.253   5.123  17.082 -1.0876  0.4475 -1.1157
17443TIP3    H273745   6.157   5.237  17.056 -1.9346  0.2822  1.0802
17444TIP3   OH273746   6.013   3.811   0.964 -0.3969  0.7473 -0.8521
17444TIP3    H173747   5.922   3.820   0.992  0.1630  1.4202  0.9660
17444TIP3    H273748   6.042   3.728   1.002  0.0116  1.0133 -0.5715
17445TIP3   OH273749   5.387   3.623  14.379  0.1575  0.5928  0.2128
17445TIP3    H173750   5.418   3.660  14.461  0.3077  0.1593  0.3543
17445TIP3    H273751   5.462   3.573  14.345 -0.0793  0.3112  0.0962
17446TIP3   OH273752   1.435   0.528  17.082 -0.6988  0.0777 -0.1804
17446TIP3    H173753   1.386   0.483  17.152 -0.7578  0.2231 -0.1276
17446TIP3    H273754   1.371   0.586  17.042 -0.4131  0.7344  0.2984
17447TIP3   OH273755   5.901   4.820   2.860 -0.4068 -0.1826  0.5974
17447TIP3    H173756   5.906   4.740   2.912  2.5368 -0.5748 -0.0922
17447TIP3    H273757   5.933   4.889   2.919 -1.5750  0.2630  0.7368
17448TIP3   OH273758   3.166   0.446   4.438 -0.4892  0.4771  0.4160
17448TIP3    H173759   3.170   0.518   4.375  0.5207  1.3649  1.4458
17448TIP3    H273760   3.122   0.375   4.391 -0.9761  1.5568 -0.8245
17449TIP3   OH273761   1.976   2.918   0.569 -0.0503  0.2520  0.5646
17449TIP3    H173762   2.019   2.902   0.653 -1.7867  0.9309  1.6335
17449TIP3    H273763   1.893   2.958   0.592 -1.7517 -1.9390 -1.3485
17450TIP3   OH273764   2.285   6.697  11.439 -0.3323 -0.3536 -0.4013
17450TIP3    H173765   2.321   6.684  11.352 -0.5906  0.2730 -0.6103
17450TIP3    H273766   2.255   6.788  11.439  1.7243  0.3912  1.0820
17451TIP3   OH273767   5.394   0.633  12.886  0.4574 -0.1606  0.1430
17451TIP3    H173768   5.441   0.639  12.803 -0.2837 -3.0512 -0.6030
17451TIP3    H273769   5.303   0.653  12.863  0.3871 -0.1558  0.4248
17452TIP3   OH273770   0.255   4.915   5.999  0.0302 -0.1190  0.7189
17452TIP3    H173771   0.293   4.948   5.917  0.2520  0.1312  0.9178
17452TIP3    H273772   0.207   4.990   6.034 -0.1542 -0.2600  0.7625
17453TIP3   OH273773   0.771   1.418  10.818 -0.1073  0.0676  0.0966
17453TIP3    H173774   0.697   1.370  10.857  0.5479  0.1410  1.5159
17453TIP3    H273775   0.783   1.378  10.732 -2.0511  0.3262 -0.3586
17454TIP3   OH273776   1.796   5.940   4.222 -0.3836  0.3471 -0.3483
17454TIP3    H173777   1.873   5.927   4.167  1.2344  2.1465  1.3731
17454TIP3    H273778   1.819   5.902   4.306 -0.9664  1.7499  0.4850
17455TIP3   OH273779   0.279   3.420  14.331 -0.4287  0.1911  0.4861
17455TIP3    H173780   0.302   3.459  14.415  1.4981 -0.3209  0.2565
17455TIP3    H273781   0.339   3.462  14.268 -2.0626  0.8329 -0.7178
17456TIP3   OH273782   6.070   2.932   3.195 -0.3615  0.2131 -0.0029
17456TIP3    H173783   6.058   3.013   3.245 -1.1593  0.8160 -1.1213
17456TIP3    H273784   6.049   2.956   3.105  2.7235 -0.4176 -1.0037
17457TIP3   OH273785   4.560   5.637  17.097 -0.2414  0.4686  0.2392
17457TIP3    H173786   4.543   5.569  17.162 -0.6871 -0.3520 -0.6989
17457TIP3    H273787   4.497   5.619  17.027  0.0836  1.4482 -0.3285
17458TIP3   OH273788   4.220   1.108  12.593  0.2480 -0.4098  0.5840
17458TIP3    H173789   4.244   1.124  12.684  1.0602  2.2871 -0.0126
17458TIP3    H273790   4.261   1.179  12.545 -0.7638 -1.3516 -1.8276
17459TIP3   OH273791   5.744   1.860   4.336  0.4088 -0.1967  0.3638
17459TIP3    H173792   5.813   1.913   4.297 -0.4516  0.4046 -0.3538
17459TIP3    H273793   5.681   1.845   4.266 -1.3698  1.2483  1.5756
17460TIP3   OH273794   2.366   2.913  13.546  0.0583  0.5033  0.2455
17460TIP3    H173795   2.460   2.895  13.536  0.2319 -1.2516  3.6523
17460TIP3    H273796   2.362   2.994  13.597 -0.2992  0.6197  0.0346
17461TIP3   OH273797   2.038   2.070   4.016  0.0721 -0.0050 -0.0125
17461TIP3    H173798   2.033   2.164   3.997 -0.3884  0.4912  2.2640
17461TIP3    H273799   1.953   2.036   3.990  0.5101  0.0191 -1.5734
17462TIP3   OH273800   6.507   1.819   2.087 -0.0844 -0.0774  0.7543
17462TIP3    H173801   6.559   1.774   2.153  2.7898 -0.0967 -1.3221
17462TIP3    H273802   6.524   1.769   2.006 -0.1730  2.2326 -0.7877
17463TIP3   OH273803   0.918   2.693  14.674 -0.5146  0.0702 -0.1413
17463TIP3    H173804   0.861   2.694  14.752 -1.2775 -1.0198 -0.6629
17463TIP3    H273805   0.857   2.686  14.601  0.2933 -0.9582 -0.7260
17464TIP3   OH273806   4.842   1.205   3.422 -0.0584 -0.2405 -0.5214
17464TIP3    H173807   4.771   1.186   3.361 -0.4835  0.4694 -0.2626
17464TIP3    H273808   4.882   1.119   3.441 -2.8202 -1.2010  1.7356
17465TIP3   OH273809   5.169   0.730   4.782  0.2328 -0.3286  0.2528
17465TIP3    H173810   5.092   0.674   4.790  0.6118 -1.0227 -0.7666
17465TIP3    H273811   5.145   0.810   4.828 -0.3242 -1.3151  1.7660
17466TIP3   OH273812   4.203   1.551  13.911 -0.2275  0.3565 -0.2089
17466TIP3    H173813   4.164   1.634  13.884 -0.2091  0.6120  0.5137
17466TIP3    H273814   4.181   1.544  14.004  0.9560  0.2419  0.0822
17467TIP3   OH273815   2.840   6.321  15.173  0.1158 -0.1522  0.3597
17467TIP3    H173816   2.823   6.227  15.171  0.0461 -0.1399  0.4193
17467TIP3    H273817   2.766   6.360  15.127  0.6255 -0.2010 -0.5263
17468TIP3   OH273818   6.172   4.817   5.367  0.1093 -0.3804 -0.8358
17468TIP3    H173819   6.169   4.881   5.438 -0.6373 -0.8595 -0.4287
17468TIP3    H273820   6.164   4.869   5.288  1.1702  0.1858 -0.5923
17469TIP3   OH273821   6.290   3.419  17.342  0.4280 -0.0283  0.3585
17469TIP3    H173822   6.224   3.352  17.359  0.3283 -0.0506 -0.0980
17469TIP3    H273823   6.359   3.373  17.294 -0.0175  0.3764 -0.6852
17470TIP3   OH273824   4.532   5.084  12.745  0.0240  0.3248 -0.5526
17470TIP3    H173825   4.555   5.075  12.652  1.1693  0.2283 -0.2657
17470TIP3    H273826   4.526   5.178  12.759 -2.6622  0.3502 -1.2978
17471TIP3   OH273827   5.513   4.001  12.512  0.0534  0.2563 -0.1839
17471TIP3    H173828   5.562   4.024  12.433  1.1236 -1.6444 -0.1300
17471TIP3    H273829   5.444   4.067  12.517  0.7713  1.2201 -1.9505
17472TIP3   OH273830   3.024   4.383   1.731 -0.1213 -0.2771  0.0896
17472TIP3    H173831   3.092   4.373   1.798  0.9387  0.4259 -0.8489
17472TIP3    H273832   2.969   4.454   1.764 -0.7948 -1.2532  1.1505
17473TIP3   OH273833   3.751   4.676  14.483 -0.5030  0.3724 -0.1745
17473TIP3    H173834   3.789   4.648  14.400 -0.8705 -0.8745  0.0505
17473TIP3    H273835   3.671   4.723  14.458 -0.3878  0.3784 -0.5369
17474TIP3   OH273836   4.370   5.900  15.563  0.7598  0.1502 -0.1749
17474TIP3    H173837   4.350   5.965  15.496  0.6831  0.9964  0.6616
17474TIP3    H273838   4.285   5.862  15.586  0.8306 -0.4589 -0.8413
17475TIP3   OH273839   4.628   3.814   2.990 -0.4002  0.6128 -0.2461
17475TIP3    H173840   4.607   3.790   3.081 -0.7027  2.4417  0.1989
17475TIP3    H273841   4.702   3.874   2.998  2.7318 -2.6482 -1.5399
17476TIP3   OH273842   4.723   0.849   5.321  0.1588  0.9163  0.1265
17476TIP3    H173843   4.663   0.804   5.380 -0.3041 -0.4333 -1.3018
17476TIP3    H273844   4.810   0.823   5.350  0.1637  3.0034  2.3064
17477TIP3   OH273845   5.656   2.097  11.936 -0.0569  0.1248 -0.3038
17477TIP3    H173846   5.654   2.161  11.865  1.9179 -1.7761 -2.2322
17477TIP3    H273847   5.654   2.012  11.891 -2.9911 -1.2768  2.1316
17478TIP3   OH273848   0.973   6.029   0.175 -0.5875  0.8908  0.1859
17478TIP3    H173849   0.889   6.003   0.138 -0.7059 -1.4710  1.8989
17478TIP3    H273850   1.022   5.947   0.183  0.2372  1.5643  3.1350
17479TIP3   OH273851   5.708   0.743  15.674  0.3421 -0.3401  0.3641
17479TIP3    H173852   5.639   0.798  15.638  1.7108  1.5054  0.4292
17479TIP3    H273853   5.694   0.658  15.634 -0.9007  0.4484 -0.9731
17480TIP3   OH273854   4.866   1.600  16.403 -0.4035 -0.5665  0.1525
17480TIP3    H173855   4.872   1.528  16.465 -1.0555  0.2362  1.1930
17480TIP3    H273856   4.828   1.672  16.454 -1.1094  0.0705 -1.2181
17481TIP3   OH273857   5.525   4.437  16.633  0.2528 -0.2481  0.3508
17481TIP3    H173858   5.608   4.432  16.680 -0.0491 -2.5807  0.7369
17481TIP3    H273859   5.478   4.358  16.659 -0.8797 -0.4728 -2.1390
17482TIP3   OH273860   2.557   5.613  11.756  0.4893 -0.1636 -1.0459
17482TIP3    H173861   2.499   5.548  11.716  0.0817 -0.0250 -0.6776
17482TIP3    H273862   2.531   5.696  11.715 -0.6175  0.1470  0.2154
17483TIP3   OH273863   5.686   4.155  16.991 -0.6464 -0.9699  0.4469
17483TIP3    H173864   5.732   4.123  17.069 -0.8074 -2.8438 -0.1705
17483TIP3    H273865   5.620   4.088  16.974 -2.9103  1.0707  0.6388
17484TIP3   OH273866   4.831   3.758  16.206 -0.0980  0.0382  0.3186
17484TIP3    H173867   4.859   3.799  16.124  0.8240 -0.6740  0.2683
17484TIP3    H273868   4.762   3.697  16.181  0.9865 -1.0485 -0.1191
17485TIP3   OH273869   1.469   1.622   0.356 -0.0702 -0.2325  0.0369
17485TIP3    H173870   1.437   1.695   0.409  1.9232  1.3394 -0.7803
17485TIP3    H273871   1.456   1.650   0.266  2.5373  0.0779 -0.3222
17486TIP3   OH273872   0.472   5.356  16.736 -0.2831  0.0009 -0.1264
17486TIP3    H173873   0.420   5.336  16.813 -1.2741 -1.5577 -1.1319
17486TIP3    H273874   0.521   5.434  16.759 -1.8482  0.5733  1.4518
17487TIP3   OH273875   1.460   4.526   3.236 -0.3389  0.0496  0.0316
17487TIP3    H173876   1.547   4.533   3.198 -0.2469  0.2386  0.2738
17487TIP3    H273877   1.475   4.490   3.324 -0.4618  0.4893  0.2371
17488TIP3   OH273878   1.834   4.664   5.087 -0.0624  0.0145 -0.1548
17488TIP3    H173879   1.792   4.595   5.138  1.2670 -0.8737 -0.2070
17488TIP3    H273880   1.898   4.703   5.147  1.4254 -0.9540 -1.0439
17489TIP3   OH273881   2.084   1.926  12.751 -0.1781  0.4535 -0.1294
17489TIP3    H173882   2.129   1.852  12.791 -0.4626  0.2591 -0.1619
17489TIP3    H273883   1.994   1.918  12.782  0.1510  1.7969  1.3182
17490TIP3   OH273884   2.507   4.774   5.405  0.0207 -0.2084  0.4069
17490TIP3    H173885   2.583   4.777   5.464  0.9682 -0.0456 -0.7722
17490TIP3    H273886   2.543   4.796   5.319 -1.3388 -0.3583 -0.2269
17491TIP3   OH273887   3.612   2.277   0.341  0.1440  0.9873 -0.0338
17491TIP3    H173888   3.612   2.182   0.327 -1.6641  0.8532  0.5974
17491TIP3    H273889   3.704   2.298   0.360  0.7125 -0.5046 -0.9357
17492TIP3   OH273890   4.723   3.854   5.040 -0.0099 -0.2051 -0.3659
17492TIP3    H173891   4.690   3.770   5.073 -0.5963  0.5958  1.1593
17492TIP3    H273892   4.645   3.902   5.013  0.1543  0.5409  0.4522
17493TIP3   OH273893   3.620   4.302  16.839 -0.5925 -0.2555  0.0355
17493TIP3    H173894   3.563   4.338  16.770 -0.4668 -1.2475 -0.6136
17493TIP3    H273895   3.601   4.208  16.838  0.4083 -0.4689  0.4236
17494TIP3   OH273896   3.978   3.512  17.386 -0.2915  0.2465 -0.0770
17494TIP3    H173897   3.991   3.603  17.362 -2.1961  0.3639 -0.8786
17494TIP3    H273898   3.960   3.468  17.302 -0.3088 -0.6721  0.3987
17495TIP3   OH273899   6.330   0.854  16.179  0.6657  0.2452  0.0549
17495TIP3    H173900   6.287   0.934  16.149  2.7997  1.5208  0.1559
17495TIP3    H273901   6.378   0.881  16.257  0.7682 -1.3477  0.5636
17496TIP3   OH273902   0.148   5.229  14.141 -0.1533 -0.3025  0.0463
17496TIP3    H173903   0.220   5.276  14.098  0.8726 -2.0657 -0.2707
17496TIP3    H273904   0.152   5.258  14.232 -1.2694  2.1873 -0.6115
17497TIP3   OH273905   5.357   6.212  14.560 -0.6360  0.0747 -0.2328
17497TIP3    H173906   5.360   6.217  14.465 -0.3252 -0.1763 -0.2397
17497TIP3    H273907   5.279   6.160  14.580 -0.4892 -0.1987 -0.3649
17498TIP3   OH273908   5.246   1.147  14.244 -0.4027 -0.5631  0.3951
17498TIP3    H173909   5.233   1.240  14.259  0.2930 -0.1534 -1.3725
17498TIP3    H273910   5.268   1.140  14.151 -0.7968 -2.5284  0.4069
17499TIP3   OH273911   3.806   5.041  12.090  0.1816 -0.2508  0.4890
17499TIP3    H173912   3.757   5.116  12.056  1.0219  0.6019  1.0846
17499TIP3    H273913   3.832   5.067  12.178  3.2830  0.2002 -0.4073
17500TIP3   OH273914   1.293   0.214  11.002  0.2822 -0.0936  0.2193
17500TIP3    H173915   1.325   0.126  10.982 -2.0422 -0.8696 -0.4174
17500TIP3    H273916   1.271   0.210  11.095  3.1840  0.8993  1.0550
17501TIP3   OH273917   0.214   0.375   0.562  0.0968 -0.2246 -0.0898
17501TIP3    H173918   0.287   0.436   0.564 -0.2267  0.1644 -0.1193
17501TIP3    H273919   0.244   0.304   0.505  1.1083 -0.9219  1.2423
17502TIP3   OH273920   6.228   2.737  14.120 -0.4754  0.2389 -0.5989
17502TIP3    H173921   6.224   2.650  14.160 -0.7377  0.7997  0.6289
17502TIP3    H273922   6.321   2.751  14.103 -0.1797  0.5887  1.1999
17503TIP3   OH273923   4.961   5.670   2.895  0.7724 -0.1808 -0.3035
17503TIP3    H173924   5.005   5.600   2.847  0.5456 -0.0846 -0.6468
17503TIP3    H273925   4.999   5.665   2.983  0.7189 -0.7666 -0.3092
17504TIP3   OH273926   3.989   2.800  15.141 -1.0471 -0.1463  0.5981
17504TIP3    H173927   4.024   2.806  15.230  1.5658  1.7702 -0.4387
17504TIP3    H273928   3.918   2.866  15.139 -0.7239  0.2249  1.1034
17505TIP3   OH273929   3.936   2.527   0.042 -0.3399 -0.7036  0.1404
17505TIP3    H173930   3.858   2.483   0.008 -1.5914 -1.2437  3.4272
17505TIP3    H273931   3.999   2.456   0.054 -0.0661 -0.5790 -0.4869
17506TIP3   OH273932   1.391   3.475   5.901 -0.3666 -0.7703 -0.2683
17506TIP3    H173933   1.380   3.570   5.906 -0.3144 -0.8163  1.6143
17506TIP3    H273934   1.328   3.440   5.963  0.3677 -1.8955 -0.1183
17507TIP3   OH273935   4.791   1.907  11.785 -0.4169 -0.2452 -0.4133
17507TIP3    H173936   4.807   1.949  11.701 -3.1879  3.0134  0.4835
17507TIP3    H273937   4.829   1.967  11.850 -1.5026 -0.8284  0.8092
17508TIP3   OH273938   0.256   3.897  15.859  0.1967 -0.2477 -0.2867
17508TIP3    H173939   0.319   3.832  15.829  1.6157  1.5469 -1.3352
17508TIP3    H273940   0.257   3.964  15.792 -1.3455  0.8144  0.6935
17509TIP3   OH273941   4.427   6.469  10.693 -0.1458 -0.0603  0.1719
17509TIP3    H173942   4.422   6.519  10.774 -3.0689 -1.2013  0.8235
17509TIP3    H273943   4.354   6.500  10.640 -0.2823 -1.5782 -0.6056
17510TIP3   OH273944   0.201   1.025  13.754  0.1069  0.4438 -0.3257
17510TIP3    H173945   0.140   1.026  13.828  0.4346 -2.4308  0.1086
17510TIP3    H273946   0.285   1.050  13.792 -0.0482  0.5785 -0.0723
17511TIP3   OH273947   4.471   5.347  12.792 -0.3479 -0.8882 -0.0744
17511TIP3    H173948   4.529   5.385  12.857 -0.0710  1.6030 -1.6505
17511TIP3    H273949   4.405   5.415  12.777  0.4562 -0.6809 -3.4032
17512TIP3   OH273950   2.451   2.895   3.932 -0.5779 -0.3885 -0.4968
17512TIP3    H173951   2.408   2.923   4.013  0.3809  0.1894 -0.1717
17512TIP3    H273952   2.436   2.968   3.872  0.1010 -0.0934 -0.3183
17513TIP3   OH273953   6.589   5.820  17.366 -0.7554  0.0398  0.6082
17513TIP3    H173954   6.642   5.886  17.321  0.6860 -0.9566  0.7780
17513TIP3    H273955   6.653   5.765  17.411 -1.8520 -1.9391 -0.1588
17514TIP3   OH273956   6.356   1.456   0.867  0.5717 -0.3818  0.0359
17514TIP3    H173957   6.384   1.524   0.928 -0.1378  1.0585 -1.1459
17514TIP3    H273958   6.374   1.494   0.780 -0.6648 -1.3359 -0.6713
17515TIP3   OH273959   1.826   3.407  12.825  0.1002  0.1473  0.4805
17515TIP3    H173960   1.904   3.362  12.791 -0.2929 -1.1883  1.2655
17515TIP3    H273961   1.786   3.447  12.748  0.2407 -1.2505 -0.3592
17516TIP3   OH273962   2.455   3.042  15.151  0.1300  0.1391 -0.1481
17516TIP3    H173963   2.499   3.066  15.070 -0.9695 -2.6221 -1.7171
17516TIP3    H273964   2.433   2.949  15.139 -2.8558  0.4380  2.0017
17517TIP3   OH273965   1.533   6.733   2.339  0.5244  0.1286 -0.2401
17517TIP3    H173966   1.561   6.798   2.403  0.2261  2.4164 -2.2608
17517TIP3    H273967   1.588   6.657   2.356  1.3970  1.1416  1.8008
17518TIP3   OH273968   2.787   5.358   4.257 -0.3302  0.1020  0.4408
17518TIP3    H173969   2.789   5.271   4.219  0.0915 -0.2361  1.2166
17518TIP3    H273970   2.734   5.348   4.336 -0.8729  0.7090  0.1645
17519TIP3   OH273971   2.323   1.535  15.020  0.6315  0.0076 -0.8205
17519TIP3    H173972   2.365   1.480  14.954  1.1035 -1.2926  0.5020
17519TIP3    H273973   2.249   1.482  15.050 -1.2299  1.7032 -2.1702
17520TIP3   OH273974   0.044   1.366   1.773  0.2801  0.1467 -0.3886
17520TIP3    H173975   0.052   1.374   1.678 -2.3164  2.3066 -0.5284
17520TIP3    H273976  -0.018   1.293   1.785 -1.0259  1.1945 -0.5081
17521TIP3   OH273977   0.658   0.039   1.250  0.8146  0.2375  0.0710
17521TIP3    H173978   0.664   0.025   1.345  0.1673  2.2543  0.4735
17521TIP3    H273979   0.571   0.006   1.226  0.3957  1.0145  0.4723
17522TIP3   OH273980   6.133   0.840   0.663 -0.7276  0.1545  0.6027
17522TIP3    H173981   6.158   0.889   0.584 -0.6977  0.6234  0.8949
17522TIP3    H273982   6.038   0.850   0.668 -0.5922  1.2513  1.3389
17523TIP3   OH273983   2.302   3.946   3.389  0.1748 -0.0650  0.3678
17523TIP3    H173984   2.248   3.995   3.451  0.2048 -1.0474  1.2142
17523TIP3    H273985   2.374   4.005   3.367 -1.1802  1.2494 -0.7420
17524TIP3   OH273986   5.004   1.578  12.294  0.5311 -0.0697  0.1232
17524TIP3    H173987   4.916   1.570  12.256 -0.5083  2.2593  1.8555
17524TIP3    H273988   5.002   1.658  12.345  3.3041 -0.6252  1.3056
17525TIP3   OH273989   1.979   5.761  16.665 -0.5124  0.4853  0.1865
17525TIP3    H173990   2.059   5.804  16.632 -2.6331  2.1727 -3.2696
17525TIP3    H273991   1.924   5.834  16.695 -1.7645 -0.3969  0.0970
17526TIP3   OH273992   3.800   0.246  14.012 -0.0886 -0.7463  0.0651
17526TIP3    H173993   3.753   0.317  14.055 -0.1807 -0.4631 -0.4905
17526TIP3    H273994   3.881   0.287  13.981 -1.0110 -0.3666 -2.0044
17527TIP3   OH273995   0.281   2.102   0.506 -0.5813 -0.1247 -0.1373
17527TIP3    H173996   0.238   2.024   0.542 -0.3722  0.6027  1.8348
17527TIP3    H273997   0.366   2.070   0.475 -1.1257 -0.9409 -0.8647
17528TIP3   OH273998   5.543   6.554   6.244  0.4030 -0.1704 -0.1172
17528TIP3    H173999   5.630   6.554   6.283  0.5450 -1.7657 -0.3626
17528TIP3    H274000   5.537   6.638   6.197  1.5119  0.2702  0.5025
17529TIP3   OH274001   5.167   2.102  16.286 -0.1396  0.1783 -0.2466
17529TIP3    H174002   5.164   2.170  16.353 -2.2751 -1.7102  1.7592
17529TIP3    H274003   5.249   2.054  16.304  0.2363  0.8222 -0.2176
17530TIP3   OH274004   5.586   2.112  12.446  0.3272 -0.2022 -0.0871
17530TIP3    H174005   5.585   2.021  12.475  0.4408  0.1275  0.9772
17530TIP3    H274006   5.629   2.109  12.360 -1.8135 -1.4504 -1.2068
17531TIP3   OH274007   6.188   0.466  13.146 -0.0728  0.0441 -0.1058
17531TIP3    H174008   6.116   0.403  13.148  1.0793 -1.3005 -0.1552
17531TIP3    H274009   6.207   0.484  13.238 -0.9502  1.0059 -0.0892
17532TIP3   OH274010   4.246   5.827  16.029  0.0844 -0.5169 -0.0338
17532TIP3    H174011   4.184   5.761  16.060 -0.6042  0.7467  1.4234
17532TIP3    H274012   4.193   5.906  16.017  1.1113  0.1301 -0.4948
17533TIP3   OH274013   3.542   1.615   6.396  0.1890  0.2620 -0.3724
17533TIP3    H174014   3.518   1.542   6.339 -0.8620 -0.0338  0.4271
17533TIP3    H274015   3.521   1.693   6.346 -1.3136  0.0044 -0.1764
17534TIP3   OH274016   3.907   5.388  13.236 -0.3671 -0.0481 -0.7499
17534TIP3    H174017   3.970   5.344  13.179  0.3930  0.3875 -0.2576
17534TIP3    H274018   3.959   5.450  13.287 -0.8792 -0.9966  1.0279
17535TIP3   OH274019   3.879   0.677   4.236  0.0087 -0.2164  0.5763
17535TIP3    H174020   3.815   0.721   4.181  1.1993 -0.8404 -1.3965
17535TIP3    H274021   3.854   0.585   4.233  0.7512 -0.4042  0.1516
17536TIP3   OH274022   2.645   3.232  13.973  0.3055  0.1570  0.2162
17536TIP3    H174023   2.719   3.254  14.029 -0.0020 -0.3022  0.8154
17536TIP3    H274024   2.568   3.239  14.030 -0.0297 -0.1599 -0.1847
17537TIP3   OH274025   6.712   6.705   1.885  0.1260  0.2109  0.1924
17537TIP3    H174026   6.798   6.675   1.916 -0.5089 -2.1644 -0.1126
17537TIP3    H274027   6.650   6.668   1.948 -0.7765  0.6610 -0.4117
17538TIP3   OH274028   5.956   3.039  17.395 -0.2088 -0.4920 -0.2013
17538TIP3    H174029   5.978   3.004  17.308 -2.0922 -0.9233 -0.5423
17538TIP3    H274030   5.925   3.128  17.378 -0.7369 -0.6346  0.0103
17539TIP3   OH274031   5.255   0.572   3.641  0.0090 -0.0635 -0.1445
17539TIP3    H174032   5.290   0.612   3.720 -1.4850  3.0925 -0.8999
17539TIP3    H274033   5.160   0.584   3.648 -0.4062 -2.1874 -1.2168
17540TIP3   OH274034   5.587   1.802  13.071 -0.4298  0.1502  0.1883
17540TIP3    H174035   5.637   1.770  12.996 -0.4534  1.0989 -0.2490
17540TIP3    H274036   5.557   1.723  13.116  0.8214 -0.4312  0.0274
17541TIP3   OH274037   1.746   4.050   3.962  0.1568  0.2322  0.5513
17541TIP3    H174038   1.840   4.034   3.950  0.4831  2.5327 -0.4114
17541TIP3    H274039   1.706   4.021   3.880  0.1302  0.1062  0.6079
17542TIP3   OH274040   0.537   3.462   5.161 -1.3535 -0.1530  0.4243
17542TIP3    H174041   0.452   3.424   5.140 -0.8223 -0.1564 -2.0695
17542TIP3    H274042   0.594   3.386   5.173 -1.4608 -0.1493  0.9602
17543TIP3   OH274043   2.531   3.957   0.467 -0.4904  0.6244 -0.1116
17543TIP3    H174044   2.602   3.954   0.531  0.0577  0.3876 -0.7213
17543TIP3    H274045   2.574   3.941   0.383 -1.1586  1.1777 -0.5728
17544TIP3   OH274046   0.135   0.386  17.142  0.0385  0.3218 -0.7513
17544TIP3    H174047   0.089   0.427  17.215 -1.1964 -1.0587 -0.7109
17544TIP3    H274048   0.193   0.322  17.184  0.1629  0.3271 -0.9170
17545TIP3   OH274049   0.881   5.798  16.271  0.6839  0.0194  0.4046
17545TIP3    H174050   0.808   5.737  16.279 -1.2014  2.2549  1.2522
17545TIP3    H274051   0.840   5.881  16.247  3.1710  0.9320 -1.0485
17546TIP3   OH274052   1.131   5.637  14.340  0.3777 -0.3736  0.3154
17546TIP3    H174053   1.036   5.644  14.347  0.4780  0.8201  0.7286
17546TIP3    H274054   1.160   5.727  14.323  1.5517 -0.4653  1.6782
17547TIP3   OH274055   4.246   1.854  12.620  0.0303 -0.2560  0.5228
17547TIP3    H174056   4.235   1.769  12.577  1.8444 -0.3362  0.1323
17547TIP3    H274057   4.181   1.910  12.579 -0.8832 -1.3344  0.4477
17548TIP3   OH274058   3.458   0.680   0.709  0.8928  0.1378  0.4512
17548TIP3    H174059   3.551   0.698   0.721  1.7844 -2.9664 -0.8534
17548TIP3    H274060   3.444   0.597   0.754 -1.4034  0.7493  0.9886
17549TIP3   OH274061   2.058   3.668  14.990  0.2071 -0.3853 -0.1880
17549TIP3    H174062   2.102   3.716  14.920  0.4410 -2.9690 -1.9544
17549TIP3    H274063   2.119   3.670  15.063  0.0378  2.2161 -0.0109
17550TIP3   OH274064   5.193   1.486  11.159 -0.3042 -0.5099  0.6826
17550TIP3    H174065   5.223   1.397  11.139 -0.3853 -0.4081  0.0952
17550TIP3    H274066   5.274   1.534  11.179  0.0916 -0.0287 -1.6845
17551TIP3   OH274067   0.214   1.708   5.295 -0.4774 -0.7989  0.0462
17551TIP3    H174068   0.185   1.762   5.368  0.9800 -2.1351  1.7232
17551TIP3    H274069   0.147   1.719   5.228 -1.7920  0.6089  1.5167
17552TIP3   OH274070   3.131   0.044   2.347  0.3783 -0.2564 -0.8458
17552TIP3    H174071   3.053   0.003   2.310 -0.7785 -0.1442  1.2657
17552TIP3    H274072   3.182  -0.029   2.382  0.7918 -0.2560 -1.4327
17553TIP3   OH274073   3.530   2.320  14.346  0.5423 -0.0125  0.0738
17553TIP3    H174074   3.621   2.324  14.317  0.8914  1.8221  1.2357
17553TIP3    H274075   3.480   2.298  14.268  1.9438 -0.6770 -0.6626
17554TIP3   OH274076   0.892   4.197  13.035 -0.2971  0.5068 -0.3651
17554TIP3    H174077   0.857   4.109  13.047 -1.8607  1.0079 -1.0067
17554TIP3    H274078   0.905   4.206  12.941  3.5441 -0.3142 -0.1064
17555TIP3   OH274079   1.645   3.600  11.175 -0.0682 -0.6458  0.1318
17555TIP3    H174080   1.561   3.559  11.153 -0.2802 -0.0375 -0.2354
17555TIP3    H274081   1.700   3.584  11.098 -0.4806  0.6169 -0.4418
17556TIP3   OH274082   1.397   6.695   0.564 -0.0425 -0.1103 -0.5138
17556TIP3    H174083   1.429   6.604   0.570  1.1428  0.1839 -1.8003
17556TIP3    H274084   1.374   6.706   0.472  0.1075  0.9943 -0.4278
17557TIP3   OH274085   1.016   2.996  15.262  0.1068  0.5432 -0.4371
17557TIP3    H174086   0.995   2.949  15.181 -0.5819  1.9200 -1.1027
17557TIP3    H274087   1.111   2.995  15.266  0.2081  1.4439 -1.9076
17558TIP3   OH274088   1.572   4.183  14.995 -0.3057 -0.6173  0.3780
17558TIP3    H174089   1.547   4.274  15.012  0.3085 -0.3938  0.1394
17558TIP3    H274090   1.667   4.182  15.011 -0.0426 -0.8549 -1.0522
17559TIP3   OH274091   1.491   0.190  12.655 -0.0818  1.0536 -0.3881
17559TIP3    H174092   1.424   0.231  12.600 -1.6691 -1.2768 -0.3589
17559TIP3    H274093   1.533   0.126  12.597  0.3824  0.7571  0.2620
17560TIP3   OH274094   1.650   0.723  15.074 -0.2479  0.0510  0.1883
17560TIP3    H174095   1.705   0.797  15.101 -0.1883 -0.0992  0.4785
17560TIP3    H274096   1.687   0.648  15.120 -0.4293 -0.1256  0.0441
17561TIP3   OH274097   4.339   4.081  10.972  0.4476  0.0427 -0.1513
17561TIP3    H174098   4.347   4.075  10.877  1.4241 -0.7658 -0.0429
17561TIP3    H274099   4.254   4.042  10.992  0.6357 -0.6295 -0.6273
17562TIP3   OH274100   5.152   0.482   5.400  0.2598  0.3303  0.4022
17562TIP3    H174101   5.212   0.412   5.375  0.2364  0.4304  0.0588
17562TIP3    H274102   5.160   0.547   5.330 -1.8607 -0.6404 -0.8485
17563TIP3   OH274103   4.465   3.937  11.958  0.2893  0.1994 -0.6295
17563TIP3    H174104   4.434   3.846  11.961  3.3027 -0.9315 -0.7864
17563TIP3    H274105   4.512   3.949  12.041  0.2825  1.4951 -0.7922
17564TIP3   OH274106   2.637   3.422  11.612 -0.7309 -0.0704  0.0906
17564TIP3    H174107   2.593   3.359  11.669  1.9427 -2.9152 -0.6877
17564TIP3    H274108   2.709   3.456  11.666 -0.8170  0.5996 -0.2081
17565TIP3   OH274109   2.772   1.080   4.982  0.4403  1.0112  0.1642
17565TIP3    H174110   2.711   1.066   5.054 -1.8766 -0.9519 -1.9551
17565TIP3    H274111   2.848   1.027   5.005 -0.9409 -0.9598  0.5136
17566TIP3   OH274112   5.718   3.103   2.476 -0.8340 -0.5213 -0.8295
17566TIP3    H174113   5.807   3.120   2.443 -0.1511 -1.1908  0.5827
17566TIP3    H274114   5.709   3.008   2.471 -1.1876 -0.5180 -0.3113
17567TIP3   OH274115   3.712   4.030  12.780 -0.1344 -0.0052  0.1607
17567TIP3    H174116   3.617   4.015  12.780 -0.1473 -0.3148 -2.2453
17567TIP3    H274117   3.749   3.949  12.745  1.1096 -0.1688  1.7752
17568TIP3   OH274118   1.656   1.944  10.826  0.0650  0.3327  0.1064
17568TIP3    H174119   1.722   1.968  10.891 -0.1228  1.8894 -0.2460
17568TIP3    H274120   1.699   1.956  10.742 -0.0394 -0.6246 -0.1008
17569TIP3   OH274121   1.082   1.231   3.886 -0.6232 -0.4817  0.6718
17569TIP3    H174122   0.992   1.231   3.855 -1.3809 -0.0968  2.7364
17569TIP3    H274123   1.084   1.298   3.955  1.2176 -0.5531  0.7431
17570TIP3   OH274124   5.359   6.105   6.491 -0.1539 -0.3208  0.1635
17570TIP3    H174125   5.278   6.117   6.441 -0.4578 -0.5732  0.5924
17570TIP3    H274126   5.333   6.114   6.582  0.5687  1.1100  0.2541
17571TIP3   OH274127   0.293   2.870   2.479 -0.0920 -0.3788 -0.0773
17571TIP3    H174128   0.373   2.822   2.502 -0.2301 -1.1744 -1.1934
17571TIP3    H274129   0.237   2.805   2.437 -1.9966 -0.2147  2.0136
17572TIP3   OH274130   4.583   6.299   4.034  0.2744  0.4409  0.0881
17572TIP3    H174131   4.505   6.319   4.084  0.5475 -0.8597  1.0787
17572TIP3    H274132   4.656   6.320   4.092  0.6206 -0.0960 -0.1419
17573TIP3   OH274133   5.578   4.279  12.949 -0.3551  0.1909 -0.1869
17573TIP3    H174134   5.554   4.191  12.980 -0.3360 -0.0161 -0.7500
17573TIP3    H274135   5.556   4.337  13.022 -2.1615 -0.0403 -0.5043
17574TIP3   OH274136   3.201   5.046   2.271 -1.0696  0.4630 -0.0633
17574TIP3    H174137   3.274   4.995   2.237 -2.0900  0.7162 -2.8539
17574TIP3    H274138   3.222   5.137   2.249 -1.7308  0.6486  0.0286
17575TIP3   OH274139   1.973   3.818  12.496 -0.1719 -0.3316  0.0928
17575TIP3    H174140   2.036   3.864  12.440 -1.3111  0.0744 -0.9083
17575TIP3    H274141   2.002   3.837  12.585  1.7414 -1.0563 -0.3258
17576TIP3   OH274142   1.316   3.459   2.121  0.4255  0.7243 -0.3094
17576TIP3    H174143   1.321   3.389   2.186 -1.7077  0.4543 -0.3567
17576TIP3    H274144   1.406   3.474   2.095  0.9734 -2.1916 -0.4730
17577TIP3   OH274145   4.930   5.873  15.913 -0.1221  0.5356 -0.7994
17577TIP3    H174146   4.951   5.848  16.003 -0.1117 -2.4713 -1.5212
17577TIP3    H274147   4.838   5.899  15.916 -1.1040 -2.5871 -0.3190
17578TIP3   OH274148   2.890   1.365   0.996 -0.0458 -0.6627 -0.3078
17578TIP3    H174149   2.906   1.416   1.076 -0.6974 -0.2045 -0.4641
17578TIP3    H274150   2.948   1.290   1.005  2.9667  1.3482 -1.3079
17579TIP3   OH274151   3.161   5.894  15.532 -0.3983  0.4009 -0.0127
17579TIP3    H174152   3.202   5.840  15.464  0.4720 -0.6440  1.3023
17579TIP3    H274153   3.160   5.983  15.495  2.6692  0.4135 -0.3041
17580TIP3   OH274154   5.466   6.673  14.946  0.2093 -0.0215 -0.6638
17580TIP3    H174155   5.527   6.600  14.934 -0.7903 -0.7517 -1.4928
17580TIP3    H274156   5.488   6.735  14.876  2.0318  1.2334  0.9066
17581TIP3   OH274157   0.435   0.720  17.083 -0.3445  0.2035  0.6726
17581TIP3    H174158   0.357   0.741  17.031 -0.4999  0.9116  1.1773
17581TIP3    H274159   0.482   0.654  17.031  0.8243  2.6624 -1.6788
17582TIP3   OH274160   4.742   4.065   5.779  0.0929  0.0113  0.1806
17582TIP3    H174161   4.743   4.132   5.711 -0.7316 -0.1037  0.0498
17582TIP3    H274162   4.665   4.085   5.831  0.5361 -0.1005  0.8932
17583TIP3   OH274163   3.417   4.658  13.103 -0.4737 -0.5013 -0.5145
17583TIP3    H174164   3.499   4.650  13.152 -1.0869 -1.0977  0.4320
17583TIP3    H274165   3.379   4.740  13.134 -0.6034 -0.6097 -0.3868
17584TIP3   OH274166   6.222   6.655   2.181 -0.1816  0.5210  0.3844
17584TIP3    H174167   6.168   6.722   2.223 -1.1361 -0.5675  0.9094
17584TIP3    H274168   6.310   6.670   2.218 -0.6646  0.6199  1.5514
17585TIP3   OH274169   6.036   0.947   1.782  0.5666  0.7693  0.3210
17585TIP3    H174170   6.104   0.885   1.806 -0.6164  0.0022  1.8703
17585TIP3    H274171   6.037   1.012   1.852 -0.5821  0.4860  0.6237
17586TIP3   OH274172   1.977   0.620   0.980  0.6034 -0.7141 -0.0869
17586TIP3    H174173   2.031   0.690   1.019 -1.0095  0.3901  0.2631
17586TIP3    H274174   1.994   0.544   1.035  0.9375 -0.0752  0.7278
17587TIP3   OH274175   6.184   5.172  15.489 -0.1113  0.2973 -0.7903
17587TIP3    H174176   6.274   5.149  15.464  0.1278  0.9740 -0.5842
17587TIP3    H274177   6.195   5.240  15.556 -0.7987  1.3696 -1.7415
17588TIP3   OH274178   2.382   1.593   6.445  0.1231 -0.0935 -0.2997
17588TIP3    H174179   2.439   1.535   6.495 -0.4989 -0.2359  0.2545
17588TIP3    H274180   2.349   1.655   6.509  0.8041  0.9102 -0.8876
17589TIP3   OH274181   3.969   4.226  16.959  0.0121  0.3127  0.0936
17589TIP3    H174182   3.885   4.271  16.951 -0.2174 -0.1533 -0.1438
17589TIP3    H274183   4.029   4.278  16.906 -0.1037  0.7070  0.3514
17590TIP3   OH274184   3.012   6.333   0.739 -0.1083  0.6558  0.0249
17590TIP3    H174185   3.044   6.259   0.688 -0.7539  0.5362 -0.2159
17590TIP3    H274186   3.091   6.373   0.776  0.3068  0.3442 -0.5163
17591TIP3   OH274187   4.017   1.347  12.844  0.0324 -0.2599  0.3630
17591TIP3    H174188   4.088   1.334  12.782  0.8081 -0.6291  1.3021
17591TIP3    H274189   3.979   1.259  12.856 -1.1159  0.0564 -0.7261
17592TIP3   OH274190   0.138   4.487  11.721  0.0421  0.2499 -0.4682
17592TIP3    H174191   0.050   4.463  11.750 -0.5142  0.7351 -1.7017
17592TIP3    H274192   0.196   4.443  11.783 -1.0812  0.6979  0.9594
17593TIP3   OH274193   5.603   4.487   0.882 -0.4630  0.3549 -0.6563
17593TIP3    H174194   5.546   4.536   0.942  1.1804  0.4064  0.9747
17593TIP3    H274195   5.692   4.508   0.912  0.3622 -1.2936 -1.8160
17594TIP3   OH274196   4.387   2.148   2.578  0.3831 -0.3734  0.7554
17594TIP3    H174197   4.343   2.233   2.569 -1.0743 -0.9309  2.0966
17594TIP3    H274198   4.385   2.111   2.490  0.4864  0.7204  0.2749
17595TIP3   OH274199   0.380   3.501  12.101  0.5349  0.0563  0.5498
17595TIP3    H174200   0.439   3.488  12.175 -0.2258 -2.3099  0.8077
17595TIP3    H274201   0.418   3.449  12.030  0.0103  0.4166 -0.0109
17596TIP3   OH274202   1.453   1.008   5.833 -0.1502 -0.3100 -0.8425
17596TIP3    H174203   1.467   0.929   5.886 -1.0893 -0.4902 -0.8576
17596TIP3    H274204   1.363   1.001   5.803 -0.7035  1.4461  0.2894
17597TIP3   OH274205   5.380   5.237   5.493 -0.7248 -0.1999  0.5640
17597TIP3    H174206   5.394   5.144   5.477 -3.0855 -0.3621 -1.2796
17597TIP3    H274207   5.419   5.280   5.417 -1.4006  0.1071  0.3773
17598TIP3   OH274208   4.634   0.032   3.462 -0.3699  0.1903 -0.2775
17598TIP3    H174209   4.686   0.111   3.445  1.3341 -0.8768 -0.2876
17598TIP3    H274210   4.681  -0.012   3.533 -2.3496  0.0781  1.0510
17599TIP3   OH274211   6.301   1.373   5.687  0.0122  0.1213  0.3446
17599TIP3    H174212   6.235   1.438   5.664 -0.3573 -0.9853 -1.9375
17599TIP3    H274213   6.368   1.423   5.735 -1.3307  1.6968  0.6583
17600TIP3   OH274214   6.072   5.237  16.320 -0.3161  0.6009 -0.3605
17600TIP3    H174215   6.026   5.229  16.236  0.3277 -2.3422 -0.5432
17600TIP3    H274216   6.013   5.198  16.384 -0.0453  1.1939  0.2683
17601TIP3   OH274217   0.133   4.984   2.885  0.2114  0.1795  0.0441
17601TIP3    H174218   0.038   4.982   2.872  0.0908  0.8526  0.7524
17601TIP3    H274219   0.163   5.058   2.833  0.2276  0.4987  0.4989
17602TIP3   OH274220   3.497   3.484   2.884 -0.1029 -0.4579  0.0693
17602TIP3    H174221   3.440   3.556   2.914 -0.5839 -0.7631 -0.1155
17602TIP3    H274222   3.463   3.459   2.799  0.5913 -0.3420 -0.2528
17603TIP3   OH274223   4.626   1.125  12.473 -0.0994 -0.1255 -0.4260
17603TIP3    H174224   4.720   1.119  12.455  0.0873  0.0160  0.4581
17603TIP3    H274225   4.620   1.124  12.569 -0.9017  1.0685 -0.4405
17604TIP3   OH274226   6.102   0.977  14.460  0.0565 -0.4606  0.1623
17604TIP3    H174227   6.043   0.981  14.535  0.4008 -1.1460  0.4815
17604TIP3    H274228   6.129   0.885  14.455  2.3988  0.1053  1.0395
17605TIP3   OH274229   6.017   0.641   3.219 -0.7010  0.2997  0.4096
17605TIP3    H174230   6.036   0.735   3.227 -1.8956  0.7845 -1.5407
17605TIP3    H274231   5.922   0.636   3.227 -0.7569 -0.5815 -0.6511
17606TIP3   OH274232   3.703   4.247   6.440 -0.1478 -0.8469  0.0722
17606TIP3    H174233   3.707   4.337   6.407  0.0491 -0.8705  0.0302
17606TIP3    H274234   3.622   4.244   6.491 -0.8131 -0.9958 -0.9538
17607TIP3   OH274235   0.863   0.381   4.703 -0.1981  0.6403 -0.0699
17607TIP3    H174236   0.777   0.357   4.737 -0.4923  0.2677 -1.0430
17607TIP3    H274237   0.870   0.334   4.620  1.1992  0.1804  0.2763
17608TIP3   OH274238   4.994   1.515   1.812 -0.2241  0.3592  0.2434
17608TIP3    H174239   4.923   1.490   1.753 -0.6533  0.1558  0.8364
17608TIP3    H274240   5.046   1.435   1.821  0.0685  0.4976 -0.1600
17609TIP3   OH274241   1.659   4.793  13.793 -0.0266  0.2983  0.7383
17609TIP3    H174242   1.730   4.756  13.845  0.7584  0.2295 -0.3400
17609TIP3    H274243   1.657   4.886  13.815  0.5970  0.3529  0.5657
17610TIP3   OH274244   6.150   0.833   6.165  0.3233 -1.0221 -0.3117
17610TIP3    H174245   6.186   0.809   6.250 -1.3616 -0.0355  0.7304
17610TIP3    H274246   6.055   0.837   6.179  0.1483  1.2525 -1.6679
17611TIP3   OH274247   0.385   1.747   6.513 -0.1116  0.1731  0.1758
17611TIP3    H174248   0.366   1.820   6.572  0.3120 -1.4198  2.4375
17611TIP3    H274249   0.303   1.697   6.509  0.5326 -1.0502  1.4661
17612TIP3   OH274250   3.220   1.503  16.550  0.0928  1.0424  0.4298
17612TIP3    H174251   3.209   1.499  16.455 -0.9125 -3.5619  0.5182
17612TIP3    H274252   3.167   1.578  16.577 -1.9860  0.7781 -2.4394
17613TIP3   OH274253   4.646   6.545   2.454 -0.5729 -0.4404  0.5752
17613TIP3    H174254   4.739   6.528   2.468 -0.6746 -0.4332  1.3021
17613TIP3    H274255   4.621   6.603   2.526 -0.6894  1.2259 -0.7443
17614TIP3   OH274256   0.413   3.254  15.526 -0.1695 -0.6840 -0.7550
17614TIP3    H174257   0.326   3.225  15.498 -0.3203 -1.6648  0.6086
17614TIP3    H274258   0.403   3.274  15.619  0.3664  2.2183 -1.2548
17615TIP3   OH274259   3.184   2.159   5.809  0.5202 -0.0749 -0.0636
17615TIP3    H174260   3.209   2.125   5.724  0.3218  0.4648 -0.3409
17615TIP3    H274261   3.152   2.248   5.792 -0.7632 -0.4241  0.4045
17616TIP3   OH274262   3.928   2.160   5.837 -0.6221  0.0810 -0.4951
17616TIP3    H174263   4.004   2.174   5.780 -0.5813  1.0374 -0.2237
17616TIP3    H274264   3.947   2.078   5.883 -0.0816 -0.0525 -0.9426
17617TIP3   OH274265   2.230   4.749  14.941  0.0479 -0.4143 -0.3877
17617TIP3    H174266   2.184   4.667  14.959 -0.8990  0.1562 -0.0941
17617TIP3    H274267   2.232   4.755  14.846  1.0259 -1.2534 -0.4352
17618TIP3   OH274268   5.036   0.836  15.232  0.0051 -0.1737  0.3381
17618TIP3    H174269   5.122   0.803  15.205 -0.9020 -0.4481 -2.6186
17618TIP3    H274270   5.032   0.924  15.195 -1.2260 -0.4280 -0.1836
17619TIP3   OH274271   6.403   2.526  14.364 -0.0476  0.2419 -0.2492
17619TIP3    H174272   6.359   2.495  14.286 -2.2006 -0.6481  1.2310
17619TIP3    H274273   6.496   2.518  14.344 -0.5214  0.3024 -2.7704
17620TIP3   OH274274   1.960   0.802   1.831 -0.6342  0.1720  0.1232
17620TIP3    H174275   1.929   0.766   1.914  1.9616 -1.2251  0.5903
17620TIP3    H274276   1.965   0.727   1.773  1.0126  0.4704 -0.1534
17621TIP3   OH274277   0.286   6.030   6.513  0.3223 -0.4818 -0.0691
17621TIP3    H174278   0.315   5.972   6.443  0.5570 -0.2835 -0.1369
17621TIP3    H274279   0.264   6.112   6.469 -0.4823 -0.6741 -0.0382
17622TIP3   OH274280   3.141   1.140   5.775 -0.1517  0.2156 -0.2397
17622TIP3    H174281   3.166   1.059   5.731  0.4153  0.2669 -0.0202
17622TIP3    H274282   3.093   1.190   5.708 -1.7421 -0.8789  0.0349
17623TIP3   OH274283   5.539   0.765  17.386  0.2406  0.3868  0.2296
17623TIP3    H174284   5.581   0.679  17.390  0.9344  0.6759 -0.5346
17623TIP3    H274285   5.450   0.749  17.416  0.4290 -0.5465  0.3442
17624TIP3   OH274286   5.286   2.185  13.437  0.1452 -0.3902  0.8074
17624TIP3    H174287   5.343   2.233  13.377 -0.3021 -0.8370  0.0086
17624TIP3    H274288   5.312   2.094  13.427 -0.1888 -0.5108  1.0078
17625TIP3   OH274289   5.292   0.411   4.314  0.1720 -0.3660 -0.0668
17625TIP3    H174290   5.273   0.438   4.404 -2.0215 -1.8420 -0.0064
17625TIP3    H274291   5.270   0.318   4.312  3.0350 -1.1387 -1.4178
17626TIP3   OH274292   1.305   5.576   2.934 -0.2211 -0.2354 -0.1090
17626TIP3    H174293   1.397   5.587   2.909 -0.4850 -2.1765 -2.2524
17626TIP3    H274294   1.265   5.661   2.917  0.7695  0.0534 -1.0790
17627TIP3   OH274295   5.344   2.906  17.237  0.1808  0.2178 -0.1150
17627TIP3    H174296   5.277   2.886  17.172 -0.2053  0.6549  0.1445
17627TIP3    H274297   5.418   2.937  17.186  0.1148 -0.0716 -0.3905
17628TIP3   OH274298   1.234   5.334  11.873  0.0973  0.3761  0.5568
17628TIP3    H174299   1.174   5.263  11.851  1.4381 -1.4014  2.2371
17628TIP3    H274300   1.177   5.409  11.892 -1.3201  0.1351 -2.2473
17629TIP3   OH274301   0.825   1.856  12.687 -0.3509  0.6871  0.0597
17629TIP3    H174302   0.804   1.765  12.706  2.5938 -0.2686 -0.8299
17629TIP3    H274303   0.871   1.887  12.765  3.4774 -0.3957 -1.5385
17630TIP3   OH274304   3.200   5.423  16.681 -0.3223  0.2540  0.1361
17630TIP3    H174305   3.272   5.363  16.697  0.1966  0.9364  0.4418
17630TIP3    H274306   3.148   5.382  16.613  1.3518  0.5728 -1.4048
17631TIP3   OH274307   2.574   0.819  14.347  0.3330 -0.2214 -0.1548
17631TIP3    H174308   2.631   0.829  14.272  0.8511  0.9501  0.3735
17631TIP3    H274309   2.513   0.893  14.342  0.0305 -0.4317  0.2783
17632TIP3   OH274310   6.070   6.441   1.796  0.4671 -0.5933  0.2007
17632TIP3    H174311   6.081   6.510   1.731  1.8070 -1.0407 -0.0823
17632TIP3    H274312   5.996   6.470   1.849 -0.3029  0.0430 -1.1764
17633TIP3   OH274313   1.073   5.892  11.551  0.6197 -0.5685 -0.8451
17633TIP3    H174314   1.093   5.889  11.458  0.2883 -1.5708 -0.8936
17633TIP3    H274315   1.002   5.956  11.558  0.8573 -0.2590 -1.2309
17634TIP3   OH274316   0.729   3.389   0.501 -0.1347 -0.4035 -0.2953
17634TIP3    H174317   0.738   3.366   0.408  0.0445  0.3189 -0.4661
17634TIP3    H274318   0.819   3.383   0.535 -0.2830 -1.2295 -0.0226
17635TIP3   OH274319   1.906   3.347  11.309 -0.5042 -0.4792 -0.0089
17635TIP3    H174320   1.925   3.390  11.226 -3.1012 -1.5882 -1.2926
17635TIP3    H274321   1.953   3.264  11.304 -0.2814 -0.3437 -0.1663
17636TIP3   OH274322   2.449   4.080  16.859 -0.2349  0.4643 -0.1709
17636TIP3    H174323   2.465   4.170  16.884  2.4727 -0.4153  1.7334
17636TIP3    H274324   2.372   4.053  16.909  0.3958  1.0386  1.1284
17637TIP3   OH274325   5.765   5.545  14.104  0.0854  0.1825  0.3656
17637TIP3    H174326   5.743   5.632  14.137 -0.2556  0.5410 -0.7787
17637TIP3    H274327   5.746   5.486  14.177 -2.1121  0.7718  0.3161
17638TIP3   OH274328   3.287   0.843   4.298 -0.3819 -0.1526  0.7308
17638TIP3    H174329   3.313   0.879   4.213  0.5649 -0.5591  0.8279
17638TIP3    H274330   3.231   0.769   4.276 -0.5261  0.0309  0.4743
17639TIP3   OH274331   6.347   5.782   2.241 -0.5833  0.1374 -0.2891
17639TIP3    H174332   6.303   5.833   2.173 -0.1583  0.0762 -0.6146
17639TIP3    H274333   6.322   5.692   2.224 -0.7723  0.1591 -0.1372
17640TIP3   OH274334   4.621   0.019  14.944 -0.1651 -0.0228  0.5779
17640TIP3    H174335   4.543   0.051  14.988 -0.3063  0.2586  0.1259
17640TIP3    H274336   4.599   0.021  14.851  1.5842  3.5009  0.0857
17641TIP3   OH274337   1.764   6.353  11.345  0.4122  0.9803  0.5775
17641TIP3    H174338   1.721   6.311  11.271  2.0313  0.1652  0.0532
17641TIP3    H274339   1.759   6.447  11.327  0.1824  0.8211 -0.2126
17642TIP3   OH274340   4.305   6.493  15.764 -0.2690  0.0900  0.0737
17642TIP3    H174341   4.285   6.586  15.762  1.3093  0.4544 -0.6737
17642TIP3    H274342   4.347   6.479  15.850  0.8863  0.4127 -0.4205
17643TIP3   OH274343   0.976   3.365   5.869  0.6427  0.0799  0.7536
17643TIP3    H174344   1.042   3.303   5.901  1.0587 -0.9491 -1.8533
17643TIP3    H274345   0.984   3.361   5.773 -1.8973  1.3937  0.4107
17644TIP3   OH274346   3.306   4.381   1.872  0.1060  0.1850  0.5810
17644TIP3    H174347   3.251   4.303   1.876 -1.5846  1.1521 -1.5130
17644TIP3    H274348   3.395   4.348   1.875 -0.5574 -1.8536 -0.2394
17645TIP3   OH274349   5.994   2.521  16.441 -0.3430  0.3992 -0.2875
17645TIP3    H174350   5.963   2.611  16.458  1.6684  1.3814 -1.4729
17645TIP3    H274351   5.915   2.467  16.448 -2.1838  2.6001 -2.1702
17646TIP3   OH274352   3.053   2.969  11.413  0.2177  0.1317  0.2635
17646TIP3    H174353   3.057   2.941  11.504 -0.5436 -0.6368  0.0739
17646TIP3    H274354   2.996   3.046  11.414 -2.5040 -1.7395  0.0568
17647TIP3   OH274355   6.466   1.162  16.974 -0.1155  0.2552  0.1504
17647TIP3    H174356   6.467   1.257  16.969 -1.5358  0.3967  1.5203
17647TIP3    H274357   6.503   1.142  17.060  2.0430 -0.5785 -0.9006
17648TIP3   OH274358   3.008   4.944  13.111 -0.5407  0.0268  0.5718
17648TIP3    H174359   3.066   4.894  13.053  0.4086  0.5440  1.0502
17648TIP3    H274360   2.921   4.934  13.072 -0.3855 -1.9569  0.6381
17649TIP3   OH274361   4.061   5.737  13.534  0.2470 -0.4951 -0.4930
17649TIP3    H174362   4.135   5.729  13.593 -1.0119  0.8356  1.3611
17649TIP3    H274363   3.987   5.702  13.583 -0.9571  1.1848 -1.0092
17650TIP3   OH274364   3.816   5.324  14.274 -0.6055 -0.4296  0.0655
17650TIP3    H174365   3.773   5.276  14.203  2.8047 -0.7160 -1.9928
17650TIP3    H274366   3.844   5.406  14.235  2.6700 -1.1984  0.4991
17651TIP3   OH274367   3.198   6.517   3.004 -0.4425  0.0357  0.3109
17651TIP3    H174368   3.191   6.584   2.936  0.1943  1.3917  1.5394
17651TIP3    H274369   3.149   6.552   3.078 -0.9199 -1.3129  0.6747
17652TIP3   OH274370   3.731   1.039   3.272  0.1180  0.1335 -0.1796
17652TIP3    H174371   3.710   1.006   3.360  2.3676 -0.2855  0.2554
17652TIP3    H274372   3.744   0.961   3.219  0.6009  0.3579 -0.3984
17653TIP3   OH274373   1.685   1.938  11.855  0.0660  0.4189 -0.1304
17653TIP3    H174374   1.770   1.953  11.895  0.8693 -1.5547 -1.0083
17653TIP3    H274375   1.649   2.026  11.842  1.1248  1.2237  1.9464
17654TIP3   OH274376   5.994   4.203  17.012 -0.4501  0.6731 -0.0587
17654TIP3    H174377   5.950   4.125  17.044  2.2732 -2.0549 -2.3716
17654TIP3    H274378   5.949   4.225  16.930 -0.8120  1.2016  0.2711
17655TIP3   OH274379   2.430   2.284   2.013  0.3006  0.0182  0.0730
17655TIP3    H174380   2.515   2.281   2.057 -0.0789  0.2954  0.8640
17655TIP3    H274381   2.390   2.199   2.032 -0.4887  0.6912  1.6108
17656TIP3   OH274382   0.726   2.557  11.559 -0.2060 -0.0636  0.8630
17656TIP3    H174383   0.698   2.520  11.475  1.9241  0.8372 -0.3148
17656TIP3    H274384   0.741   2.649  11.541  2.9091 -0.3504  1.4650
17657TIP3   OH274385   0.291   3.420   6.317 -0.5673 -0.4086  0.1348
17657TIP3    H174386   0.215   3.426   6.376 -0.1126 -1.5806  0.8585
17657TIP3    H274387   0.367   3.430   6.374 -0.1210  2.2095 -0.7581
17658TIP3   OH274388   5.693   1.856  12.758 -0.5658  0.2380 -0.5744
17658TIP3    H174389   5.686   1.862  12.663 -1.9768 -0.9018 -0.5905
17658TIP3    H274390   5.712   1.945  12.787  0.7224  0.4377 -1.9697
17659TIP3   OH274391   1.313   3.543   1.210 -0.5416  0.4164  0.0292
17659TIP3    H174392   1.359   3.557   1.293 -1.1963  1.0219  0.3023
17659TIP3    H274393   1.381   3.519   1.148 -0.1582 -1.0727  0.9812
17660TIP3   OH274394   4.205   2.630  13.763 -0.1582 -0.0134  0.1986
17660TIP3    H174395   4.171   2.694  13.825 -0.8730 -0.3373  0.1567
17660TIP3    H274396   4.191   2.545  13.806  0.9378 -0.1335  0.3274
17661TIP3   OH274397   1.506   3.152   0.635 -0.0293 -0.3201 -0.1666
17661TIP3    H174398   1.422   3.168   0.592  0.1621 -1.4432 -1.0048
17661TIP3    H274399   1.537   3.239   0.660  0.8440  0.7231 -4.2307
17662TIP3   OH274400   4.816   0.474  15.219 -0.1942 -0.1204  0.0213
17662TIP3    H174401   4.897   0.469  15.167 -1.3321 -2.7858 -1.7052
17662TIP3    H274402   4.808   0.388  15.260 -0.7441  1.0562  2.5841
17663TIP3   OH274403   6.408   0.853   2.125 -0.0441  0.9480  0.0656
17663TIP3    H174404   6.373   0.942   2.113  2.0819  1.7669 -0.4750
17663TIP3    H274405   6.501   0.866   2.144  0.1081 -1.1425  0.9866
17664TIP3   OH274406   1.019   4.725   4.858 -0.4306  0.2746 -0.2480
17664TIP3    H174407   1.102   4.683   4.882  0.6784  0.5104 -3.2703
17664TIP3    H274408   0.961   4.653   4.834 -1.1436  0.1146  1.7905
17665TIP3   OH274409   6.322   3.909  14.535 -0.1927  0.5778 -0.1028
17665TIP3    H174410   6.341   3.888  14.444 -1.2775 -0.2373 -0.1596
17665TIP3    H274411   6.388   3.975  14.559  1.8354 -1.1731 -0.6237
17666TIP3   OH274412   2.460   3.883  16.500 -0.5117 -0.4499 -0.2368
17666TIP3    H174413   2.553   3.898  16.519 -0.8306  0.1852  0.9404
17666TIP3    H274414   2.419   3.969  16.514 -1.5108 -1.0822  0.9004
17667TIP3   OH274415   1.149   3.895  14.167 -1.0674  0.3869  0.3719
17667TIP3    H174416   1.200   3.878  14.087  0.9790  3.6598  0.8061
17667TIP3    H274417   1.070   3.938  14.135 -1.5647 -0.7312  0.0092
17668TIP3   OH274418   2.490   0.032  17.007 -0.1179  0.1170 -0.1001
17668TIP3    H174419   2.459   0.091  16.939  2.3168 -0.2059 -1.6093
17668TIP3    H274420   2.522  -0.044  16.960  0.2024 -0.8113  1.5475
17669TIP3   OH274421   4.369   5.334   3.865  0.8182 -0.3603 -0.3655
17669TIP3    H174422   4.288   5.347   3.816  0.2249  0.9117  0.9101
17669TIP3    H274423   4.420   5.274   3.810  0.1400  0.8876 -2.4584
17670TIP3   OH274424   1.133   6.210  15.307  0.2356 -0.4527  0.2255
17670TIP3    H174425   1.130   6.119  15.276  0.4928 -0.4765  0.2720
17670TIP3    H274426   1.065   6.254  15.256 -0.0026 -0.7065  0.3185
17671TIP3   OH274427   2.568   3.384  12.725  0.2960 -0.5207  0.2332
17671TIP3    H174428   2.613   3.338  12.796  2.8180  0.0423 -0.9233
17671TIP3    H274429   2.634   3.395  12.657 -0.8890  2.5264 -0.5897
17672TIP3   OH274430   5.517   1.467   1.644  0.3214 -0.0180  0.3978
17672TIP3    H174431   5.566   1.518   1.581 -1.0529  0.0415 -0.6714
17672TIP3    H274432   5.429   1.504   1.642 -0.8453 -2.5995 -0.7063
17673TIP3   OH274433   5.012   3.580  16.663  0.4637 -0.3625 -0.7344
17673TIP3    H174434   5.016   3.636  16.741 -0.4513 -1.0155 -0.2041
17673TIP3    H274435   5.045   3.636  16.592  1.3968  0.2133  0.1208
17674TIP3   OH274436   2.840   2.189   4.260  0.3407  0.3235 -0.1829
17674TIP3    H174437   2.898   2.217   4.331 -1.3197 -2.1924  2.4226
17674TIP3    H274438   2.765   2.249   4.265  0.7590  0.8985 -0.6654
17675TIP3   OH274439   2.931   3.506  14.292  0.0062 -0.5292  0.0859
17675TIP3    H174440   2.873   3.561  14.345 -0.2776  1.1299 -1.8148
17675TIP3    H274441   2.910   3.416  14.319 -0.4687  0.1893  2.3569
17676TIP3   OH274442   5.131   2.919   4.643 -0.0907 -0.1419 -0.1511
17676TIP3    H174443   5.086   2.894   4.562 -1.2246 -2.4790  1.0731
17676TIP3    H274444   5.108   3.011   4.656 -0.3687  0.1267 -2.1424
17677TIP3   OH274445   0.195   4.212   4.266  0.6288  0.4146  0.6959
17677TIP3    H174446   0.194   4.152   4.340 -1.0337  0.5974  0.8458
17677TIP3    H274447   0.136   4.283   4.291  1.1682  1.2131 -0.2205
17678TIP3   OH274448   6.295   2.773  17.382  0.1844 -0.5415  0.0786
17678TIP3    H174449   6.342   2.781  17.465  0.9742  1.1515 -0.4749
17678TIP3    H274450   6.210   2.737  17.405  0.5674 -0.5555  1.5525
17679TIP3   OH274451   5.928   3.424  10.365 -0.3937 -0.0319  0.0273
17679TIP3    H174452   5.956   3.333  10.372 -1.7245 -0.4216  0.5979
17679TIP3    H274453   5.908   3.437  10.273 -1.6936 -0.8036  0.1789
17680TIP3   OH274454   2.598   2.318   2.465 -0.5697 -0.0350  0.3176
17680TIP3    H174455   2.540   2.378   2.512  0.5751 -0.7716  2.7810
17680TIP3    H274456   2.686   2.352   2.481 -0.0021 -1.5933  0.6165
17681TIP3   OH274457   1.293   2.636   5.438 -0.1741 -0.2715  0.1156
17681TIP3    H174458   1.379   2.596   5.423  0.5206  0.5645  1.6762
17681TIP3    H274459   1.267   2.668   5.351  2.2193  1.5986 -0.0281
17682TIP3   OH274460   3.828   4.891  11.732  0.0873  0.2840  0.1702
17682TIP3    H174461   3.784   4.876  11.648  0.3834 -0.2825  0.1092
17682TIP3    H274462   3.791   4.824  11.790 -0.1457  0.7015  0.5044
17683TIP3   OH274463   4.238   3.077   3.563  0.2181  0.4247  0.0319
17683TIP3    H174464   4.167   3.061   3.625 -0.1867 -0.5044 -0.6542
17683TIP3    H274465   4.195   3.112   3.485  0.7193  1.5278  0.2320
17684TIP3   OH274466   0.496   2.679  15.876  0.1253 -0.2471  0.0230
17684TIP3    H174467   0.555   2.707  15.946 -0.6893 -1.2011  1.1241
17684TIP3    H274468   0.492   2.754  15.817  0.1229  0.9568  1.4767
17685TIP3   OH274469   6.451   0.109  14.918 -0.6088  0.4745 -0.8371
17685TIP3    H174470   6.356   0.100  14.919 -0.5250 -0.5263 -0.2266
17685TIP3    H274471   6.472   0.145  15.004 -0.3362 -0.7617 -0.3572
17686TIP3   OH274472   3.866   0.176   2.701 -0.2260  0.5608  0.0451
17686TIP3    H174473   3.825   0.107   2.753 -0.1431  0.6982  0.2943
17686TIP3    H274474   3.853   0.148   2.610  1.4727 -0.7708  0.1488
17687TIP3   OH274475   3.908   0.039  13.641  0.6092 -0.0500  0.2020
17687TIP3    H174476   3.916  -0.024  13.712  2.0466  0.9754  1.0087
17687TIP3    H274477   3.998   0.047  13.607  0.0211 -0.2231 -1.4863
17688TIP3   OH274478   4.747   3.245   0.285  0.3394 -0.1769  0.0237
17688TIP3    H174479   4.652   3.240   0.275  0.2328 -0.8485  1.2203
17688TIP3    H274480   4.762   3.333   0.320  0.0732 -0.3385  0.5635
17689TIP3   OH274481   6.015   0.899  17.011  0.4300  0.2784 -0.3396
17689TIP3    H174482   5.960   0.864  17.082  1.4242  1.1043  0.8785
17689TIP3    H274483   5.961   0.890  16.933 -0.4991 -1.1616  0.4253
17690TIP3   OH274484   0.212   0.179  11.800 -0.2622  0.2696  0.4076
17690TIP3    H174485   0.268   0.228  11.861 -0.1287  0.8325 -0.1546
17690TIP3    H274486   0.217   0.229  11.718  2.4447 -2.3318 -1.2260
17691TIP3   OH274487   3.476   3.101   2.105  0.2384  0.1240 -0.6497
17691TIP3    H174488   3.387   3.096   2.139  0.2839  1.2194 -0.3311
17691TIP3    H274489   3.529   3.056   2.170  0.0736  0.5817 -0.1878
17692TIP3   OH274490   1.621   6.674  15.600  0.0225  0.2296 -0.6694
17692TIP3    H174491   1.697   6.698  15.653 -0.7198  0.7156  0.2001
17692TIP3    H274492   1.569   6.754  15.595 -1.4745 -0.6176  0.5393
17693TIP3   OH274493   3.685   4.175  12.085  1.0276  0.3492  0.4191
17693TIP3    H174494   3.691   4.244  12.150 -0.0733 -0.4269  1.3796
17693TIP3    H274495   3.655   4.219  12.006  3.4318  1.4960  0.0591
17694TIP3   OH274496   0.573   2.198  12.797 -0.3869 -0.1477 -0.0727
17694TIP3    H174497   0.624   2.276  12.775 -1.9307  0.7025 -0.7879
17694TIP3    H274498   0.527   2.176  12.716 -1.3943 -0.6945  0.6203
17695TIP3   OH274499   6.720   0.107  11.880  0.1970 -0.1352  0.3510
17695TIP3    H174500   6.737   0.018  11.911  2.7513 -0.3085 -1.3084
17695TIP3    H274501   6.805   0.140  11.851 -0.5311  3.1348  1.5025
17696TIP3   OH274502   6.355   4.017  13.201 -0.5017 -0.1094 -0.2793
17696TIP3    H174503   6.341   4.013  13.107 -0.2716  0.7263 -0.3545
17696TIP3    H274504   6.270   3.993  13.239 -0.9873  0.8738 -0.7069
17697TIP3   OH274505   3.547   2.770  16.619  0.2865  0.2110  0.2105
17697TIP3    H174506   3.550   2.723  16.536 -0.2630 -1.0623  0.8771
17697TIP3    H274507   3.461   2.813  16.619  0.9746  1.6579 -0.5992
17698TIP3   OH274508   1.126   2.996   0.843 -0.4869  0.0501  0.1721
17698TIP3    H174509   1.128   3.024   0.751 -1.1278 -0.8624 -0.1356
17698TIP3    H274510   1.035   2.975   0.859 -0.8876  2.6108  1.8046
17699TIP3   OH274511   6.068   0.018   2.417 -0.1968  0.5047 -0.1919
17699TIP3    H174512   6.031   0.104   2.436  0.5094  0.5952  0.8495
17699TIP3    H274513   6.149   0.015   2.467 -0.5982 -1.0695  0.4253
17700TIP3   OH274514   4.135   6.060  13.322 -0.1155 -0.2563  0.1059
17700TIP3    H174515   4.174   6.138  13.285 -0.7550  0.2157  0.3930
17700TIP3    H274516   4.194   5.989  13.298  0.3451  0.2790 -0.3663
17701TIP3   OH274517   1.874   3.973   5.581  0.0521  0.3390 -0.4287
17701TIP3    H174518   1.833   4.005   5.661 -0.4188  1.4749 -1.0939
17701TIP3    H274519   1.960   4.014   5.580  0.2420 -0.0557 -0.2687
17702TIP3   OH274520   5.986   5.982  13.636 -0.6996  0.3189 -0.0366
17702TIP3    H174521   6.063   5.971  13.581 -1.1548 -0.8197 -0.4761
17702TIP3    H274522   5.993   6.072  13.670  0.2981  0.5649 -0.8475
17703TIP3   OH274523   6.091   4.329  14.861  0.6584  0.2537 -0.0477
17703TIP3    H174524   6.134   4.283  14.932 -0.5290 -1.0681 -0.1445
17703TIP3    H274525   6.140   4.304  14.783 -1.0675 -2.4751 -0.3798
17704TIP3   OH274526   1.596   4.842   6.409  0.6290  0.0222  0.1540
17704TIP3    H174527   1.690   4.826   6.399  0.7149 -0.5596  1.6555
17704TIP3    H274528   1.576   4.816   6.499 -0.9535  0.2584 -0.0906
17705TIP3   OH274529   0.978   4.158   5.995 -0.1517 -0.3713 -0.0871
17705TIP3    H174530   1.004   4.105   6.070  0.1093 -0.7593 -0.4436
17705TIP3    H274531   0.885   4.140   5.983 -0.0295 -0.8709 -0.3002
17706TIP3   OH274532   3.287   6.433  13.680  0.1054 -0.6351 -0.3962
17706TIP3    H174533   3.198   6.468  13.671  0.1925 -0.7494 -2.1075
17706TIP3    H274534   3.279   6.342  13.649  0.3086 -1.5271  1.9830
17707TIP3   OH274535   2.919   2.683   0.469  0.0701  0.6845 -0.0914
17707TIP3    H174536   2.829   2.653   0.458 -0.0891 -0.1225  2.7609
17707TIP3    H274537   2.971   2.618   0.421 -0.8011  1.6798 -2.5838
17708TIP3   OH274538   0.528   5.417   1.824 -0.0005 -0.6382  0.2237
17708TIP3    H174539   0.433   5.427   1.832 -0.1263 -0.5368 -1.0873
17708TIP3    H274540   0.559   5.503   1.793  0.3203 -1.0513 -0.6591
17709TIP3   OH274541   3.629   3.910   4.829 -0.0642 -0.6786 -0.1475
17709TIP3    H174542   3.650   3.966   4.904 -1.4390 -0.3197 -0.0043
17709TIP3    H274543   3.695   3.932   4.763  1.1076 -0.9264  0.8968
17710TIP3   OH274544   5.758   2.708   5.023  0.1545  0.5080  0.2575
17710TIP3    H174545   5.725   2.761   4.950 -1.4391  0.7672  1.1369
17710TIP3    H274546   5.721   2.621   5.009 -1.8099  1.0526  1.7926
17711TIP3   OH274547   3.821   5.483   5.233  0.1874 -0.4808  0.3691
17711TIP3    H174548   3.893   5.421   5.247 -0.0978 -0.7273  0.7729
17711TIP3    H274549   3.810   5.485   5.138  0.9842 -0.1363  0.2733
17712TIP3   OH274550   0.594   0.296   4.793  0.3700  0.5359 -0.2655
17712TIP3    H174551   0.542   0.315   4.871 -0.7012 -2.3436 -0.1539
17712TIP3    H274552   0.561   0.356   4.726 -1.2561  0.5588  0.5219
17713TIP3   OH274553   3.432   5.912   2.694 -0.2893 -0.2259 -0.9756
17713TIP3    H174554   3.343   5.891   2.722 -0.4643  0.1816 -1.2210
17713TIP3    H274555   3.487   5.846   2.737 -0.7694 -0.8342 -1.2871
17714TIP3   OH274556   1.955   6.180  16.446 -0.1676 -0.0814  0.1475
17714TIP3    H174557   1.878   6.237  16.443 -0.4395 -0.4681 -1.2325
17714TIP3    H274558   2.030   6.239  16.450 -0.4708  0.3699 -0.6577
17715TIP3   OH274559   1.221   2.552   3.530 -0.3958  0.2999  0.2333
17715TIP3    H174560   1.162   2.575   3.459  1.0966  1.1837 -0.7774
17715TIP3    H274561   1.171   2.492   3.585 -1.3491 -1.0110 -1.9437
17716TIP3   OH274562   6.374   1.678  16.495 -0.1672 -0.1623  0.0195
17716TIP3    H174563   6.284   1.657  16.471 -0.0352 -0.7390  0.0167
17716TIP3    H274564   6.403   1.740  16.428  0.1858 -1.7146 -1.3256
17717TIP3   OH274565   2.296   0.384  12.177 -0.1221  0.2084 -0.0770
17717TIP3    H174566   2.230   0.450  12.153  0.4189  0.0985 -1.9653
17717TIP3    H274567   2.371   0.436  12.207 -0.9908  0.3356  2.1419
17718TIP3   OH274568   6.452   1.750   4.666  0.2406  0.0924 -0.0937
17718TIP3    H174569   6.514   1.820   4.644  0.8726 -0.5198 -0.3000
17718TIP3    H274570   6.374   1.771   4.614  0.9589 -0.1651 -1.3175
17719TIP3   OH274571   5.158   4.331  11.346  0.5899  0.4442  0.1687
17719TIP3    H174572   5.105   4.317  11.267  0.0581  0.9663  0.4203
17719TIP3    H274573   5.236   4.277  11.333 -0.2910 -0.8554  0.0711
17720TIP3   OH274574   2.972   0.719   0.771 -0.5223  0.6185 -0.2002
17720TIP3    H174575   2.989   0.626   0.760  1.6524  0.6631  1.9850
17720TIP3    H274576   3.053   0.761   0.741 -1.1914  1.7743 -0.4372
17721TIP3   OH274577   0.096   1.351  12.270 -0.0515 -0.4924  0.0678
17721TIP3    H174578   0.083   1.273  12.216 -0.3178  0.5758 -1.4941
17721TIP3    H274579   0.009   1.375  12.300  0.0914 -1.0608  0.9632
17722TIP3   OH274580   1.445   1.564  17.278 -0.4195 -0.2340  0.4846
17722TIP3    H174581   1.514   1.587  17.216  0.3275 -1.7450  0.7156
17722TIP3    H274582   1.462   1.473  17.301 -1.2704 -0.0201  2.1446
17723TIP3   OH274583   4.251   6.273  13.198  0.0118  0.0732  0.4341
17723TIP3    H174584   4.265   6.293  13.105 -3.6117 -1.5783 -0.6439
17723TIP3    H274585   4.299   6.341  13.244  0.7942  1.8276 -2.6714
17724TIP3   OH274586   2.032   0.618  12.749 -0.1901 -0.6908 -0.2784
17724TIP3    H174587   1.971   0.644  12.818  1.9086  0.4353  1.2536
17724TIP3    H274588   1.980   0.563  12.691 -2.4361 -0.4433  1.3697
17725TIP3   OH274589   2.871   5.620  11.203 -0.0375  0.3944 -0.3580
17725TIP3    H174590   2.896   5.528  11.208  0.9779  0.7173  2.2361
17725TIP3    H274591   2.777   5.619  11.189 -0.2427 -1.0820  0.8721
17726TIP3   OH274592   5.527   0.918  12.600 -0.2721 -0.0547 -0.0815
17726TIP3    H174593   5.553   1.002  12.563 -0.8127  1.4135  2.6234
17726TIP3    H274594   5.435   0.930  12.626  0.2279 -0.7264  2.2175
17727TIP3   OH274595   6.742   3.723  13.829 -0.2854  0.2610  0.2108
17727TIP3    H174596   6.737   3.631  13.800 -1.2570  0.6536 -0.9690
17727TIP3    H274597   6.799   3.765  13.765 -3.2308  1.3558 -1.9058
17728TIP3   OH274598   0.823   0.305  16.419  0.3295 -0.4849 -0.4581
17728TIP3    H174599   0.789   0.250  16.348 -2.6921 -0.5145  0.8326
17728TIP3    H274600   0.905   0.263  16.445  0.3155 -1.8171 -2.3709
17729TIP3   OH274601   2.279   4.133  11.965  0.1402 -0.0772  0.1410
17729TIP3    H174602   2.275   4.196  11.893  0.4136 -1.2662 -0.9468
17729TIP3    H274603   2.353   4.076  11.943 -0.7718 -1.4456  0.5047
17730TIP3   OH274604   0.628   5.447   2.458  0.4904 -0.2008  0.4558
17730TIP3    H174605   0.628   5.396   2.377 -0.3341  0.5148 -0.0141
17730TIP3    H274606   0.573   5.523   2.439  1.9910  1.0719  1.0233
17731TIP3   OH274607   1.169   3.589  16.631 -0.0648  0.0435 -0.0551
17731TIP3    H174608   1.130   3.517  16.680  0.1579  0.6647  1.0536
17731TIP3    H274609   1.094   3.641  16.602 -0.2299 -0.6224 -0.8934
17732TIP3   OH274610   3.159   5.668   1.472 -0.7702 -0.1097 -0.3943
17732TIP3    H174611   3.094   5.639   1.535 -0.5425 -0.9361 -0.5184
17732TIP3    H274612   3.243   5.658   1.518 -0.7592  1.5773 -0.0025
17733TIP3   OH274613   0.230   6.128  14.947  0.0631 -0.4138 -0.3327
17733TIP3    H174614   0.316   6.157  14.915  0.6842 -1.7548  0.0898
17733TIP3    H274615   0.232   6.144  15.041 -0.7288  0.9051 -0.5005
17734TIP3   OH274616   6.569   1.520   2.010  0.3736  0.4520  0.0341
17734TIP3    H174617   6.506   1.508   2.081  1.2908 -0.0787  0.7763
17734TIP3    H274618   6.526   1.484   1.932 -0.2302  0.0936  0.5298
17735TIP3   OH274619   1.474   5.273  14.645  0.2130  1.0355  0.1513
17735TIP3    H174620   1.431   5.329  14.711 -1.5790  1.3071 -1.1681
17735TIP3    H274621   1.422   5.193  14.645  1.0321  0.4965 -0.0068
17736TIP3   OH274622   1.185   3.659  16.184  0.1474  0.8102 -0.2614
17736TIP3    H174623   1.178   3.570  16.218 -0.5386 -0.3683 -3.1284
17736TIP3    H274624   1.140   3.713  16.249 -3.2925 -1.5688 -0.3633
17737TIP3   OH274625   2.210   3.970   6.871 -0.6901  0.3567 -0.4723
17737TIP3    H174626   2.155   4.036   6.831  0.4292  1.9739  0.5516
17737TIP3    H274627   2.236   4.007   6.956 -1.3197 -2.0713  0.8952
17738TIP3   OH274628   2.086   3.295  13.198  0.6058  0.6532 -0.2354
17738TIP3    H174629   2.081   3.337  13.284  4.4375  1.8400 -0.4155
17738TIP3    H274630   2.124   3.210  13.215  0.0954  0.3338 -0.6552
17739TIP3   OH274631   4.473   0.533   2.710 -0.8211 -0.0319 -0.0040
17739TIP3    H174632   4.565   0.549   2.689 -0.9230  0.6489  0.0430
17739TIP3    H274633   4.427   0.544   2.626 -0.8474 -0.5302 -0.0609
17740TIP3   OH274634   0.727   4.085  11.816 -0.3273  0.1180  0.0722
17740TIP3    H174635   0.677   4.146  11.870 -0.8886  0.8502 -1.2283
17740TIP3    H274636   0.666   4.058  11.748 -0.0542 -1.8367  0.5399
17741TIP3   OH274637   0.758   6.047   5.414 -0.3918 -0.3540 -0.1541
17741TIP3    H174638   0.811   6.058   5.493 -1.0788 -0.9641  0.4022
17741TIP3    H274639   0.670   6.075   5.439 -0.7344 -1.0507 -0.5528
17742TIP3   OH274640   0.579   5.992   0.309 -0.4208  0.1744  0.1989
17742TIP3    H174641   0.600   5.925   0.374 -0.8518  0.3573  0.5362
17742TIP3    H274642   0.649   6.056   0.316 -0.0287 -0.2174 -0.0969
17743TIP3   OH274643   3.311   1.232   1.235  0.5539  0.2054 -0.5220
17743TIP3    H174644   3.364   1.249   1.156  1.7625  0.8900  0.3968
17743TIP3    H274645   3.318   1.313   1.286  1.1439 -0.7836  1.0277
17744TIP3   OH274646   2.281   3.937  11.438 -0.1501 -0.3448  0.2818
17744TIP3    H174647   2.241   3.978  11.360 -0.4502  1.4671  1.3284
17744TIP3    H274648   2.209   3.891  11.480 -0.1141 -0.8552 -0.2114
17745TIP3   OH274649   1.323   3.453  15.090  0.3194  0.2979  0.2401
17745TIP3    H174650   1.417   3.457  15.105  0.4390  0.8406 -0.6006
17745TIP3    H274651   1.289   3.399  15.162  1.1394  0.9222  1.1100
17746TIP3   OH274652   4.302   1.579  11.493  0.9584  0.4167 -0.2234
17746TIP3    H174653   4.243   1.648  11.462 -0.0443  1.0857  2.7512
17746TIP3    H274654   4.310   1.519  11.419  0.6599  2.9124 -2.4450
17747TIP3   OH274655   0.888   3.594  14.570  0.5193 -0.7136  0.8677
17747TIP3    H174656   0.923   3.614  14.484 -0.4128 -0.7614  0.4730
17747TIP3    H274657   0.828   3.665  14.590  1.5467 -0.1025  1.9829
17748TIP3   OH274658   5.660   6.469  12.555  0.0690 -0.3125  0.6518
17748TIP3    H174659   5.676   6.408  12.627  0.1565 -1.8816 -0.6211
17748TIP3    H274660   5.568   6.455  12.531 -0.2275  0.8707  1.0398
17749TIP3   OH274661   6.584   4.371   0.748  0.3529 -0.8359  0.1850
17749TIP3    H174662   6.615   4.319   0.674  1.7695 -1.1630  0.9756
17749TIP3    H274663   6.517   4.428   0.710  0.3776 -1.6413 -1.1499
17750TIP3   OH274664   3.333   4.110   2.885  0.3043  0.4842  0.1475
17750TIP3    H174665   3.291   4.196   2.877  1.2276  0.9770  0.4719
17750TIP3    H274666   3.276   4.051   2.834  0.6684  1.6458 -1.6966
17751TIP3   OH274667   1.592   5.820  16.746  0.7166  0.3521  0.0058
17751TIP3    H174668   1.542   5.891  16.786  1.2321  0.0726  1.1774
17751TIP3    H274669   1.684   5.848  16.752  0.9389 -0.4483  0.5949
17752TIP3   OH274670   6.384   5.222   2.107 -0.0823  0.1164  0.2351
17752TIP3    H174671   6.463   5.174   2.082  0.3915  0.2116  1.5075
17752TIP3    H274672   6.354   5.181   2.188 -1.0161  0.4560  0.0819
17753TIP3   OH274673   2.412   4.692   0.638  0.0597 -0.1009 -0.4560
17753TIP3    H174674   2.474   4.751   0.596  0.9738 -0.3913  0.4262
17753TIP3    H274675   2.399   4.729   0.725  0.2600 -0.9058 -0.0692
17754TIP3   OH274676   0.713   4.158  15.414 -0.6275  0.3006 -0.3783
17754TIP3    H174677   0.695   4.111  15.333  1.8569  1.6444 -1.8320
17754TIP3    H274678   0.669   4.243  15.403 -1.8248 -0.1526  0.5569
17755TIP3   OH274679   0.034   3.188   5.476  1.1573 -0.0397  0.2672
17755TIP3    H174680   0.046   3.253   5.406 -0.8790 -0.1316 -0.2348
17755TIP3    H274681   0.044   3.239   5.557  2.0075  0.3780 -0.0786
17756TIP3   OH274682   1.987   1.808  14.337  0.5276  0.6277  0.0393
17756TIP3    H174683   2.004   1.834  14.428 -0.0055 -1.2459  0.7362
17756TIP3    H274684   1.903   1.762  14.342 -1.3749  3.5216 -2.0589
17757TIP3   OH274685   5.637   3.367  10.279  0.2663 -0.4468  0.2833
17757TIP3    H174686   5.655   3.459  10.263  0.4238 -0.4207  0.5883
17757TIP3    H274687   5.546   3.365  10.312 -0.1914 -0.5436 -0.9442
17758TIP3   OH274688   3.493   6.681   4.024  0.2456  0.5750 -0.3110
17758TIP3    H174689   3.572   6.698   3.972 -0.6696 -1.1668 -2.4515
17758TIP3    H274690   3.521   6.619   4.092  1.2643  2.1505  0.7641
17759TIP3   OH274691   0.306   1.610   3.677 -0.6438  0.7539  0.2180
17759TIP3    H174692   0.322   1.693   3.722 -1.2251  0.5926  0.7348
17759TIP3    H274693   0.212   1.610   3.659 -0.5692  0.4080 -0.1903
17760TIP3   OH274694   4.857   0.054   0.030 -0.4002  0.2081  0.0183
17760TIP3    H174695   4.854  -0.022  -0.027 -0.0758  0.5189 -0.4230
17760TIP3    H274696   4.770   0.094   0.022 -0.7937 -0.4672  0.7530
17761TIP3   OH274697   6.104   2.692   2.623 -0.1839  0.1941  0.0680
17761TIP3    H174698   6.039   2.626   2.647 -0.1967  0.0720 -0.2874
17761TIP3    H274699   6.188   2.654   2.648  0.4508 -2.3506 -4.6794
17762TIP3   OH274700   1.096   2.596   2.824  0.3823  0.7326  0.4558
17762TIP3    H174701   1.074   2.503   2.830 -2.0278  1.2437  0.4963
17762TIP3    H274702   1.019   2.636   2.783  1.9352  2.5318 -0.8878
17763TIP3   OH274703   5.478   2.411   5.952 -0.2704  0.2168 -0.1475
17763TIP3    H174704   5.393   2.456   5.946  0.4809  1.5899 -1.3053
17763TIP3    H274705   5.533   2.456   5.887  0.8335 -1.7941 -0.6964
17764TIP3   OH274706   1.142   4.049   0.576  0.5092  0.2982  0.3648
17764TIP3    H174707   1.151   4.059   0.670 -2.9734  1.6420  0.6891
17764TIP3    H274708   1.119   3.957   0.563  1.8374 -0.0987  0.6791
17765TIP3   OH274709   2.151   4.783   2.249 -0.0082  0.2785  0.1635
17765TIP3    H174710   2.121   4.796   2.159 -1.0009 -0.8911  0.2983
17765TIP3    H274711   2.191   4.867   2.274  0.1803  0.6551 -1.3140
17766TIP3   OH274712   0.638   3.925   3.476 -0.1036 -0.5584  0.2075
17766TIP3    H174713   0.730   3.922   3.503 -0.2465 -0.6698  0.6990
17766TIP3    H274714   0.641   3.937   3.381  0.4365 -1.9828  0.0184
17767TIP3   OH274715   2.006   1.262  16.771  0.4308  0.4392  0.2495
17767TIP3    H174716   2.095   1.280  16.800  0.3045  0.5199  0.5919
17767TIP3    H274717   1.977   1.343  16.729  0.7118  0.2319 -0.3600
17768TIP3   OH274718   0.257   3.916   0.917 -0.0853 -0.4073 -0.1270
17768TIP3    H174719   0.251   3.977   0.990 -0.8646 -0.2441 -0.3170
17768TIP3    H274720   0.176   3.865   0.921  0.2137 -0.9184 -0.4223
17769TIP3   OH274721   0.401   5.542   2.871 -0.0266 -0.7645 -0.1337
17769TIP3    H174722   0.494   5.567   2.870 -0.2391  0.0481 -0.8156
17769TIP3    H274723   0.387   5.503   2.957  1.0690 -1.3743 -0.2087
17770TIP3   OH274724   3.310   0.189   4.049 -0.3372 -0.0634  0.1224
17770TIP3    H174725   3.271   0.208   4.135  0.0065  1.5324 -0.0536
17770TIP3    H274726   3.384   0.130   4.070 -1.0648 -0.7807  0.7580
17771TIP3   OH274727   2.845   3.475   0.968 -0.1987  0.8817 -0.2324
17771TIP3    H174728   2.878   3.426   0.892  0.3586 -0.1311  0.6399
17771TIP3    H274729   2.799   3.409   1.020  0.3506  1.3323  0.8433
17772TIP3   OH274730   6.353   5.256  16.818 -0.4605  0.3089  0.2639
17772TIP3    H174731   6.446   5.241  16.833 -0.3392 -2.0966 -2.0729
17772TIP3    H274732   6.350   5.337  16.767  0.4305  0.1040 -0.1358
17773TIP3   OH274733   2.200   2.407   3.499  0.0386 -0.3451 -0.4220
17773TIP3    H174734   2.266   2.373   3.439 -2.0880 -4.1487 -0.9583
17773TIP3    H274735   2.144   2.463   3.445  0.7262 -0.0396 -0.8229
17774TIP3   OH274736   1.155   6.647  13.160 -0.4961 -0.1922 -0.4825
17774TIP3    H174737   1.234   6.597  13.179 -0.0105  0.8195  0.1828
17774TIP3    H274738   1.139   6.699  13.238  0.5576  2.7362 -2.0780
17775TIP3   OH274739   3.638   4.890  16.794 -0.2536 -0.4539  0.3429
17775TIP3    H174740   3.656   4.810  16.745  1.7959  1.1083 -1.7024
17775TIP3    H274741   3.643   4.960  16.729 -2.8581  1.3288  1.8664
17776TIP3   OH274742   2.975   3.342   4.128  0.3810 -0.1518  0.1050
17776TIP3    H174743   2.953   3.435   4.132 -2.7455 -0.8185  0.3690
17776TIP3    H274744   3.005   3.329   4.038  1.5603  1.2022  0.2692
17777TIP3   OH274745   0.931   0.324   5.383 -0.0268  0.0081  0.2314
17777TIP3    H174746   1.013   0.372   5.395 -0.9174  1.7129 -0.1231
17777TIP3    H274747   0.938   0.248   5.441  2.3132 -0.6210 -0.7673
17778TIP3   OH274748   5.859   0.874  15.287 -0.1956 -0.3164  0.1415
17778TIP3    H174749   5.935   0.923  15.254  0.4731 -1.8171 -0.6358
17778TIP3    H274750   5.882   0.853  15.378  0.7172 -1.4533 -0.3229
17779TIP3   OH274751   3.572   0.184   5.449 -0.4529 -0.2500 -0.1488
17779TIP3    H174752   3.566   0.205   5.356  1.3591  3.0659  0.3133
17779TIP3    H274753   3.578   0.089   5.452 -1.5106 -0.5515 -3.3031
17780TIP3   OH274754   2.132   3.150  15.514 -0.7739 -0.0633  0.1296
17780TIP3    H174755   2.048   3.178  15.477  0.0569  1.1301 -0.9148
17780TIP3    H274756   2.197   3.175  15.449  0.3602 -1.4858  0.6734
17781TIP3   OH274757   6.042   5.768   0.017 -0.3002 -0.3266  0.3881
17781TIP3    H174758   6.009   5.678   0.012  0.9799 -0.7664 -0.5660
17781TIP3    H274759   6.128   5.765  -0.025 -0.5399  1.5099 -0.3348
17782TIP3   OH274760   5.763   3.322   1.406  0.1441 -0.2173  0.0490
17782TIP3    H174761   5.719   3.399   1.444  1.2467 -0.0431  1.0105
17782TIP3    H274762   5.704   3.294   1.336 -0.6656  1.0325  0.1881
17783TIP3   OH274763   0.377   4.238   6.275  0.1297  0.0882 -0.2245
17783TIP3    H174764   0.284   4.230   6.294  0.4128  1.0372  1.7888
17783TIP3    H274765   0.412   4.150   6.292 -0.3929 -0.3417 -1.2373
17784TIP3   OH274766   4.867   3.502  12.118 -0.3985  0.4355 -0.0656
17784TIP3    H174767   4.866   3.445  12.042 -1.0924 -0.3380  0.5059
17784TIP3    H274768   4.819   3.454  12.186 -0.4077  1.3954  0.6457
17785TIP3   OH274769   1.792   1.066  10.350 -0.1502 -0.5238  0.1361
17785TIP3    H174770   1.858   1.084  10.416  1.4339 -0.0584 -1.5139
17785TIP3    H274771   1.739   1.145  10.345 -0.3046 -0.5813  0.8681
17786TIP3   OH274772   3.436   4.403  12.471  0.0412 -0.2507  0.0659
17786TIP3    H174773   3.474   4.396  12.384 -0.5787  0.5138 -0.2760
17786TIP3    H274774   3.482   4.477  12.512  0.4459 -0.7099  0.4559
17787TIP3   OH274775   3.900   4.841  16.902  0.0184 -0.0301  0.3125
17787TIP3    H174776   3.826   4.893  16.870 -0.1034 -0.6813 -0.4936
17787TIP3    H274777   3.920   4.878  16.988  0.4446  1.8610 -0.5538
17788TIP3   OH274778   1.134   4.984   4.817  0.4307  0.2862  0.1221
17788TIP3    H174779   1.067   5.040   4.855 -1.2210 -0.5954 -1.3808
17788TIP3    H274780   1.102   4.894   4.831  2.7870 -0.3606  2.0686
17789TIP3   OH274781   5.235   4.228   3.374  0.2175 -0.0141  0.2331
17789TIP3    H174782   5.316   4.244   3.325  0.5767  0.8877  1.1008
17789TIP3    H274783   5.167   4.223   3.307  1.1336 -2.1667 -0.6641
17790TIP3   OH274784   4.924   5.524  15.495 -0.2127 -0.3404 -0.5499
17790TIP3    H174785   4.945   5.557  15.408  0.2679  0.7255 -0.0559
17790TIP3    H274786   4.968   5.584  15.555  0.2343 -1.5850  0.4235
17791TIP3   OH274787   3.995   2.884  15.698 -0.4947  0.3430 -0.2707
17791TIP3    H174788   4.085   2.852  15.706 -0.4676  0.4788 -0.0383
17791TIP3    H274789   4.003   2.979  15.695 -0.5827  0.3324 -0.8911
17792TIP3   OH274790   4.948   5.597   0.983 -0.1988 -0.2655 -0.3719
17792TIP3    H174791   5.043   5.604   0.970 -0.2728 -1.8757 -2.2539
17792TIP3    H274792   4.931   5.503   0.986 -1.9169 -0.0520 -1.7745
17793TIP3   OH274793   3.384   6.650   3.778 -0.1998  0.1441 -0.0367
17793TIP3    H174794   3.388   6.649   3.873  0.2717  0.2362 -0.0514
17793TIP3    H274795   3.300   6.691   3.758 -0.6349 -0.5560  0.3351
17794TIP3   OH274796   4.502   2.411  11.855 -0.7857  0.0506  0.0499
17794TIP3    H174797   4.430   2.349  11.855 -1.4579  0.8141  0.6212
17794TIP3    H274798   4.555   2.386  11.779  0.4888 -2.9248  1.7546
17795TIP3   OH274799   2.088   5.684  13.979 -0.0788 -0.0607  0.5514
17795TIP3    H174800   2.127   5.615  14.032  0.2986  1.5582  2.4842
17795TIP3    H274801   2.125   5.671  13.892 -0.3121 -2.4821  0.7417
17796TIP3   OH274802   1.651   5.707  14.609 -0.3165  0.3311 -0.1323
17796TIP3    H174803   1.675   5.620  14.642 -1.2929  0.3699  0.7426
17796TIP3    H274804   1.555   5.703  14.600 -0.7619  2.1975  2.6683
17797TIP3   OH274805   0.595   4.552   5.198  0.6552  0.9243 -0.5666
17797TIP3    H174806   0.590   4.456   5.201  1.2664  0.7210 -3.4243
17797TIP3    H274807   0.510   4.582   5.231  0.9612 -0.4794  1.7341
17798TIP3   OH274808   6.253   5.595   5.023  0.4229 -0.1066 -0.1174
17798TIP3    H174809   6.251   5.512   4.974  1.9563  1.0728 -2.3285
17798TIP3    H274810   6.206   5.657   4.967 -0.1502  0.6937  1.2122
17799TIP3   OH274811   5.073   4.423   1.908 -0.1984  0.3332  0.6396
17799TIP3    H174812   5.145   4.361   1.894 -0.4737  0.5868 -2.6905
17799TIP3    H274813   4.996   4.367   1.920 -0.2860 -0.0720 -1.3771
17800TIP3   OH274814   5.582   5.726  12.637 -0.0788 -0.0514 -1.0430
17800TIP3    H174815   5.595   5.711  12.731 -2.8774  0.1567 -0.5356
17800TIP3    H274816   5.580   5.637  12.600  0.8302 -0.1424 -0.9134
17801TIP3   OH274817   5.991   1.675   0.066  0.0461 -0.0852 -0.3914
17801TIP3    H174818   5.933   1.698  -0.006  1.1665 -2.7838 -2.3412
17801TIP3    H274819   6.068   1.637   0.024  1.8043  0.2894  2.1995
17802TIP3   OH274820   1.552   1.449   4.119 -0.3536  0.0245 -0.7304
17802TIP3    H174821   1.634   1.469   4.164 -0.7111  0.4945 -0.2753
17802TIP3    H274822   1.543   1.518   4.053 -0.4018 -0.0130 -0.7639
17803TIP3   OH274823   5.562   2.204   1.846  0.6171 -0.3515 -0.3477
17803TIP3    H174824   5.522   2.282   1.807 -0.1446  0.3222  1.6308
17803TIP3    H274825   5.525   2.131   1.797 -0.5418  0.4257 -0.6730
17804TIP3   OH274826   5.742   0.858  11.351  0.6267  0.3562 -0.1071
17804TIP3    H174827   5.717   0.906  11.271  0.0503 -0.4524 -0.4325
17804TIP3    H274828   5.672   0.794  11.362 -1.3624  2.7589  3.1326
17805TIP3   OH274829   6.483   3.433  10.985 -0.0734 -0.0424 -0.4486
17805TIP3    H174830   6.456   3.341  10.989  1.6396 -0.6855 -2.0152
17805TIP3    H274831   6.409   3.478  10.944 -1.2888 -0.5309  1.1353
17806TIP3   OH274832   4.747   2.599   4.172 -0.0434 -0.2385  0.5421
17806TIP3    H174833   4.773   2.688   4.197 -0.0197 -0.3606  0.9656
17806TIP3    H274834   4.755   2.597   4.077  1.6327 -0.3071  0.6546
17807TIP3   OH274835   2.413   3.288  15.540 -0.0619  0.1613 -0.7702
17807TIP3    H174836   2.331   3.337  15.532 -1.1330 -1.0254  1.7441
17807TIP3    H274837   2.448   3.314  15.626  0.6085 -1.5744 -0.4842
17808TIP3   OH274838   1.197   3.413   2.762  0.0212 -0.2375  0.0318
17808TIP3    H174839   1.169   3.487   2.817 -0.6975  0.0956 -0.7606
17808TIP3    H274840   1.245   3.356   2.822  0.3379  0.7315  0.7239
17809TIP3   OH274841   0.309   2.889   3.146 -0.3649  0.6591  0.4486
17809TIP3    H174842   0.322   2.918   3.236 -1.3116  0.0184  0.8003
17809TIP3    H274843   0.392   2.848   3.122  0.2417  1.7243  0.6731
17810TIP3   OH274844   1.210   5.870   1.861 -0.0244 -0.3673  0.7546
17810TIP3    H174845   1.184   5.808   1.793 -0.5604 -0.9082  1.4403
17810TIP3    H274846   1.292   5.835   1.896  1.0073  0.6564 -0.5370
17811TIP3   OH274847   2.251   0.938   2.264  1.0229  0.1044  0.1794
17811TIP3    H174848   2.241   0.982   2.180 -0.1474 -0.8335 -0.2051
17811TIP3    H274849   2.170   0.958   2.311  0.9389 -0.7275  0.4090
17812TIP3   OH274850   4.476   4.363   4.364 -0.0450  0.0425 -0.3297
17812TIP3    H174851   4.384   4.377   4.339  0.6201  1.3458 -2.2960
17812TIP3    H274852   4.518   4.330   4.285  1.0377 -1.3944  0.8011
17813TIP3   OH274853   4.541   3.848   1.011  0.3871  0.3489 -0.7780
17813TIP3    H174854   4.625   3.820   1.046 -0.3166  0.2592  0.9264
17813TIP3    H274855   4.503   3.769   0.973  1.6835  0.6939 -3.0372
17814TIP3   OH274856   2.354   4.467   2.894  0.5880  0.4698  0.0823
17814TIP3    H174857   2.318   4.454   2.982  0.5917 -0.6775 -0.0653
17814TIP3    H274858   2.298   4.415   2.837  1.1613  0.4290 -0.4602
17815TIP3   OH274859   6.697   0.673   4.947  0.1884  0.4976  0.5251
17815TIP3    H174860   6.619   0.621   4.929 -1.4261  2.0972  2.5441
17815TIP3    H274861   6.752   0.616   5.000  1.2754 -1.2456 -2.2391
17816TIP3   OH274862   5.874   1.798  14.559 -0.0665 -0.6269 -0.2265
17816TIP3    H174863   5.787   1.828  14.534 -0.4401 -2.0208 -0.7182
17816TIP3    H274864   5.893   1.726  14.499  1.6857  0.0227 -0.5198
17817TIP3   OH274865   6.180   3.447   0.753  0.9786 -0.2014 -0.2818
17817TIP3    H174866   6.215   3.359   0.765  0.3717 -0.8576 -2.8325
17817TIP3    H274867   6.094   3.433   0.712  1.4582  1.5836 -2.0091
17818TIP3   OH274868   4.460   4.800  11.070  0.2861 -0.2024 -0.9888
17818TIP3    H174869   4.445   4.821  10.978 -0.6353 -0.0950 -0.8206
17818TIP3    H274870   4.394   4.851  11.117  1.0643  0.1275 -0.2262
17819TIP3   OH274871   3.427   1.248  11.319 -0.1653 -0.2877  0.3196
17819TIP3    H174872   3.384   1.181  11.266 -0.9414  0.6928 -0.3460
17819TIP3    H274873   3.369   1.260  11.395  0.1110 -0.5648  0.5732
17820TIP3   OH274874   4.645   2.034  13.300  0.0457 -1.0907 -0.4013
17820TIP3    H174875   4.598   1.955  13.273 -1.4496 -0.0952 -0.8363
17820TIP3    H274876   4.664   2.019  13.393 -0.0551 -2.0298 -0.5178
17821TIP3   OH274877   5.147   1.287  17.217 -0.3370  0.1904  0.1145
17821TIP3    H174878   5.196   1.315  17.139 -0.8667  1.8362  0.3370
17821TIP3    H274879   5.058   1.272  17.185 -0.2008 -0.7399  0.1205
17822TIP3   OH274880   2.556   0.183   4.821  0.3960 -0.1396  0.2499
17822TIP3    H174881   2.552   0.091   4.850  0.4937  0.3680  1.9980
17822TIP3    H274882   2.533   0.233   4.899  1.3794  1.3660 -0.3860
17823TIP3   OH274883   5.352   1.637   3.421 -0.0089 -0.0503  0.3383
17823TIP3    H174884   5.332   1.641   3.328 -0.9166  2.2190  0.5731
17823TIP3    H274885   5.440   1.599   3.425  0.2747  0.3244 -1.4658
17824TIP3   OH274886   0.330   4.807  13.267  0.5160 -0.1002  0.4593
17824TIP3    H174887   0.387   4.761  13.329  1.0131  0.2790  0.2905
17824TIP3    H274888   0.368   4.787  13.181  0.6825  0.5474  0.3801
17825TIP3   OH274889   4.464   2.335   5.072  0.2801 -0.1733  0.3192
17825TIP3    H174890   4.433   2.401   5.134 -1.0168 -0.2835 -0.1748
17825TIP3    H274891   4.446   2.252   5.116  0.1494 -0.2306  0.1593
17826TIP3   OH274892   2.330   0.699   5.312  0.6043  0.2248 -0.2392
17826TIP3    H174893   2.270   0.636   5.272 -1.0478  0.5916  1.4635
17826TIP3    H274894   2.274   0.749   5.372  2.2167  2.1011 -0.1964
17827TIP3   OH274895   2.901   6.186  11.868  0.0259  0.7939 -0.4673
17827TIP3    H174896   2.832   6.129  11.834  2.0727 -2.2493  0.0743
17827TIP3    H274897   2.974   6.174  11.807  2.7065 -2.3713  2.8281
17828TIP3   OH274898   5.956   0.891  13.646 -0.2737  0.0171 -0.2189
17828TIP3    H174899   6.015   0.897  13.722 -0.8292 -0.3621  0.2553
17828TIP3    H274900   5.871   0.920  13.680 -0.2890  0.9153 -0.9856
17829TIP3   OH274901   5.548   6.675  16.261  0.0182 -0.3900 -0.0482
17829TIP3    H174902   5.498   6.705  16.337 -3.1924 -1.7592 -1.4385
17829TIP3    H274903   5.597   6.752  16.233 -1.3532  1.1070  1.4276
17830TIP3   OH274904   0.993   6.421   2.585  1.0063 -0.1102  0.1543
17830TIP3    H174905   1.058   6.425   2.515 -0.3704 -0.0334 -1.1977
17830TIP3    H274906   0.909   6.416   2.539 -0.0214  0.8482  1.8118
17831TIP3   OH274907   6.027   5.905   5.134  0.0316 -0.0327 -0.2574
17831TIP3    H174908   6.051   5.984   5.086 -0.2312  0.3682  0.2652
17831TIP3    H274909   6.045   5.834   5.072  0.8872  0.3781 -0.5056
17832TIP3   OH274910   4.758   5.468   0.767  0.3643 -0.0722 -0.2343
17832TIP3    H174911   4.851   5.447   0.757  0.6409  1.4978 -1.4208
17832TIP3    H274912   4.729   5.492   0.679 -0.7437  1.0284  0.3867
17833TIP3   OH274913   4.231   5.957  11.048  0.4391  0.0455 -0.4060
17833TIP3    H174914   4.260   5.919  10.965  1.2954 -1.7652  0.6740
17833TIP3    H274915   4.176   5.890  11.087  3.4367 -1.0359  2.3958
17834TIP3   OH274916   4.669   4.102   5.190  0.2096  0.1069  0.0892
17834TIP3    H174917   4.677   4.196   5.209  0.9869 -0.1541  1.1353
17834TIP3    H274918   4.760   4.071   5.183  0.0094 -0.1465 -2.6338
17835TIP3   OH274919   4.837   2.780  13.703 -0.6998  0.1778  0.0773
17835TIP3    H174920   4.853   2.867  13.667  0.0417 -0.3396 -0.8505
17835TIP3    H274921   4.905   2.768  13.769  2.2052 -1.4886 -2.9511
17836TIP3   OH274922   1.074   0.725  13.475  0.5140  0.7318  0.2106
17836TIP3    H174923   1.067   0.745  13.382 -2.2325  0.4773  0.2890
17836TIP3    H274924   1.046   0.805  13.520 -1.9847 -0.3003  0.6665
17837TIP3   OH274925   2.282   6.469  13.367  0.7970 -0.3173  0.2923
17837TIP3    H174926   2.253   6.472  13.276 -2.9963 -2.3398  1.2339
17837TIP3    H274927   2.338   6.392  13.372  0.3946 -0.6416 -0.1829
17838TIP3   OH274928   0.905   3.315   3.920  0.0687 -0.1534  0.1094
17838TIP3    H174929   0.955   3.299   4.001  1.1434 -1.9655 -0.8412
17838TIP3    H274930   0.958   3.377   3.871  0.1236 -0.1298  0.1977
17839TIP3   OH274931   1.509   0.852  11.993 -0.2167  0.3823 -0.0856
17839TIP3    H174932   1.561   0.882  12.069  1.7102 -1.7597 -0.4508
17839TIP3    H274933   1.418   0.864  12.020  0.4120  0.3380  2.2999
17840TIP3   OH274934   3.465   0.840   3.844 -0.0665 -0.1092 -0.0535
17840TIP3    H174935   3.511   0.922   3.825 -0.1271  0.1284  0.7759
17840TIP3    H274936   3.380   0.869   3.878 -0.7371 -0.5374 -1.3315
17841TIP3   OH274937   4.131   1.482   2.097  0.1507  0.1493 -0.2144
17841TIP3    H174938   4.211   1.480   2.149  1.4494 -1.2503 -2.1807
17841TIP3    H274939   4.108   1.390   2.084 -0.8881  0.4990 -1.0199
17842TIP3   OH274940   5.694   5.859   1.533 -0.0011  0.7683 -0.1113
17842TIP3    H174941   5.698   5.944   1.491  1.7744  1.3193  1.0320
17842TIP3    H274942   5.786   5.834   1.544 -0.4782 -1.0744  0.0228
17843TIP3   OH274943   0.743   6.327   4.137  0.0743  0.2029  0.1442
17843TIP3    H174944   0.748   6.350   4.044 -1.8954  1.0344  0.1934
17843TIP3    H274945   0.829   6.290   4.157  1.8595  3.3196 -1.0786
17844TIP3   OH274946   0.148   0.868  11.370 -0.0596 -0.1091  0.1481
17844TIP3    H174947   0.208   0.893  11.440 -0.1218 -0.4658  0.3321
17844TIP3    H274948   0.098   0.795  11.406  0.4874 -0.8552 -0.5619
17845TIP3   OH274949   3.408   0.207  15.233  0.7789  0.1313  0.3126
17845TIP3    H174950   3.321   0.236  15.261  0.6244  1.2739 -1.2421
17845TIP3    H274951   3.431   0.265  15.161  0.8903 -2.9900 -2.3750
17846TIP3   OH274952   5.677   6.250   1.186 -0.2018 -0.1355 -0.6020
17846TIP3    H174953   5.702   6.181   1.125  0.0602 -1.6373  1.1316
17846TIP3    H274954   5.597   6.217   1.228 -1.2471  1.5442 -1.1777
17847TIP3   OH274955   4.763   5.751  15.360  0.2771  0.1392 -0.1481
17847TIP3    H174956   4.812   5.832  15.354  1.4137 -0.3168  1.9599
17847TIP3    H274957   4.830   5.682  15.358 -0.4334 -0.6026  0.6646
17848TIP3   OH274958   3.246   4.694  16.579 -0.3098  0.0993  0.4833
17848TIP3    H174959   3.319   4.666  16.523  1.1540  1.7355  1.4467
17848TIP3    H274960   3.249   4.790  16.576  0.0691  0.2929  3.5548
17849TIP3   OH274961   4.767   4.363  12.513  0.4473  0.2153  0.2804
17849TIP3    H174962   4.828   4.302  12.472 -1.2314 -2.1138  1.0716
17849TIP3    H274963   4.680   4.330  12.492 -0.5582  2.3359  0.7819
17850TIP3   OH274964   2.031   6.229   2.507  0.5855  0.5095 -0.0875
17850TIP3    H174965   2.113   6.234   2.556  1.3525  0.2547 -1.3051
17850TIP3    H274966   1.999   6.140   2.522  0.2836  0.7523  0.7566
17851TIP3   OH274967   5.802   5.851  15.837 -0.0853  0.1084  0.1366
17851TIP3    H174968   5.746   5.808  15.901 -0.4291 -0.0255 -0.2495
17851TIP3    H274969   5.748   5.922  15.802 -0.8847 -1.4236 -1.9110
17852TIP3   OH274970   3.985   3.729   0.244  0.4839 -0.9369  0.9370
17852TIP3    H174971   3.893   3.748   0.258 -0.4299 -2.4441 -2.2347
17852TIP3    H274972   4.002   3.755   0.153  3.3874 -0.0883  1.6121
17853TIP3   OH274973   5.542   5.226  14.635 -0.4054 -0.2156  0.2162
17853TIP3    H174974   5.584   5.177  14.565 -2.0166 -1.2190 -0.0949
17853TIP3    H274975   5.580   5.189  14.715 -1.1780 -1.6098 -0.0325
17854TIP3   OH274976   6.135   1.900   4.207 -0.2304 -0.1562 -0.8644
17854TIP3    H174977   6.098   1.934   4.289 -0.4743 -0.5492 -0.8072
17854TIP3    H274978   6.196   1.968   4.178  0.3046 -0.2663 -0.0446
17855TIP3   OH274979   3.018   5.570  13.611 -0.2790  0.2419  0.3043
17855TIP3    H174980   2.970   5.627  13.671  0.2561  0.0204  0.9410
17855TIP3    H274981   3.000   5.607  13.524 -1.9532 -0.0709  0.4667
17856TIP3   OH274982   5.451   1.142  15.880 -0.0537 -0.2397  0.4341
17856TIP3    H174983   5.523   1.108  15.933  0.0238  1.4091  1.4367
17856TIP3    H274984   5.387   1.071  15.880  0.2735 -0.5806  2.1164
17857TIP3   OH274985   2.992   4.895  11.195  0.3417 -0.7770 -0.1619
17857TIP3    H174986   3.013   4.876  11.286  1.3757 -0.6727 -0.3710
17857TIP3    H274987   2.971   4.989  11.194  2.0525 -0.3590 -0.3042
17858TIP3   OH274988   0.057   0.257   3.490 -0.0455 -0.0940 -0.1638
17858TIP3    H174989  -0.002   0.322   3.453  0.5937 -0.2169 -1.4555
17858TIP3    H274990   0.030   0.174   3.449  0.5796 -0.2605 -0.2438
17859TIP3   OH274991   0.466   0.232  11.459 -0.4660  0.1399 -0.0220
17859TIP3    H174992   0.467   0.325  11.484 -2.2615 -0.3777  2.4106
17859TIP3    H274993   0.550   0.198  11.490 -0.3725  0.6781  0.3300
17860TIP3   OH274994   2.233   1.001   1.367  0.3662  0.0942  0.3154
17860TIP3    H174995   2.172   1.073   1.349 -0.0933 -0.5167 -0.7107
17860TIP3    H274996   2.235   0.994   1.462 -0.5679  0.6486  0.3892
17861TIP3   OH274997   6.642   4.332  13.501  0.5628  0.2863  0.9702
17861TIP3    H174998   6.585   4.260  13.474 -0.0472  0.9122  0.5632
17861TIP3    H274999   6.646   4.325  13.596  0.1104  0.0048  0.9717
17862TIP3   OH275000   3.568   0.568   4.894 -0.0299  0.8150 -0.3086
17862TIP3    H175001   3.537   0.640   4.840 -0.0377  0.8963 -0.1954
17862TIP3    H275002   3.509   0.567   4.969 -0.1416  0.5768 -0.3978
17863TIP3   OH275003   1.357   1.128  16.155  0.2933  0.6008 -0.1667
17863TIP3    H175004   1.394   1.215  16.172 -3.3010  2.0621  1.2617
17863TIP3    H275005   1.323   1.134  16.066  1.7040 -0.0842 -0.7813
17864TIP3   OH275006   1.065   2.155   2.591  0.2145 -0.3016  0.2920
17864TIP3    H175007   1.142   2.136   2.537  2.0521  1.4615  2.1176
17864TIP3    H275008   1.005   2.201   2.533  0.3374 -1.9883 -1.2614
17865TIP3   OH275009   5.794   4.130  10.907 -0.0349  0.3197  0.1877
17865TIP3    H175010   5.739   4.208  10.900 -0.6671  0.0761  1.9776
17865TIP3    H275011   5.876   4.155  10.863  0.1904  2.4012  1.6357
17866TIP3   OH275012   5.573   4.763   2.790 -0.2414  0.0999 -0.1095
17866TIP3    H175013   5.663   4.777   2.818 -0.5160 -0.2723  0.9949
17866TIP3    H275014   5.561   4.668   2.792 -1.0984  0.2054  1.2606
17867TIP3   OH275015   6.611   3.701   4.946  0.3750 -0.2287 -0.5768
17867TIP3    H175016   6.553   3.659   5.010  1.2256 -1.6122 -0.6573
17867TIP3    H275017   6.696   3.661   4.962  0.8024  0.0940 -1.9499
17868TIP3   OH275018   6.251   4.389   4.337  0.9682 -0.0778  0.0796
17868TIP3    H175019   6.237   4.442   4.259  0.1189  0.5175  0.6230
17868TIP3    H275020   6.302   4.313   4.306 -0.5061 -0.5434 -1.3092
17869TIP3   OH275021   3.731   0.845   1.451  0.7072 -0.1647  0.7722
17869TIP3    H175022   3.775   0.860   1.535  0.7323  0.0047  0.7294
17869TIP3    H275023   3.788   0.886   1.386 -0.2676  1.4291  0.8758
17870TIP3   OH275024   6.340   5.488   1.816  0.2744  0.3374  0.5887
17870TIP3    H175025   6.356   5.409   1.764 -0.9712  0.5272 -0.1222
17870TIP3    H275026   6.387   5.557   1.771 -0.3989  0.4047 -0.0271
17871TIP3   OH275027   0.900   6.741  10.957 -0.1691 -0.2384 -0.0128
17871TIP3    H175028   0.894   6.786  11.041  1.0164 -1.3289  0.6878
17871TIP3    H275029   0.858   6.800  10.894  0.1272  1.1945  1.1065
17872TIP3   OH275030   3.949   3.464   0.313  0.7569 -0.0507  0.0926
17872TIP3    H175031   3.888   3.451   0.241 -1.1355 -0.7193  1.6987
17872TIP3    H275032   3.961   3.559   0.317 -1.9875  0.3674  1.0178
17873TIP3   OH275033   4.932   4.839  16.522 -0.3556 -0.4533  0.2659
17873TIP3    H175034   5.000   4.839  16.454  0.6438 -0.6842  1.2362
17873TIP3    H275035   4.850   4.835  16.474  0.3681 -2.4851 -0.9092
17874TIP3   OH275036   3.320   1.784   1.714 -0.6656  0.3552 -0.0950
17874TIP3    H175037   3.247   1.731   1.745 -1.1353  1.9119  1.7147
17874TIP3    H275038   3.280   1.849   1.656 -0.7206  0.9798  0.6115
17875TIP3   OH275039   4.623   4.747   0.724  0.1373  0.2934  0.2123
17875TIP3    H175040   4.686   4.683   0.690 -0.6202 -0.5238  0.3004
17875TIP3    H275041   4.648   4.829   0.683 -0.0519 -0.4394 -1.4800
17876TIP3   OH275042   1.072   3.531   3.838 -0.7099  0.1695 -0.4606
17876TIP3    H175043   1.156   3.519   3.794  0.8176 -0.3902  2.3303
17876TIP3    H275044   1.079   3.616   3.880 -1.3118 -0.1104  0.2246
17877TIP3   OH275045   3.461   3.516  17.129 -0.6440  0.1249 -0.0128
17877TIP3    H175046   3.529   3.465  17.172 -1.6337 -1.7075 -0.5235
17877TIP3    H275047   3.476   3.503  17.036 -0.7491  1.0375 -0.1699
17878TIP3   OH275048   2.546   3.004   0.090 -0.5117 -1.1530  0.4299
17878TIP3    H175049   2.489   2.968   0.023 -0.0672  0.3710 -0.8301
17878TIP3    H275050   2.487   3.035   0.158 -1.1574 -0.5073 -0.3935
17879TIP3   OH275051   4.807   1.408  14.632 -0.3278 -0.7488  0.0032
17879TIP3    H175052   4.874   1.457  14.585 -0.7306  1.3288  1.4717
17879TIP3    H275053   4.856   1.356  14.696  0.1550 -2.9317 -2.0344
17880TIP3   OH275054   5.565   6.746  12.892 -0.3712  0.3354 -0.6134
17880TIP3    H175055   5.637   6.795  12.852  0.4464 -1.4745 -1.4749
17880TIP3    H275056   5.606   6.697  12.964 -1.1732  0.8950  0.2476
17881TIP3   OH275057   6.157   6.445  16.671  0.4491 -0.2441 -0.5114
17881TIP3    H175058   6.151   6.445  16.575 -0.2801  1.8308 -0.5253
17881TIP3    H275059   6.116   6.363  16.697  2.0882 -1.6311 -1.9964
17882TIP3   OH275060   1.720   0.020  14.318 -0.7303 -0.0741 -0.4420
17882TIP3    H175061   1.730  -0.014  14.407  0.0431  0.4202 -0.3295
17882TIP3    H275062   1.750   0.111  14.323 -0.0729 -0.2276 -1.3472
17883TIP3   OH275063   4.916   1.560  16.888  0.4968  0.1490 -0.1289
17883TIP3    H175064   4.837   1.578  16.837  0.1261 -0.0817  0.3599
17883TIP3    H275065   4.936   1.468  16.870 -0.3243 -0.2815  1.0655
17884TIP3   OH275066   0.341   0.673   1.457 -0.1762  0.1590  0.3391
17884TIP3    H175067   0.415   0.733   1.464  1.0778 -0.6765 -3.6213
17884TIP3    H275068   0.368   0.596   1.508  0.0823  1.1602  1.7921
17885TIP3   OH275069   4.701   4.544  15.548  0.0060 -0.0381  0.0915
17885TIP3    H175070   4.691   4.632  15.586 -0.6883  0.1071 -0.4028
17885TIP3    H275071   4.731   4.490  15.621  2.0242  0.9241  0.0391
17886TIP3   OH275072   4.251   2.486   6.476  0.0598  0.1927 -0.4468
17886TIP3    H175073   4.287   2.570   6.447 -0.6288  1.2850  1.6540
17886TIP3    H275074   4.319   2.451   6.535  0.3975 -0.8301 -1.4002
17887TIP3   OH275075   0.873   1.772  11.368 -0.8720  0.2223  0.2998
17887TIP3    H175076   0.927   1.850  11.352  0.7701 -0.9127  0.0048
17887TIP3    H275077   0.794   1.786  11.317 -0.0617  1.1635 -0.7560
17888TIP3   OH275078   1.809   4.373  15.444  0.6904  0.7041 -0.7585
17888TIP3    H175079   1.880   4.366  15.508  2.1461  2.3394 -2.1271
17888TIP3    H275080   1.741   4.424  15.489  0.6874 -0.1410  0.2516
17889TIP3   OH275081   3.701   3.773  14.056  0.3313  0.4235  0.4969
17889TIP3    H175082   3.754   3.702  14.093 -1.0893 -0.8220  0.2548
17889TIP3    H275083   3.725   3.850  14.107  2.4808 -0.0353  0.2855
17890TIP3   OH275084   1.498   0.901  14.305 -0.6652  0.3861  0.0132
17890TIP3    H175085   1.463   0.855  14.381  1.4313 -2.7413 -0.7411
17890TIP3    H275086   1.589   0.920  14.327  1.0057 -3.3779 -2.5760
17891TIP3   OH275087   2.992   4.530  12.949 -0.1926 -0.3668 -0.2175
17891TIP3    H175088   2.933   4.455  12.936  1.3540 -1.6474 -0.2270
17891TIP3    H275089   2.974   4.560  13.037 -1.1714 -0.4519 -0.3855
17892TIP3   OH275090   5.588   5.660  16.242  0.5816 -0.4007 -0.1320
17892TIP3    H175091   5.674   5.660  16.284  1.3842  1.6799 -1.6252
17892TIP3    H275092   5.528   5.695  16.308  1.5062  1.2014 -0.1032
17893TIP3   OH275093   3.087   0.296  12.229  0.0680 -0.1929  0.4231
17893TIP3    H175094   3.113   0.361  12.163  0.1160 -0.0050  0.6268
17893TIP3    H275095   3.003   0.263  12.197 -0.1420  0.2460  0.5129
17894TIP3   OH275096   5.242   5.379  15.110  0.4774  0.2429  0.3809
17894TIP3    H175097   5.301   5.317  15.068  1.2382  1.5340 -0.4879
17894TIP3    H275098   5.164   5.327  15.130  0.8930 -0.8782 -0.7835
17895TIP3   OH275099   1.260   5.826  11.738  0.0583  0.4461  0.2959
17895TIP3    H175100   1.188   5.831  11.676 -1.1877  1.5131  1.7555
17895TIP3    H275101   1.318   5.899  11.713 -0.8376  1.3640  0.8372
17896TIP3   OH275102   0.562   1.206   5.776  0.9881 -0.2808  0.4760
17896TIP3    H175103   0.492   1.181   5.836 -0.4803  1.1080 -0.5797
17896TIP3    H275104   0.615   1.267   5.826 -0.6404  1.4399  0.1992
17897TIP3   OH275105   6.524   0.964   4.435  0.1342  0.1067  0.6446
17897TIP3    H175106   6.566   0.904   4.373 -1.3149  0.7084 -0.9652
17897TIP3    H275107   6.597   1.015   4.472  1.3954 -2.4199  1.9331
17898TIP3   OH275108   4.642   0.035   4.876 -0.2189 -0.2001 -0.0620
17898TIP3    H175109   4.548   0.045   4.858 -0.4060 -0.5855  0.6624
17898TIP3    H275110   4.647   0.019   4.970  0.5649 -0.3438 -0.1191
17899TIP3   OH275111   1.387   5.092   4.776  1.2439  0.2688  0.7856
17899TIP3    H175112   1.319   5.026   4.789  1.7256 -0.4260 -0.1315
17899TIP3    H275113   1.349   5.172   4.811 -0.4626  0.1335 -0.5904
17900TIP3   OH275114   0.114   5.017   2.522  0.3265 -0.5535 -0.7717
17900TIP3    H175115   0.020   5.004   2.526  0.1793  0.6352 -0.0482
17900TIP3    H275116   0.144   4.957   2.453 -0.8360 -1.4994 -0.4773
17901TIP3   OH275117   3.173   6.487   3.939 -0.5430  0.0632 -0.2937
17901TIP3    H175118   3.105   6.536   3.895  0.0760  1.1651 -0.0516
17901TIP3    H275119   3.198   6.419   3.877 -1.1483  0.2866 -0.7833
17902TIP3   OH275120   0.284   0.061  16.255 -0.9708 -0.4462  0.4305
17902TIP3    H175121   0.227   0.034  16.327  0.0277  0.4532  1.6073
17902TIP3    H275122   0.265   0.154  16.243 -0.3741 -0.3367  0.2765
17903TIP3   OH275123   1.071   5.116  11.311 -0.1399 -0.1461 -0.1716
17903TIP3    H175124   1.058   5.210  11.296  1.3640  0.2028  0.5100
17903TIP3    H275125   1.114   5.085  11.231  0.4774  0.0195  0.0876
17904TIP3   OH275126   5.776   2.168   2.974 -0.3740 -0.0407 -0.4238
17904TIP3    H175127   5.744   2.240   3.028 -1.1641 -1.4216  1.0623
17904TIP3    H275128   5.846   2.205   2.922 -1.6027  2.0934 -0.6491
17905TIP3   OH275129   2.161   3.299  16.424  0.2949  0.1682 -0.0365
17905TIP3    H175130   2.110   3.316  16.345  0.9326 -0.0510 -0.5057
17905TIP3    H275131   2.203   3.214  16.408  1.8552  0.9383 -0.2356
17906TIP3   OH275132   3.000   5.439  10.633 -0.5334 -0.9428  0.4404
17906TIP3    H175133   3.061   5.365  10.633 -0.7823 -1.1668  1.4643
17906TIP3    H275134   3.055   5.515  10.614 -0.2770 -1.3809 -0.6210
17907TIP3   OH275135   3.006   0.639   4.007  0.0451  0.1882  0.1378
17907TIP3    H175136   2.966   0.702   3.948 -2.7726  0.0451  1.7296
17907TIP3    H275137   2.953   0.560   3.999  0.6778 -0.4256  1.5219
17908TIP3   OH275138   0.503   0.689  14.672 -0.3961  0.4920 -0.3171
17908TIP3    H175139   0.464   0.680  14.585 -0.2884 -0.0121 -0.3173
17908TIP3    H275140   0.591   0.652  14.663 -0.2278  0.8291 -0.0985
17909TIP3   OH275141   1.523   6.558   5.968 -0.0812  0.5117 -0.0735
17909TIP3    H175142   1.554   6.647   5.951  0.8764  0.2507  0.2517
17909TIP3    H275143   1.563   6.505   5.898 -0.7079  0.3390 -0.3118
17910TIP3   OH275144   1.218   1.211  11.103  0.2152 -0.0966 -0.3950
17910TIP3    H175145   1.138   1.229  11.053  0.4369 -0.2771 -0.8181
17910TIP3    H275146   1.285   1.195  11.037  0.7286  0.5584 -0.0510
17911TIP3   OH275147   6.401   0.679  16.656 -0.1460 -0.7674 -0.2895
17911TIP3    H175148   6.454   0.756  16.675 -1.2491  0.0169 -0.2437
17911TIP3    H275149   6.443   0.638  16.580 -0.5007  0.8933 -1.4475
17912TIP3   OH275150   2.068   6.388   0.410  0.2089  0.1921 -0.2170
17912TIP3    H175151   2.059   6.451   0.338 -0.4056  0.5782  0.1861
17912TIP3    H275152   2.129   6.429   0.471  1.0205 -0.2986 -0.6774
17913TIP3   OH275153   2.790   3.112  12.730  0.7966 -1.0113 -1.1756
17913TIP3    H175154   2.753   3.179  12.786 -1.5283 -1.7958 -1.6593
17913TIP3    H275155   2.884   3.114  12.748  0.5469  1.0491  0.1842
17914TIP3   OH275156   2.555   3.356  12.080 -0.0464  0.7144 -0.3367
17914TIP3    H175157   2.637   3.405  12.076  0.3322  0.2648  1.1900
17914TIP3    H275158   2.546   3.332  12.172  0.3190 -2.9659 -1.1386
17915TIP3   OH275159   0.816   2.554   3.136 -0.2939  0.3724 -0.4120
17915TIP3    H175160   0.860   2.470   3.134  2.1002  1.2022  4.1935
17915TIP3    H275161   0.731   2.536   3.175 -0.3176 -0.0374 -0.6496
17916TIP3   OH275162   6.678   6.559  12.227  0.4175  0.1995 -0.0009
17916TIP3    H175163   6.620   6.563  12.151 -0.0478 -0.1952  0.3220
17916TIP3    H275164   6.762   6.529  12.192 -0.2748 -1.7576 -0.1281
17917TIP3   OH275165   1.889   4.101  15.681  0.1908 -0.5680  0.3990
17917TIP3    H175166   1.945   4.029  15.709 -1.3204 -2.2727 -0.6997
17917TIP3    H275167   1.946   4.178  15.682  1.9111 -1.7857  1.4636
17918TIP3   OH275168   3.907   1.047  16.651 -0.2581 -0.1882 -0.1824
17918TIP3    H175169   3.989   1.086  16.680 -0.2980  0.0019 -0.3249
17918TIP3    H275170   3.841   1.083  16.711  0.2024 -3.1052  2.3622
17919TIP3   OH275171   5.981   3.441  14.930  0.2141 -0.1844 -0.4975
17919TIP3    H175172   6.020   3.525  14.957  0.9518  0.1160 -2.3500
17919TIP3    H275173   5.984   3.443  14.834 -2.2274 -1.1905 -0.6678
17920TIP3   OH275174   2.117   0.291   0.203 -0.2969 -0.2884 -0.0269
17920TIP3    H175175   2.101   0.366   0.260 -0.5688 -0.4433  0.1000
17920TIP3    H275176   2.066   0.220   0.241 -0.1873 -0.4910 -0.2528
17921TIP3   OH275177   3.018   1.251   2.106 -0.1889 -0.5451 -0.5992
17921TIP3    H175178   3.075   1.326   2.122  0.6205 -0.8502 -1.8930
17921TIP3    H275179   3.078   1.180   2.084 -1.0251 -1.1364 -1.0191
17922TIP3   OH275180   2.087   4.910   2.030 -0.0849 -0.2920 -0.3861
17922TIP3    H175181   2.136   4.991   2.047  0.8262 -0.8339 -0.4270
17922TIP3    H275182   2.128   4.872   1.953 -1.0436 -0.3886 -0.8658
17923TIP3   OH275183   2.853   6.156  13.209 -0.7353 -0.5325 -0.3243
17923TIP3    H175184   2.899   6.170  13.126 -1.5501 -0.2845 -0.7417
17923TIP3    H275185   2.824   6.244  13.235  1.0519 -0.3170  1.1606
17924TIP3   OH275186   3.095   2.521  11.871  0.4262  0.0317  0.0134
17924TIP3    H175187   3.069   2.612  11.881  1.1389  0.0231  2.6235
17924TIP3    H275188   3.180   2.524  11.828 -0.6310  0.4045 -2.1789
17925TIP3   OH275189   5.916   6.688   5.334 -1.4710  0.6528 -0.2190
17925TIP3    H175190   5.852   6.675   5.404 -0.2935 -0.2998  0.7209
17925TIP3    H275191   5.879   6.759   5.281 -2.7964  0.8298  0.8835
17926TIP3   OH275192   4.102   5.472  16.919  0.4466  0.0564  0.5526
17926TIP3    H175193   4.072   5.424  16.997 -0.6045  0.2437  0.2827
17926TIP3    H275194   4.033   5.537  16.904 -0.5460 -1.4454 -1.8846
17927TIP3   OH275195   0.497   6.287  15.856  0.0916  0.1910  0.3160
17927TIP3    H175196   0.526   6.376  15.876 -0.0421  0.3330 -0.1233
17927TIP3    H275197   0.404   6.287  15.876 -0.1982  0.5384 -0.9667
17928TIP3   OH275198   4.501   4.269   3.788 -0.5094  0.4073 -0.7249
17928TIP3    H175199   4.507   4.320   3.869 -0.9336  1.7927 -1.5382
17928TIP3    H275200   4.442   4.197   3.810  0.6550 -0.1898  0.6487
17929TIP3   OH275201   6.093   3.154  14.307  0.4354  0.0316  0.4508
17929TIP3    H175202   6.118   3.231  14.357  0.2790 -0.2518  0.9746
17929TIP3    H275203   6.003   3.173  14.278 -0.3035 -0.7040  2.1353
17930TIP3   OH275204   3.429   1.592  15.544  0.3544  0.3089  0.5705
17930TIP3    H175205   3.512   1.639  15.537  0.5075 -0.1386 -0.8711
17930TIP3    H275206   3.372   1.636  15.481  0.6788 -1.7450 -1.2734
17931TIP3   OH275207   3.760   6.284  16.015 -0.1075 -0.2043 -0.0176
17931TIP3    H175208   3.708   6.359  16.041  2.8503  2.3224 -0.8286
17931TIP3    H275209   3.821   6.271  16.087 -0.3522 -1.6804 -0.0424
17932TIP3   OH275210   6.259   0.722  17.438  0.4048 -0.1820  0.1352
17932TIP3    H175211   6.258   0.649  17.375 -1.8883 -0.5459  0.4947
17932TIP3    H275212   6.315   0.692  17.509  0.0273 -1.3284 -0.0337
17933TIP3   OH275213   4.703   4.751  11.802  0.3676 -0.4471  0.3187
17933TIP3    H175214   4.780   4.769  11.749  0.0653 -2.4973 -0.9114
17933TIP3    H275215   4.668   4.669  11.767 -3.5917  1.4030 -0.6549
17934TIP3   OH275216   2.020   0.030   4.872  0.3646  0.2648 -0.1553
17934TIP3    H175217   1.943   0.023   4.929  1.6425 -0.3656  1.6077
17934TIP3    H275218   1.985   0.036   4.784 -1.7129  0.7195  0.6466
17935TIP3   OH275219   5.508   6.543   4.367 -0.4811 -0.4298  0.7732
17935TIP3    H175220   5.441   6.609   4.379  0.9631  1.5831 -1.4002
17935TIP3    H275221   5.570   6.558   4.439  0.3676  1.3816 -0.2691
17936TIP3   OH275222   5.511   2.598   6.337  0.3437  0.1885  0.1095
17936TIP3    H175223   5.560   2.674   6.368  0.0153  0.6357 -0.4456
17936TIP3    H275224   5.419   2.624   6.347  0.1537 -0.9658  1.9773
17937TIP3   OH275225   6.148   2.533  15.944  0.2128  0.2031 -0.1019
17937TIP3    H175226   6.161   2.440  15.925 -0.0267  0.2792 -0.6698
17937TIP3    H275227   6.161   2.540  16.038  0.7484 -0.3182 -0.1275
17938TIP3   OH275228   1.453   0.368  11.660  0.7126  0.4933 -0.1545
17938TIP3    H175229   1.414   0.382  11.573  0.2372  0.7190  0.0929
17938TIP3    H275230   1.383   0.327  11.711  0.3810  2.0349  0.6657
17939TIP3   OH275231   4.042   5.814  11.544  0.6506 -0.2444 -0.0489
17939TIP3    H175232   4.088   5.848  11.467 -0.1673 -0.1052 -0.4908
17939TIP3    H275233   3.960   5.781  11.509 -0.1116  0.6037  0.8890
17940TIP3   OH275234   1.291   3.286   2.553  0.1283  0.6380 -0.0431
17940TIP3    H175235   1.353   3.224   2.591  1.7719  0.4237 -2.8434
17940TIP3    H275236   1.245   3.323   2.629  3.1114  0.2451  2.1325
17941TIP3   OH275237   5.942   0.487  15.593  0.1830  0.3257  0.7459
17941TIP3    H175238   5.955   0.577  15.561 -2.7213  0.3224 -0.8201
17941TIP3    H275239   5.983   0.486  15.679  1.6738  2.6717  0.1651
17942TIP3   OH275240   0.674   5.132   2.417  0.3206 -0.4655  0.3621
17942TIP3    H175241   0.696   5.050   2.374 -0.0239 -0.4210  0.0986
17942TIP3    H275242   0.579   5.141   2.405  0.4363  0.2327 -0.0850
17943TIP3   OH275243   2.255   5.047   0.494 -0.6565  0.3322  0.2420
17943TIP3    H175244   2.270   5.138   0.518  1.0374  0.1508 -0.0026
17943TIP3    H275245   2.232   5.050   0.401  0.0098  0.4664  0.0801
17944TIP3   OH275246   5.964   1.033  14.693  0.4418  0.2033 -0.2567
17944TIP3    H175247   5.876   1.010  14.663  0.5745  0.2896 -0.7131
17944TIP3    H275248   5.949   1.090  14.768  0.1123 -0.7710  0.4367
17945TIP3   OH275249   2.511   4.626   6.043  0.4711 -0.3096  0.9687
17945TIP3    H175250   2.562   4.705   6.057  0.4073  0.0516 -0.6151
17945TIP3    H275251   2.485   4.631   5.951 -0.9485 -1.3465  1.2878
17946TIP3   OH275252   2.760   6.125  14.689  0.2431 -0.0897 -0.1295
17946TIP3    H175253   2.723   6.149  14.604  0.9151  1.0907 -0.1114
17946TIP3    H275254   2.689   6.079  14.734  0.1844 -1.6215 -1.6840
17947TIP3   OH275255   0.352   1.471   1.437 -0.5251  0.3935  0.1589
17947TIP3    H175256   0.398   1.403   1.486  0.3384  1.1002  0.3546
17947TIP3    H275257   0.342   1.543   1.499 -0.6482  0.7730 -0.2925
17948TIP3   OH275258   1.267   1.911   5.887  0.3767  0.0991  0.2017
17948TIP3    H175259   1.328   1.924   5.959  0.0168 -0.4404  0.6185
17948TIP3    H275260   1.195   1.861   5.926 -0.4312  0.9029 -0.2242
17949TIP3   OH275261   0.186   6.201   5.774  0.1125  0.2432 -0.7089
17949TIP3    H175262   0.276   6.234   5.776 -0.0899  0.8647 -1.4002
17949TIP3    H275263   0.196   6.106   5.777  0.7635  0.3175 -0.0665
17950TIP3   OH275264   4.935   4.291   1.189 -0.2351  0.2117 -0.0459
17950TIP3    H175265   4.951   4.291   1.283  1.9118 -0.0967 -0.3646
17950TIP3    H275266   4.840   4.300   1.181 -0.4616  0.2854  2.1316
17951TIP3   OH275267   2.322   3.551   4.608 -0.3665  0.1764 -0.0964
17951TIP3    H175268   2.297   3.474   4.557  0.1158  0.3411 -0.5958
17951TIP3    H275269   2.359   3.611   4.544 -0.7421  0.8320  0.2866
17952TIP3   OH275270   6.224   5.443   6.397 -0.0285  0.2365 -0.0481
17952TIP3    H175271   6.261   5.440   6.486  0.0858  2.6200  0.0429
17952TIP3    H275272   6.144   5.391   6.403 -0.2548  0.7221  1.5730
17953TIP3   OH275273   1.094   0.784   1.076  0.6042  0.7867 -0.3706
17953TIP3    H175274   1.172   0.753   1.121  0.4107 -0.1625 -0.6683
17953TIP3    H275275   1.022   0.764   1.135  0.4875  0.8160 -0.5024
17954TIP3   OH275276   4.332   6.228  14.471 -0.0140  0.0750  0.1015
17954TIP3    H175277   4.259   6.178  14.433  1.2552 -2.8124  1.1604
17954TIP3    H275278   4.293   6.310  14.499 -2.2506 -0.2108 -1.8196
17955TIP3   OH275279   6.244   4.323  11.557 -0.0947  0.5608 -0.0465
17955TIP3    H175280   6.259   4.326  11.463  0.8586  2.0520  0.1137
17955TIP3    H275281   6.155   4.355  11.568 -0.4764 -0.3355 -0.4847
17956TIP3   OH275282   0.111   2.148  15.152  0.5141 -0.1095 -0.1877
17956TIP3    H175283   0.190   2.128  15.101  0.1529 -0.9263 -0.4509
17956TIP3    H275284   0.039   2.120  15.096 -0.1011  2.5845 -0.8455
17957TIP3   OH275285   0.236   3.050  13.684 -0.0888 -0.3478 -0.0451
17957TIP3    H175286   0.171   3.055  13.614 -0.3779 -1.2670  0.1462
17957TIP3    H275287   0.191   3.006  13.756  0.7048 -0.9179  0.1251
17958TIP3   OH275288   6.672   3.007   1.257  0.0918  0.2300 -0.2468
17958TIP3    H175289   6.586   3.049   1.248  0.4853  1.4960  1.3816
17958TIP3    H275290   6.657   2.936   1.320  0.0938 -0.0311 -0.5379
17959TIP3   OH275291   1.700   5.334  11.892 -0.3807  0.4959  0.0124
17959TIP3    H175292   1.611   5.307  11.914 -1.6710  2.3795 -2.4843
17959TIP3    H275293   1.710   5.419  11.935  0.8359 -0.3334  1.4896
17960TIP3   OH275294   6.189   5.425   6.735 -0.2412 -0.0179  0.2050
17960TIP3    H175295   6.279   5.419   6.703 -0.4714  0.6381 -0.5914
17960TIP3    H275296   6.195   5.401   6.827  0.7385 -0.0579  0.1392
17961TIP3   OH275297   3.418   5.180   1.079  0.1895  0.0774  0.5155
17961TIP3    H175298   3.345   5.201   1.021  1.6454  1.0426 -1.0666
17961TIP3    H275299   3.459   5.264   1.098  0.4640 -0.3560  2.0187
17962TIP3   OH275300   4.121   2.442  17.181  0.3199  0.1700 -0.2541
17962TIP3    H175301   4.140   2.362  17.230  1.0181  1.1532  1.1258
17962TIP3    H275302   4.026   2.439  17.166  0.6064 -1.9213 -2.0804
17963TIP3   OH275303   3.200   6.256   3.157  0.7082  0.0663  0.5216
17963TIP3    H175304   3.270   6.200   3.124  0.2060 -0.6071  0.6035
17963TIP3    H275305   3.246   6.320   3.212  1.3447  0.1129 -0.0404
17964TIP3   OH275306   4.856   1.860   2.911  0.0466 -0.0525  0.3084
17964TIP3    H175307   4.865   1.929   2.976 -0.3977  1.3372 -1.0507
17964TIP3    H275308   4.783   1.806   2.943 -0.6374  1.0321  0.6280
17965TIP3   OH275309   1.550   1.738  14.861  0.1602 -0.0697  0.3086
17965TIP3    H175310   1.484   1.765  14.925  0.4972 -0.7759  0.9676
17965TIP3    H275311   1.593   1.663  14.901  0.4623 -0.4532 -0.6992
17966TIP3   OH275312   2.892   2.831   4.924  0.0895 -0.9078 -0.5949
17966TIP3    H175313   2.962   2.772   4.954 -1.2557 -1.8569  0.8799
17966TIP3    H275314   2.937   2.902   4.879  1.9271 -1.9545 -0.4929
17967TIP3   OH275315   5.503   4.646   4.831 -0.3304 -0.0225 -0.3273
17967TIP3    H175316   5.536   4.645   4.741 -0.2312  0.8936 -0.3091
17967TIP3    H275317   5.573   4.686   4.882 -0.3809 -0.5500  0.1645
17968TIP3   OH275318   1.633   2.906  16.231  0.2009  0.0157 -0.1500
17968TIP3    H175319   1.663   2.944  16.314 -1.3549 -0.3228  0.6044
17968TIP3    H275320   1.538   2.896  16.242  0.2632 -2.1260 -1.1313
17969TIP3   OH275321   2.557   6.007   3.101 -0.3723 -0.0601  0.0749
17969TIP3    H175322   2.644   6.036   3.072 -0.1567  0.9023  1.5921
17969TIP3    H275323   2.575   5.948   3.175 -1.0252  2.1543  2.0973
17970TIP3   OH275324   6.395   2.254   3.995  0.1058 -0.4614 -0.0801
17970TIP3    H175325   6.373   2.164   3.970 -0.1864  0.0078 -1.6290
17970TIP3    H275326   6.360   2.308   3.924  0.9751  0.8132  0.4197
17971TIP3   OH275327   0.758   1.989  14.062 -0.1592  0.3502 -0.4483
17971TIP3    H175328   0.673   1.954  14.090 -0.8131  0.8374 -1.7473
17971TIP3    H275329   0.783   1.934  13.989  0.7788  0.0593  0.0829
17972TIP3   OH275330   4.830   0.004   2.913 -0.0987 -0.2385 -0.2774
17972TIP3    H175331   4.790   0.043   2.991 -0.5154  0.8138 -0.9894
17972TIP3    H275332   4.818   0.070   2.845  0.1862 -1.1736 -1.2560
17973TIP3   OH275333   1.403   5.551  12.177  0.2282  0.1797 -0.2598
17973TIP3    H175334   1.337   5.578  12.241  0.1533  0.9420 -0.6480
17973TIP3    H275335   1.433   5.466  12.209  1.9993  1.5911  2.1937
17974TIP3   OH275336   3.768   6.677   4.967 -0.1315 -0.1189  0.1128
17974TIP3    H175337   3.841   6.681   5.028  0.1785 -2.4408 -0.0142
17974TIP3    H275338   3.801   6.719   4.888  1.0322 -0.9180  0.1343
17975TIP3   OH275339   4.909   5.764  12.859  0.2142  0.4930  0.0659
17975TIP3    H175340   4.865   5.840  12.823  0.5728 -0.0729 -1.6837
17975TIP3    H275341   4.980   5.800  12.912 -1.1709  1.3753  1.4024
17976TIP3   OH275342   3.191   1.713   0.589 -0.2787 -0.1718  1.1181
17976TIP3    H175343   3.283   1.709   0.616 -0.0799 -0.2489  0.4370
17976TIP3    H275344   3.142   1.699   0.670  0.3085 -0.0136  1.5060
17977TIP3   OH275345   1.770   1.197  13.827 -0.6432 -0.4442  0.3407
17977TIP3    H175346   1.760   1.146  13.908 -0.1231 -3.0040 -1.1072
17977TIP3    H275347   1.816   1.139  13.767 -3.0925  0.4356 -2.6350
17978TIP3   OH275348   2.109   1.210  12.816 -0.5063 -0.3194  0.0823
17978TIP3    H175349   2.158   1.156  12.878 -0.5774  0.0875  0.4969
17978TIP3    H275350   2.169   1.280  12.792 -1.4488  1.2818  2.0408
17979TIP3   OH275351   4.556   1.939  11.546 -0.3308  0.4603  0.9469
17979TIP3    H175352   4.487   1.997  11.512  0.4251 -0.4210 -2.4179
17979TIP3    H275353   4.638   1.982  11.522  0.3319 -2.7852 -3.8313
17980TIP3   OH275354   3.448   5.536   5.403  0.3955 -0.2242  0.1460
17980TIP3    H175355   3.367   5.512   5.450 -1.0532  2.6068 -0.6460
17980TIP3    H275356   3.512   5.471   5.431 -1.6813 -1.5556  2.2219
17981TIP3   OH275357   5.737   0.678  11.058  0.1768 -0.1354 -0.0541
17981TIP3    H175358   5.676   0.717  11.121  0.1207 -0.2768 -0.0198
17981TIP3    H275359   5.683   0.618  11.006 -0.2812  1.6305 -1.7580
17982TIP3   OH275360   6.099   2.757   5.402 -0.4146 -0.7736 -0.0639
17982TIP3    H175361   6.016   2.723   5.437 -0.3215 -0.2107  0.7351
17982TIP3    H275362   6.075   2.799   5.320 -1.4416  1.7845  1.4189
17983TIP3   OH275363   4.577   6.176  14.527 -0.0337  0.1646  0.3638
17983TIP3    H175364   4.494   6.210  14.492  0.3094  1.1629  0.5097
17983TIP3    H275365   4.609   6.244  14.585  0.9715 -0.1584  0.2040
17984TIP3   OH275366   1.378   1.498  16.898  0.4498 -0.3755  0.1318
17984TIP3    H175367   1.302   1.455  16.936  0.1301 -0.7259 -0.8722
17984TIP3    H275368   1.370   1.589  16.925 -1.4797  0.0611 -1.6526
17985TIP3   OH275369   5.378   2.202  11.758  0.1031 -0.1826 -0.3371
17985TIP3    H175370   5.397   2.287  11.797  1.9084 -0.3424 -0.7610
17985TIP3    H275371   5.454   2.148  11.781  0.1932 -0.9218 -2.2113
17986TIP3   OH275372   0.078   0.159  16.058  0.3461  0.3270  0.3679
17986TIP3    H175373   0.116   0.232  16.108  0.5232  1.2498 -1.0772
17986TIP3    H275374   0.047   0.198  15.977 -0.0203 -1.1312 -0.2264
17987TIP3   OH275375   2.440   6.353   5.797 -0.4962  0.1499  0.5193
17987TIP3    H175376   2.471   6.263   5.793  0.1773  0.3123  1.6108
17987TIP3    H275377   2.477   6.388   5.878  2.7793  2.7202 -1.8066
17988TIP3   OH275378   1.885   0.702   2.626 -0.2375  0.3119 -0.2196
17988TIP3    H175379   1.835   0.709   2.707  2.1009  1.8581  1.1801
17988TIP3    H275380   1.939   0.781   2.623  0.2880 -0.0309 -2.9503
17989TIP3   OH275381   3.651   4.277   2.483 -0.3783  0.2391 -0.1363
17989TIP3    H175382   3.703   4.285   2.403 -0.9183 -0.7749 -0.6077
17989TIP3    H275383   3.666   4.187   2.513  0.4972  0.8540  1.3988
17990TIP3   OH275384   2.815   2.893  12.899  0.4894  0.0006  0.9170
17990TIP3    H175385   2.772   2.941  12.828 -0.2505 -0.9457  0.7057
17990TIP3    H275386   2.860   2.960  12.950 -0.6618  0.9474  0.7229
17991TIP3   OH275387   1.895   3.830  15.408 -0.0741 -0.1270 -0.1608
17991TIP3    H175388   1.901   3.816  15.503  1.2610  0.0680 -0.1946
17991TIP3    H275389   1.878   3.743  15.372 -2.2634  0.0462  0.3503
17992TIP3   OH275390   6.270   2.649  14.888 -0.2818  0.5117  0.5115
17992TIP3    H175391   6.326   2.577  14.859 -0.5521  0.8057 -0.8318
17992TIP3    H275392   6.301   2.725  14.838 -0.1900  1.2701  1.6912
17993TIP3   OH275393   3.753   0.149  12.440  0.4510 -0.1375 -0.3178
17993TIP3    H175394   3.675   0.202  12.455 -0.4724 -1.7528  0.9359
17993TIP3    H275395   3.820   0.213  12.414 -0.5818  1.6539  1.1121
17994TIP3   OH275396   2.183   1.464  14.434 -0.4519 -0.0598 -0.5476
17994TIP3    H175397   2.131   1.513  14.497 -1.5584 -0.4403 -1.1456
17994TIP3    H275398   2.242   1.529  14.396  0.2558  0.1727  0.8576
17995TIP3   OH275399   1.568   0.368   2.999  0.4566 -0.1011 -0.2148
17995TIP3    H175400   1.535   0.298   2.942  0.6909 -0.9085  0.6070
17995TIP3    H275401   1.632   0.414   2.946  2.0709 -2.0121 -0.0470
17996TIP3   OH275402   1.005   1.846   2.599 -0.2226 -0.0672 -0.5476
17996TIP3    H175403   0.988   1.922   2.655  0.7175  0.0449 -0.3977
17996TIP3    H275404   1.099   1.849   2.582 -0.5892  0.3350 -2.7750
17997TIP3   OH275405   5.785   5.587   2.137 -0.2367 -0.5843  0.0843
17997TIP3    H175406   5.740   5.670   2.152  0.6105 -0.0123 -0.4423
17997TIP3    H275407   5.714   5.522   2.131 -0.9905  0.2708 -0.6145
17998TIP3   OH275408   2.450   2.070  12.093 -0.3256  0.0236 -0.4456
17998TIP3    H175409   2.408   1.993  12.056 -1.0851  0.8236 -1.3215
17998TIP3    H275410   2.437   2.062  12.188 -0.8339 -0.6697 -0.5671
17999TIP3   OH275411   2.486   5.908  13.551 -0.2931  0.0028  0.5099
17999TIP3    H175412   2.555   5.950  13.499  0.3197  0.1397  1.4187
17999TIP3    H275413   2.422   5.978  13.566 -0.4196 -0.0068  0.0542
18000TIP3   OH275414   5.951   5.530  11.639 -0.0568  0.5452 -0.1261
18000TIP3    H175415   5.916   5.456  11.690  0.6792  1.1914  1.3835
18000TIP3    H275416   5.925   5.511  11.549 -0.1490 -1.4154  0.2511
18001TIP3   OH275417   3.917   4.239  17.431  0.2918 -0.5881  0.1236
18001TIP3    H175418   3.872   4.321  17.452 -0.3332 -0.5542 -1.2325
18001TIP3    H275419   4.009   4.256  17.449  0.1453  0.3685 -0.0163
18002TIP3   OH275420   5.052   0.392   3.346  0.2351 -0.7103 -0.2678
18002TIP3    H175421   5.030   0.397   3.439 -2.4879  0.5332 -0.9030
18002TIP3    H275422   4.990   0.329   3.310  2.0623 -2.1392 -1.1029
18003TIP3   OH275423   3.815   5.708   5.379 -0.0129  0.3536  0.9211
18003TIP3    H175424   3.826   5.619   5.345 -1.8834 -0.0673  1.3053
18003TIP3    H275425   3.904   5.744   5.379  0.9452 -1.8105  1.6198
18004TIP3   OH275426   3.275   0.687  13.153  0.0366  0.1874 -0.3195
18004TIP3    H175427   3.219   0.635  13.211  0.6198  0.2398  0.2952
18004TIP3    H275428   3.265   0.646  13.067  1.4016 -1.7025  0.3648
18005TIP3   OH275429   3.515   5.084  16.946 -0.0981 -0.4611 -0.2160
18005TIP3    H175430   3.441   5.067  17.004  0.3511  1.3589  0.9516
18005TIP3    H275431   3.522   5.005  16.892 -4.0554 -0.0287 -1.6815
18006TIP3   OH275432   1.809   3.935   3.461 -0.4463 -0.4536  0.2780
18006TIP3    H175433   1.820   3.880   3.383 -0.8995 -0.6116  0.3200
18006TIP3    H275434   1.889   3.922   3.511  1.7819  2.7604 -2.0207
18007TIP3   OH275435   5.794   4.512   2.084 -0.1073 -0.7180 -0.1523
18007TIP3    H175436   5.772   4.576   2.017  0.6732 -1.9658 -1.6593
18007TIP3    H275437   5.712   4.467   2.102 -0.6602  0.6399  0.9158
18008TIP3   OH275438   6.200   2.530  10.746  0.0452 -0.4626  0.2588
18008TIP3    H175439   6.169   2.618  10.727  0.3256 -0.7325 -1.6980
18008TIP3    H275440   6.121   2.477  10.749  0.0004 -0.4896 -0.8103
18009TIP3   OH275441   5.675   5.243  12.784 -0.3160  0.0307  0.5087
18009TIP3    H175442   5.597   5.246  12.839  0.0948 -0.1982  1.1142
18009TIP3    H275443   5.661   5.169  12.725 -2.5734  2.5835 -2.4991
18010TIP3   OH275444   5.124   1.302   3.684 -0.2404 -0.1111  0.2286
18010TIP3    H175445   5.062   1.362   3.727  0.2578  0.0461  0.7361
18010TIP3    H275446   5.210   1.330   3.715  0.2906  0.9117 -1.9456
18011TIP3   OH275447   4.598   3.778   3.978 -0.4567 -0.0331 -0.1164
18011TIP3    H175448   4.559   3.862   4.001  0.3160 -0.2623  2.2968
18011TIP3    H275449   4.527   3.714   3.991 -1.0532  0.1983 -1.9833
18012TIP3   OH275450   3.455   0.440   0.825 -0.0975  0.0976 -0.0255
18012TIP3    H175451   3.408   0.369   0.782  0.7463 -0.5100  0.0346
18012TIP3    H275452   3.439   0.427   0.919 -0.6178  0.4842 -0.0523
18013TIP3   OH275453   4.327   6.637  13.897 -0.2058 -0.2429  0.5448
18013TIP3    H175454   4.368   6.702  13.955  1.3193 -1.6540  1.1347
18013TIP3    H275455   4.386   6.562  13.899  0.0077 -0.3386 -3.0144
18014TIP3   OH275456   3.429   1.875  16.616 -0.8487 -0.0264 -0.3039
18014TIP3    H175457   3.446   1.856  16.524  0.8479  0.4116 -0.1289
18014TIP3    H275458   3.443   1.791  16.661  0.8335  0.2585 -0.2007
18015TIP3   OH275459   1.062   2.420  14.329  0.7722  0.1237 -0.0780
18015TIP3    H175460   1.114   2.477  14.272  0.6695  0.3076  0.0119
18015TIP3    H275461   1.079   2.452  14.417  1.9537 -0.9779  0.1171
18016TIP3   OH275462   4.811   0.530   5.686  0.1828 -0.0530  0.2004
18016TIP3    H175463   4.873   0.498   5.752 -1.5624  0.0207  1.9535
18016TIP3    H275464   4.732   0.478   5.698 -1.2335  1.9718  0.2373
18017TIP3   OH275465   3.116   1.892   3.852 -0.1821 -0.0657 -0.1962
18017TIP3    H175466   3.203   1.930   3.861  0.1313 -0.4425 -1.3960
18017TIP3    H275467   3.058   1.951   3.900  0.7190  0.2227  0.5525
18018TIP3   OH275468   3.708   5.613   4.961 -0.4591  0.5062  0.0716
18018TIP3    H175469   3.789   5.663   4.975 -0.3710  0.5202 -0.4971
18018TIP3    H275470   3.644   5.655   5.019 -0.1673  0.7423  0.2280
18019TIP3   OH275471   4.712   0.497  12.659 -0.8239 -0.6798  0.5703
18019TIP3    H175472   4.675   0.482  12.572  0.9950  1.4311 -0.6697
18019TIP3    H275473   4.649   0.554  12.703 -1.6476 -1.5781  0.5833
18020TIP3   OH275474   2.615   1.049   4.315  0.6280  0.0456 -0.5554
18020TIP3    H175475   2.653   1.135   4.299  0.7182  0.2804  0.8283
18020TIP3    H275476   2.650   0.994   4.244  1.3298  0.9184 -0.9007
18021TIP3   OH275477   5.548   2.995   5.808 -0.2853  0.0933  0.2507
18021TIP3    H175478   5.524   3.083   5.777  0.1631 -0.7230 -2.7097
18021TIP3    H275479   5.499   2.984   5.889 -3.0278  1.8424 -1.0262
18022TIP3   OH275480   1.086   5.436   2.526  1.1652 -0.0763 -0.1640
18022TIP3    H175481   1.144   5.488   2.581  0.7937 -0.1445  0.2928
18022TIP3    H275482   1.026   5.499   2.487 -0.4765 -0.3262  1.8247
18023TIP3   OH275483   2.176   6.580   3.129 -0.4632 -0.2338  0.6445
18023TIP3    H175484   2.081   6.596   3.123 -0.2001  0.9156 -0.8634
18023TIP3    H275485   2.208   6.592   3.040  1.2451  0.2899  1.3087
18024TIP3   OH275486   1.862   0.683   4.148 -0.1288  0.0356  0.2323
18024TIP3    H175487   1.825   0.634   4.075  0.1803 -0.4483  0.4026
18024TIP3    H275488   1.939   0.633   4.175  0.5283  0.9035  0.0363
18025TIP3   OH275489   2.326   5.064  14.271 -0.5077  0.3370  0.8109
18025TIP3    H175490   2.410   5.103  14.248 -0.0938 -0.7395  0.4119
18025TIP3    H275491   2.280   5.132  14.320  0.6221  0.9208  1.0930
18026TIP3   OH275492   2.068   4.551  15.031 -0.1534 -0.2027  0.3431
18026TIP3    H175493   1.975   4.570  15.034 -0.4269 -0.8817 -2.0291
18026TIP3    H275494   2.095   4.548  15.123 -2.9887 -2.5672  1.2371
18027TIP3   OH275495   5.372   2.009  16.056  0.0146 -0.2191  0.2964
18027TIP3    H175496   5.411   2.016  16.143 -2.2899 -1.9637  1.6262
18027TIP3    H275497   5.438   1.964  16.003  1.4500  0.8528  1.1047
18028TIP3   OH275498   4.961   5.558   0.343 -0.2514  0.4655 -0.4740
18028TIP3    H175499   4.896   5.625   0.365  1.5518  2.0704  0.2521
18028TIP3    H275500   5.023   5.603   0.286 -0.6581 -1.5154 -2.5988
18029TIP3   OH275501   4.375   2.019   2.306  0.7693  0.1763 -0.3227
18029TIP3    H175502   4.413   2.038   2.220 -0.0630 -0.4239 -0.8356
18029TIP3    H275503   4.297   2.074   2.311  1.3147  0.9113  0.4570
18030TIP3   OH275504   6.145   0.160  10.706  0.4841 -0.2556  0.2408
18030TIP3    H175505   6.157   0.071  10.673 -1.4842 -0.0713 -1.1000
18030TIP3    H275506   6.077   0.151  10.774  0.9068  0.1063  0.7166
18031TIP3   OH275507   4.191   5.970  11.334 -0.0558 -0.1622 -0.2381
18031TIP3    H175508   4.250   5.955  11.261 -0.2038 -1.7314 -0.0759
18031TIP3    H275509   4.105   5.984  11.294  0.0901  0.3227 -0.3958
18032TIP3   OH275510   3.299   0.427   1.829  0.0841  0.3062  0.0804
18032TIP3    H175511   3.229   0.375   1.790  0.4444  0.1747 -0.4045
18032TIP3    H275512   3.256   0.508   1.857 -0.7629 -0.7746  2.0851
18033TIP3   OH275513   2.538   0.093  14.951 -0.2677 -0.0171  0.0785
18033TIP3    H175514   2.479   0.169  14.951  0.6349  0.7156  0.6577
18033TIP3    H275515   2.566   0.085  15.042  0.2593 -0.5520 -0.1280
18034TIP3   OH275516   2.593   5.817   3.292  0.0412  0.3807  0.2588
18034TIP3    H175517   2.650   5.764   3.348  0.9454  0.7364 -0.3196
18034TIP3    H275518   2.555   5.754   3.231  1.0647  0.3726 -0.3862
18035TIP3   OH275519   4.473   0.942   2.529 -0.2842  0.2703 -0.1939
18035TIP3    H175520   4.480   0.914   2.620  0.2517 -1.3218 -0.6798
18035TIP3    H275521   4.411   0.881   2.490 -0.0240  0.5228 -1.0295
18036TIP3   OH275522   3.678   3.837  16.425  0.1913  1.0513  0.8517
18036TIP3    H175523   3.688   3.879  16.339 -0.2834 -1.4926 -0.5558
18036TIP3    H275524   3.637   3.903  16.480 -1.6234  2.0646 -1.5631
18037TIP3   OH275525   2.238   4.981  13.746  0.3187  0.5799 -0.5971
18037TIP3    H175526   2.175   5.008  13.680  0.0473 -0.1664 -0.6594
18037TIP3    H275527   2.267   4.894  13.717  0.4581  0.3931  0.0803
18038TIP3   OH275528   2.864   0.460   5.459 -0.2154 -0.6922  0.1368
18038TIP3    H175529   2.771   0.472   5.438 -0.4533 -2.4640 -0.0082
18038TIP3    H275530   2.865   0.388   5.523  1.2206 -3.0591 -2.3573
18039TIP3   OH275531   3.084   3.859   2.906  0.9831  0.0570 -0.5075
18039TIP3    H175532   3.107   3.920   2.976  1.6215  0.3605 -0.9740
18039TIP3    H275533   3.011   3.808   2.941  1.2752  0.2306  0.3595
18040TIP3   OH275534   1.772   5.802  16.336  0.5761  0.7166  0.4811
18040TIP3    H175535   1.755   5.865  16.407  0.3492  1.3894 -0.1563
18040TIP3    H275536   1.768   5.717  16.378  0.8594  1.1257  1.3632
18041TIP3   OH275537   3.256   1.813  10.550 -0.0903 -0.0666  0.5792
18041TIP3    H175538   3.316   1.852  10.613  1.1449  1.2974 -1.3311
18041TIP3    H275539   3.309   1.797  10.473 -1.6509 -1.2130 -0.3137
18042TIP3   OH275540   0.620   0.616  13.539  0.1830 -0.0252  0.0095
18042TIP3    H175541   0.653   0.618  13.449  0.1083 -0.5664 -0.0341
18042TIP3    H275542   0.669   0.685  13.584 -1.4476  1.8611 -0.9838
18043TIP3   OH275543   2.197   0.677   2.965 -0.1370 -0.2146  0.1044
18043TIP3    H175544   2.236   0.692   3.051 -1.1872 -1.5504  0.8470
18043TIP3    H275545   2.113   0.723   2.968  0.0781  0.2311 -0.4381
18044TIP3   OH275546   2.645   2.409  13.882 -0.4237 -0.2163  0.3168
18044TIP3    H175547   2.601   2.483  13.924  0.1141  0.0322  0.4507
18044TIP3    H275548   2.734   2.410  13.919  0.1131  0.1020 -0.9392
18045TIP3   OH275549   1.086   1.511   0.192  0.0187  0.4540 -0.3909
18045TIP3    H175550   1.121   1.442   0.248  0.3273  0.2642 -0.8082
18045TIP3    H275551   1.005   1.538   0.234 -0.1080 -0.1690 -0.2258
18046TIP3   OH275552   2.943   6.105  15.961 -0.0257  0.0212  0.0574
18046TIP3    H175553   3.028   6.117  15.918 -0.2185  0.0183 -0.3355
18046TIP3    H275554   2.958   6.127  16.052  1.0684 -2.5866  0.5843
18047TIP3   OH275555   1.525   2.242  12.708  0.7437  0.3909 -0.5772
18047TIP3    H175556   1.460   2.199  12.763 -0.7686  1.8570 -1.1324
18047TIP3    H275557   1.541   2.326  12.750  1.7066  0.3666 -0.8773
18048TIP3   OH275558   1.265   2.660   0.295  0.2760  0.1623  0.4826
18048TIP3    H175559   1.263   2.755   0.307  0.1076  0.2550 -0.2170
18048TIP3    H275560   1.193   2.642   0.234  0.1367 -0.4451  0.8143
18049TIP3   OH275561   0.723   0.550  12.657 -0.2742 -0.5517 -0.0159
18049TIP3    H175562   0.642   0.502  12.674 -1.0509  0.3449 -1.0095
18049TIP3    H275563   0.709   0.590  12.571  2.3339 -2.6314 -1.5610
18050TIP3   OH275564   0.549   6.192   1.308 -0.2224  0.2526 -0.5042
18050TIP3    H175565   0.619   6.217   1.247  0.2562  0.7120  0.2050
18050TIP3    H275566   0.468   6.205   1.259  0.1107  1.4051 -0.7931
18051TIP3   OH275567   5.395   0.927   4.950 -0.5441 -0.1312 -0.2899
18051TIP3    H175568   5.302   0.937   4.972 -0.7005  0.5584 -1.2300
18051TIP3    H275569   5.399   0.936   4.855  0.1252 -3.0130 -0.6223
18052TIP3   OH275570   3.010   0.233  12.844 -0.6942 -0.3308  0.0280
18052TIP3    H175571   3.000   0.228  12.939  0.6215 -1.7024  0.1331
18052TIP3    H275572   2.946   0.171  12.810 -0.9438 -0.0777  0.0364
18053TIP3   OH275573   4.999   1.298  16.806 -0.1223 -0.2165 -0.9468
18053TIP3    H175574   5.092   1.302  16.788  0.2360 -0.2027  0.7430
18053TIP3    H275575   4.959   1.278  16.721  1.3293  0.5067 -1.8412
18054TIP3   OH275576   0.439   4.064   6.053  0.2704 -0.1078 -0.1126
18054TIP3    H175577   0.366   4.114   6.089  0.3745 -0.7040  1.0031
18054TIP3    H275578   0.403   4.019   5.977 -1.3146 -2.3990  1.8263
18055TIP3   OH275579   5.515   3.591   5.986 -0.3165 -0.2727 -0.2704
18055TIP3    H175580   5.489   3.613   5.896 -0.7454  0.2665 -0.0208
18055TIP3    H275581   5.434   3.597   6.036 -0.4942 -2.5253 -0.1759
18056TIP3   OH275582   0.268   6.250  15.224  0.4066  0.8265  0.6262
18056TIP3    H175583   0.188   6.259  15.276 -1.3450 -0.5236 -1.6405
18056TIP3    H275584   0.312   6.334  15.233 -1.7500  1.9598  1.2044
18057TIP3   OH275585   5.497   4.042  14.974 -0.2254  0.1218 -0.4171
18057TIP3    H175586   5.522   4.029  14.883 -0.3051 -0.0659 -0.4121
18057TIP3    H275587   5.539   3.970  15.021  0.7206  0.8221 -0.1446
18058TIP3   OH275588   4.514   2.879  14.995 -0.4069  0.0186  0.0002
18058TIP3    H175589   4.559   2.795  14.997 -0.9441 -0.2692  0.0616
18058TIP3    H275590   4.556   2.927  14.923 -0.8789 -0.7462 -0.8008
18059TIP3   OH275591   6.401   4.108  10.887  0.7155 -0.0187 -0.3691
18059TIP3    H175592   6.450   4.066  10.816  1.7973  0.5280  0.0354
18059TIP3    H275593   6.310   4.101  10.859  1.0573 -0.4640 -1.4675
18060TIP3   OH275594   5.224   0.077  14.914  0.3708 -0.2371  0.8069
18060TIP3    H175595   5.186   0.026  14.842  1.4944 -0.4540  0.3511
18060TIP3    H275596   5.308   0.035  14.932  0.6697  0.5874  1.3867
18061TIP3   OH275597   0.765   6.169   1.116 -0.1621  0.7369 -0.0282
18061TIP3    H175598   0.845   6.144   1.161  0.7274  1.3106 -1.2574
18061TIP3    H275599   0.707   6.093   1.126  1.1830 -0.4063 -0.6629
18062TIP3   OH275600   1.660   5.664  11.709  0.3121  0.0303 -0.1170
18062TIP3    H175601   1.721   5.732  11.680 -0.7425  1.4297  0.7967
18062TIP3    H275602   1.680   5.652  11.802 -0.4985  0.1908  0.0852
18063TIP3   OH275603   6.097   1.063   1.380 -0.2671 -0.0208 -0.0793
18063TIP3    H175604   6.066   0.974   1.396  1.0463 -0.3478  0.8149
18063TIP3    H275605   6.050   1.091   1.301 -0.6957 -1.4940 -0.3781
18064TIP3   OH275606   6.201   2.962   2.519 -0.2325 -0.0897  0.0663
18064TIP3    H175607   6.168   2.884   2.563  0.0076 -0.1707  0.1056
18064TIP3    H275608   6.296   2.957   2.529 -0.2278  0.3210  0.2681
18065TIP3   OH275609   6.144   2.559  15.126  0.5038 -1.2489 -0.2021
18065TIP3    H175610   6.212   2.597  15.072  0.8475 -0.9587  0.4268
18065TIP3    H275611   6.134   2.469  15.093 -0.5037 -0.5768 -1.8722
18066TIP3   OH275612   1.989   3.020   3.282 -0.0437  0.2884 -0.0220
18066TIP3    H175613   1.937   3.091   3.320 -0.3511 -0.4761  1.0423
18066TIP3    H275614   1.992   2.954   3.351  1.3275 -0.1908 -0.5162
18067TIP3   OH275615   1.515   5.409   4.286 -0.0824 -0.5045  0.2765
18067TIP3    H175616   1.437   5.455   4.315 -0.6391 -0.1517 -1.6229
18067TIP3    H275617   1.588   5.455   4.328 -0.8363 -0.5198  1.6619
18068TIP3   OH275618   1.048   5.082   1.621 -0.3052  0.1170 -0.0388
18068TIP3    H175619   1.117   5.105   1.683 -1.7689  0.8559  1.4284
18068TIP3    H275620   1.090   5.081   1.536  2.1666 -2.3628  1.0391
18069TIP3   OH275621   4.057   4.622  12.007  0.3902 -0.2265 -0.4608
18069TIP3    H175622   4.145   4.615  12.045  1.0339 -1.5430 -2.0282
18069TIP3    H275623   4.042   4.716  11.998  1.7410  0.0221 -0.3658
18070TIP3   OH275624   1.607   2.549  15.416 -0.2851  0.2947 -0.3308
18070TIP3    H175625   1.557   2.519  15.340 -0.0805  1.0013 -0.7587
18070TIP3    H275626   1.541   2.571  15.482 -0.6647  2.4679 -1.3413
18071TIP3   OH275627   5.760   3.713   4.554  0.1983 -0.1677  0.1279
18071TIP3    H175628   5.852   3.732   4.536  0.2049  1.2042  1.4665
18071TIP3    H275629   5.739   3.763   4.633 -1.5357 -0.9385  0.2135
18072TIP3   OH275630   4.103   0.049  16.386 -0.2581 -0.1259 -0.0243
18072TIP3    H175631   4.022   0.076  16.430 -0.5446 -1.0561  0.0511
18072TIP3    H275632   4.171   0.066  16.451 -0.5280 -0.3137  0.3159
18073TIP3   OH275633   5.885   1.094  12.607  0.0274 -0.5225  0.1149
18073TIP3    H175634   5.859   1.082  12.516  2.2075 -2.1908 -0.3665
18073TIP3    H275635   5.853   1.017  12.652  1.3733 -1.1178  0.1191
18074TIP3   OH275636   5.019   6.435  16.743 -0.6512  0.0003 -0.2261
18074TIP3    H175637   4.994   6.380  16.669 -0.5307 -1.4919  0.7912
18074TIP3    H275638   4.990   6.386  16.820  0.4398  0.8543  0.7690
18075TIP3   OH275639   5.039   0.736   0.079 -0.3233 -0.4105  0.0587
18075TIP3    H175640   5.053   0.811   0.136 -0.2921  0.4403 -1.0431
18075TIP3    H275641   5.003   0.669   0.137 -2.4225  1.1535  0.6632
18076TIP3   OH275642   0.497   3.590  13.511 -0.5484  1.1128  0.5238
18076TIP3    H175643   0.441   3.650  13.560 -1.5827  0.1333  0.5828
18076TIP3    H275644   0.560   3.557  13.575 -1.0177  0.8818  0.8624
18077TIP3   OH275645   6.268   0.882  17.130  0.3236 -0.0317  0.6674
18077TIP3    H175646   6.248   0.873  17.224 -0.8506 -0.8750  0.3610
18077TIP3    H275647   6.187   0.857  17.086  1.2510 -0.9070 -0.6125
18078TIP3   OH275648   2.712   4.523   6.200  0.1618  0.1760  0.1708
18078TIP3    H175649   2.620   4.531   6.173  0.1009  1.9724  0.7704
18078TIP3    H275650   2.762   4.548   6.122  0.0939  0.3856  0.1918
18079TIP3   OH275651   6.479   6.080  11.949 -0.2055  0.0276 -0.4629
18079TIP3    H175652   6.397   6.036  11.929 -0.4091  0.2880 -0.2158
18079TIP3    H275653   6.454   6.150  12.009  0.5856 -1.7387  2.0686
18080TIP3   OH275654   4.419   4.645   2.751  0.0078 -0.3630 -0.5447
18080TIP3    H175655   4.456   4.557   2.751 -1.4421 -1.0190  0.0041
18080TIP3    H275656   4.455   4.687   2.674  1.7676 -0.9707 -0.0982
18081TIP3   OH275657   2.095   4.712   5.383 -0.3863 -0.2168  0.4026
18081TIP3    H175658   2.157   4.749   5.445 -0.4293 -0.5966  0.6768
18081TIP3    H275659   2.027   4.779   5.373 -0.2313 -0.0397  0.5484
18082TIP3   OH275660   1.165   5.828  11.307 -0.1696 -0.5340 -0.0423
18082TIP3    H175661   1.215   5.816  11.226 -0.4156 -0.2079 -0.2481
18082TIP3    H275662   1.101   5.757  11.307 -0.2276 -0.4820 -0.1817
18083TIP3   OH275663   6.315   1.301  12.308 -0.7418  0.0233  0.0616
18083TIP3    H175664   6.285   1.243  12.238 -0.2463  1.6942 -1.6134
18083TIP3    H275665   6.245   1.365  12.318 -1.0086 -0.4494  1.4619
18084TIP3   OH275666   5.889   5.742  13.485  0.5849  0.3349  0.9984
18084TIP3    H175667   5.850   5.814  13.536  0.0052 -0.9781  2.4803
18084TIP3    H275668   5.816   5.706  13.435  1.0750  1.3661 -0.5197
18085TIP3   OH275669   0.715   4.079   6.076  0.3803 -0.2116  0.0977
18085TIP3    H175670   0.621   4.083   6.063  0.2715 -3.3330 -0.5975
18085TIP3    H275671   0.729   4.119   6.163 -1.7582 -1.0386  0.8756
18086TIP3   OH275672   0.016   4.739   3.955  0.0375  0.2128  0.4039
18086TIP3    H175673   0.004   4.706   3.866 -3.0038 -0.5349  0.9596
18086TIP3    H275674  -0.034   4.821   3.958 -0.1125  0.1036  1.4621
18087TIP3   OH275675   2.854   6.637   5.720 -0.6601  0.4138  0.5178
18087TIP3    H175676   2.897   6.621   5.636  0.5919 -0.9575  1.3775
18087TIP3    H275677   2.776   6.582   5.718 -0.9669  0.8549  0.0264
18088TIP3   OH275678   1.814   3.167   6.261 -0.2440 -0.6621 -0.2201
18088TIP3    H175679   1.848   3.145   6.348 -0.3308  1.5030  0.4447
18088TIP3    H275680   1.823   3.087   6.210  2.0017 -1.3392  1.1067
18089TIP3   OH275681   4.407   4.545   3.155 -0.4639 -0.3243  0.0874
18089TIP3    H175682   4.407   4.623   3.210 -0.5803 -0.2671  0.0035
18089TIP3    H275683   4.492   4.503   3.174  0.1905  0.5204 -0.8771
18090TIP3   OH275684   2.471   1.999  12.358  0.2400  0.1460 -0.3073
18090TIP3    H175685   2.532   2.006  12.432  1.7350  0.2558 -1.5225
18090TIP3    H275686   2.397   1.950  12.394  1.0750 -0.0959  1.1825
18091TIP3   OH275687   1.984   2.461  13.330  0.4665 -0.2689  0.0601
18091TIP3    H175688   2.073   2.427  13.329  0.2125 -1.0389  1.3537
18091TIP3    H275689   1.943   2.421  13.407 -0.6538  0.9441  0.1389
18092TIP3   OH275690   2.407   6.184   0.769  0.2619 -0.3065 -0.1452
18092TIP3    H175691   2.355   6.145   0.839  1.0627 -0.6187  0.2877
18092TIP3    H275692   2.496   6.152   0.783  0.5423  0.0463 -0.9973
18093TIP3   OH275693   5.028   4.205  13.870  0.3851 -0.6441  0.0294
18093TIP3    H175694   5.103   4.260  13.850  0.3518 -0.2721  0.9223
18093TIP3    H275695   5.063   4.135  13.925  0.8422 -2.7182 -2.6477
18094TIP3   OH275696   5.328   2.625  12.425 -0.0157  0.2210 -0.2875
18094TIP3    H175697   5.398   2.688  12.405  0.1097  0.6513  1.3168
18094TIP3    H275698   5.364   2.573  12.497 -1.2993  0.3963  0.5107
18095TIP3   OH275699   5.419   0.216  17.138  0.2443 -0.4774 -0.5616
18095TIP3    H175700   5.400   0.206  17.045 -1.9136 -1.1034 -0.1022
18095TIP3    H275701   5.470   0.297  17.144 -0.5946  0.2035 -2.1575
18096TIP3   OH275702   2.306   1.761   3.252 -0.0057 -0.0275 -0.7393
18096TIP3    H175703   2.336   1.845   3.289  0.6438 -0.4834 -0.2019
18096TIP3    H275704   2.349   1.755   3.167  0.0680  0.1156 -0.7127
18097TIP3   OH275705   4.202   5.030   2.586  0.5798  0.3102 -0.3268
18097TIP3    H175706   4.274   5.025   2.649  0.9070  3.0704 -0.3734
18097TIP3    H275707   4.126   5.055   2.639  0.3506  0.4464 -0.7229
18098TIP3   OH275708   2.388   1.934  14.694  0.1947  1.3267  0.3219
18098TIP3    H175709   2.475   1.953  14.659  0.0737 -2.1702 -2.4299
18098TIP3    H275710   2.401   1.860  14.753 -0.9957 -0.2678 -1.3158
18099TIP3   OH275711   0.582   5.700   3.086  0.7226 -0.0978  0.2316
18099TIP3    H175712   0.506   5.749   3.118  0.8052 -0.2739  0.7153
18099TIP3    H275713   0.597   5.734   2.998  0.0776 -0.0724  0.1281
18100TIP3   OH275714   1.855   5.684   2.640  0.2067  0.9986 -0.4142
18100TIP3    H175715   1.845   5.618   2.571  0.8554  0.1531  0.2631
18100TIP3    H275716   1.793   5.753   2.617 -1.1738 -0.2634 -0.6675
18101TIP3   OH275717   0.873   1.590   0.393 -0.8930  0.5998 -0.2355
18101TIP3    H175718   0.856   1.557   0.481  1.8458  0.7288  0.4193
18101TIP3    H275719   0.937   1.660   0.405  0.2096  0.0572 -2.3692
18102TIP3   OH275720   3.707   3.351  11.223 -0.4665 -0.0421  0.1564
18102TIP3    H175721   3.764   3.276  11.240 -2.2464 -1.2998  0.8972
18102TIP3    H275722   3.669   3.334  11.137 -1.1033 -0.1325  0.4556
18103TIP3   OH275723   4.032   4.108  15.014 -0.1841  0.1970  0.2115
18103TIP3    H175724   4.062   4.191  15.052 -1.4118  0.2333  1.1546
18103TIP3    H275725   4.007   4.055  15.090 -1.5213 -0.2049 -0.4889
18104TIP3   OH275726   0.599   0.794   4.004 -0.1654  0.3977  0.4632
18104TIP3    H175727   0.592   0.771   4.096 -1.1265  0.1905  0.3514
18104TIP3    H275728   0.536   0.865   3.992  0.0007  0.4718 -0.0155
18105TIP3   OH275729   2.849   2.775  13.322  0.2120 -0.2800  0.3291
18105TIP3    H175730   2.923   2.826  13.287 -1.2702  2.6710  1.1636
18105TIP3    H275731   2.776   2.795  13.263 -0.5304 -1.1345  0.9409
18106TIP3   OH275732   2.274   1.444   3.191  0.3405  0.3177 -0.8738
18106TIP3    H175733   2.279   1.539   3.185  1.1884  0.3216 -0.3104
18106TIP3    H275734   2.346   1.420   3.249 -1.3576 -0.4602  1.0542
18107TIP3   OH275735   1.749   2.955  11.067  0.4207  0.1016  0.0016
18107TIP3    H175736   1.804   2.931  10.993  2.3457  0.3295  1.2805
18107TIP3    H275737   1.749   3.051  11.066  0.5221  0.1075  0.3104
18108TIP3   OH275738   4.504   4.681   1.686  0.2147  0.3291  0.0125
18108TIP3    H175739   4.529   4.692   1.778  0.5351  1.4042 -0.1895
18108TIP3    H275740   4.583   4.701   1.637 -0.1765  0.5951 -0.5257
18109TIP3   OH275741   5.763   2.427   0.388 -0.6011  0.0830  0.3373
18109TIP3    H175742   5.824   2.354   0.402  1.7592  2.0397  0.8458
18109TIP3    H275743   5.818   2.501   0.366 -2.8747  1.8869  0.3307
18110TIP3   OH275744   1.257   0.542  15.134 -0.1517  0.4341  0.8319
18110TIP3    H175745   1.296   0.584  15.057 -0.9260  0.4111  0.4148
18110TIP3    H275746   1.332   0.510  15.184  0.4592  2.0154  0.9922
18111TIP3   OH275747   6.665   5.518   3.722 -0.7485  0.2580  0.0985
18111TIP3    H175748   6.658   5.468   3.803  1.0242 -1.2891 -0.6141
18111TIP3    H275749   6.618   5.464   3.657 -2.3303  1.5768  0.0743
18112TIP3   OH275750   0.941   2.899  14.008 -0.2545 -0.0982  0.2106
18112TIP3    H175751   0.948   2.804  14.015 -1.6427 -0.2724 -0.4621
18112TIP3    H275752   1.005   2.922  13.941 -0.9902 -0.7723 -0.7617
18113TIP3   OH275753   2.822   5.823   1.049  0.1938 -0.1306  0.2011
18113TIP3    H175754   2.775   5.883   0.991 -0.4517 -1.8044 -1.0924
18113TIP3    H275755   2.914   5.846   1.038  0.0278  0.0752 -0.9486
18114TIP3   OH275756   2.291   0.414   6.220  0.4817 -0.0849 -0.1057
18114TIP3    H175757   2.228   0.438   6.152 -0.0581  0.7627  0.6647
18114TIP3    H275758   2.374   0.404   6.174  0.6060  2.6202 -0.6456
18115TIP3   OH275759   3.683   4.361  17.190  0.5843  0.2842 -0.0445
18115TIP3    H175760   3.769   4.402  17.192  0.4343  0.6209  2.0487
18115TIP3    H275761   3.623   4.430  17.218 -0.0877 -0.4687  0.4152
18116TIP3   OH275762   3.472   2.815   5.626  0.3123 -0.5872  0.1700
18116TIP3    H175763   3.511   2.775   5.704  1.2354  0.6139  0.3442
18116TIP3    H275764   3.452   2.904   5.653 -1.3028 -0.7522 -0.3546
18117TIP3   OH275765   2.866   2.406   5.012  0.2802  0.3204  0.5852
18117TIP3    H175766   2.861   2.449   5.098 -1.2207  1.4179 -0.0041
18117TIP3    H275767   2.776   2.404   4.982  0.8038  0.0781 -1.0315
18118TIP3   OH275768   5.297   0.337  14.919 -0.0393 -0.1877 -0.0889
18118TIP3    H175769   5.215   0.381  14.896 -0.3643 -0.1298  1.1489
18118TIP3    H275770   5.278   0.244  14.909  0.0246 -0.1465 -0.6615
18119TIP3   OH275771   0.997   4.204   2.262 -0.3620 -0.0794  0.5583
18119TIP3    H175772   1.041   4.277   2.217  2.7075 -2.0704  0.0566
18119TIP3    H275773   0.965   4.243   2.343  0.1073  2.0953 -0.2054
18120TIP3   OH275774   6.050   0.127   6.872 -0.1516  0.4752 -0.0892
18120TIP3    H175775   6.039   0.032   6.867 -2.2179  0.7228 -1.0027
18120TIP3    H275776   5.983   0.156   6.934  0.9285  1.2945  0.7347
18121TIP3   OH275777   3.463   5.742   0.308 -0.5421  0.1938 -0.2424
18121TIP3    H175778   3.383   5.757   0.359  0.2182  0.0882  1.0385
18121TIP3    H275779   3.466   5.647   0.296  0.4673 -0.0615  1.6246
18122TIP3   OH275780   6.434   1.128  14.609 -0.3198 -0.1223 -0.6772
18122TIP3    H175781   6.473   1.176  14.682 -2.8084  1.7610 -0.4376
18122TIP3    H275782   6.505   1.074  14.575  1.1297 -0.5584  2.6445
18123TIP3   OH275783   5.035   4.681  16.731  0.2828  0.1917 -0.0285
18123TIP3    H175784   4.975   4.701  16.659  0.5450 -1.4172 -0.7398
18123TIP3    H275785   5.111   4.641  16.689 -0.0729 -1.9429  1.1765
18124TIP3   OH275786   2.059   0.494   4.193 -0.3290  0.2338 -0.1352
18124TIP3    H175787   2.153   0.508   4.203  0.0911 -1.1457 -1.6482
18124TIP3    H275788   2.052   0.417   4.136 -2.3569  1.1983 -1.3034
18125TIP3   OH275789   2.206   6.378   4.297 -0.0588 -0.1960 -0.1494
18125TIP3    H175790   2.180   6.470   4.288 -1.7283 -0.6988 -0.7047
18125TIP3    H275791   2.248   6.357   4.214 -0.3679 -0.1404 -0.3229
18126TIP3   OH275792   0.944   3.927  13.247 -0.0191  0.2275  0.3187
18126TIP3    H175793   0.957   3.930  13.342 -0.9981  2.7806  0.4625
18126TIP3    H275794   0.861   3.882  13.235  1.1441 -2.1088  0.4458
18127TIP3   OH275795   5.689   4.593  14.795  0.1820  0.2869 -0.0962
18127TIP3    H175796   5.664   4.555  14.711  0.2446 -0.1837  0.0970
18127TIP3    H275797   5.780   4.565  14.808  0.5846  1.3767 -0.4479
18128TIP3   OH275798   5.092   1.264   1.873  0.0205 -0.3357  0.2598
18128TIP3    H175799   5.033   1.221   1.935  0.4132 -2.0791 -0.5090
18128TIP3    H275800   5.155   1.196   1.849  1.0478  0.8652 -0.5717
18129TIP3   OH275801   4.386   0.628  16.315 -0.3140  0.1591 -0.5460
18129TIP3    H175802   4.472   0.641  16.277 -0.0079 -2.0773 -0.7443
18129TIP3    H275803   4.400   0.565  16.386 -1.5706  0.8011  0.3155
18130TIP3   OH275804   2.284   6.342  14.810  0.5505  0.0982 -0.3311
18130TIP3    H175805   2.292   6.373  14.720  0.4062  2.0516  0.2739
18130TIP3    H275806   2.342   6.399  14.860  1.9002 -2.0199  0.6410
18131TIP3   OH275807   6.495   5.749   2.476  0.2765  0.3950  0.1283
18131TIP3    H175808   6.436   5.775   2.405  0.5575  1.0545  0.1321
18131TIP3    H275809   6.562   5.697   2.432  0.3421  0.6370 -0.0596
18132TIP3   OH275810   1.030   0.868  12.271 -0.2754  0.7456  0.4940
18132TIP3    H175811   1.080   0.944  12.240  1.4347  0.9872  3.5124
18132TIP3    H275812   0.975   0.903  12.341 -1.3165 -0.3830  0.2686
18133TIP3   OH275813   6.555   6.243   2.605  0.0796  0.0721  0.3781
18133TIP3    H175814   6.560   6.208   2.516 -0.1797  3.0796 -0.9512
18133TIP3    H275815   6.597   6.177   2.659 -1.9591 -3.0588 -1.5314
18134TIP3   OH275816   0.023   1.034  16.051 -0.2109  0.5104 -0.2909
18134TIP3    H175817   0.059   0.946  16.063  0.5763  0.4881 -2.2879
18134TIP3    H275818   0.097   1.084  16.016 -0.9992  1.6067 -0.4200
18135TIP3   OH275819   2.196   0.106   3.204 -0.1907  0.2349 -0.9813
18135TIP3    H175820   2.209   0.014   3.179  1.0348  0.2346 -0.4470
18135TIP3    H275821   2.252   0.155   3.144  0.9543  0.4241  0.1995
18136TIP3   OH275822   0.174   4.369  12.920 -0.5583 -0.0084 -0.3492
18136TIP3    H175823   0.193   4.459  12.896 -2.4328  0.1086 -1.5734
18136TIP3    H275824   0.084   4.371  12.952 -0.0596 -1.1833  1.3039
18137TIP3   OH275825   2.644   4.906   6.050 -0.6930  0.0725  0.5059
18137TIP3    H175826   2.556   4.944   6.061 -0.2452  1.4882 -0.5029
18137TIP3    H275827   2.685   4.961   5.983  1.0510 -0.4347  1.1225
18138TIP3   OH275828   6.115   6.648   1.630  0.4681  0.0435  0.6345
18138TIP3    H175829   6.164   6.677   1.708 -1.3005  2.8376  0.8495
18138TIP3    H275830   6.078   6.729   1.594  0.0192 -1.3584 -2.3116
18139TIP3   OH275831   1.954   5.896   3.972  0.4890 -0.5674  0.2479
18139TIP3    H175832   1.899   5.942   3.908 -0.4366  0.0653  1.4497
18139TIP3    H275833   2.037   5.881   3.927 -0.0546  0.0803 -1.0061
18140TIP3   OH275834   6.066   1.288   6.392  0.6384  0.1407  0.2499
18140TIP3    H175835   6.015   1.361   6.426 -0.1337 -0.4117  0.3153
18140TIP3    H275836   6.004   1.238   6.338  1.1510 -0.4643  0.2007
18141TIP3   OH275837   6.038   6.223  16.723 -0.2499  0.2259 -0.3425
18141TIP3    H175838   5.951   6.184  16.714  0.2652 -0.6737 -2.0339
18141TIP3    H275839   6.065   6.202  16.812 -2.8017  2.8876  1.2164
18142TIP3   OH275840   6.564   5.191   0.054  0.1542  0.9705  0.6191
18142TIP3    H175841   6.482   5.143   0.065  0.5386  0.5530  1.8289
18142TIP3    H275842   6.596   5.164  -0.032 -0.0938 -0.2625  0.8938
18143TIP3   OH275843   1.216   0.631  14.240  0.3367 -0.2744 -0.7269
18143TIP3    H175844   1.271   0.642  14.162  2.8312 -1.1960  0.7918
18143TIP3    H275845   1.202   0.720  14.272 -0.2495  0.0706 -1.8742
18144TIP3   OH275846   1.934   4.545  17.080  0.0930  0.4332 -0.1997
18144TIP3    H175847   2.000   4.554  17.012 -0.0004  0.8594 -0.2356
18144TIP3    H275848   1.875   4.476  17.048 -0.9484  1.8069 -1.3757
18145TIP3   OH275849   4.249   5.033   5.407  0.7193  0.0864  0.3677
18145TIP3    H175850   4.321   4.990   5.360 -1.6935 -3.0469 -0.8218
18145TIP3    H275851   4.189   5.061   5.338 -0.2353  0.6492  1.4069
18146TIP3   OH275852   4.651   6.676  16.117  0.3036  0.3571 -0.1259
18146TIP3    H175853   4.640   6.747  16.181 -0.3194  0.7457 -0.6442
18146TIP3    H275854   4.708   6.714  16.050  0.1868  0.2768 -0.2706
18147TIP3   OH275855   4.257   0.581  16.890  0.3805  0.1194 -0.2399
18147TIP3    H175856   4.215   0.508  16.935  1.3318  0.0911  0.6460
18147TIP3    H275857   4.215   0.659  16.928  0.4112  0.0677 -0.0998
18148TIP3   OH275858   0.626   4.642   2.721  0.1352  0.0806  0.0234
18148TIP3    H175859   0.545   4.656   2.674 -0.3956 -0.8786  0.6249
18148TIP3    H275860   0.640   4.724   2.770 -0.8139  0.0229  0.4172
18149TIP3   OH275861   5.882   0.797   6.280 -0.3864  0.4679 -0.6914
18149TIP3    H175862   5.826   0.781   6.355  0.1660  0.1369 -0.3413
18149TIP3    H275863   5.861   0.727   6.218  0.4039 -0.3055 -0.1089
18150TIP3   OH275864   6.389   2.925   3.874  0.3353  0.2034  0.2228
18150TIP3    H175865   6.426   2.918   3.786  0.9714  1.4813  0.3617
18150TIP3    H275866   6.397   2.837   3.910  1.7218  0.0636 -0.3625
18151TIP3   OH275867   3.108   3.668   5.533  0.2297  0.0632  0.5949
18151TIP3    H175868   3.014   3.655   5.521 -0.0170  0.8558  1.5478
18151TIP3    H275869   3.122   3.660   5.627  0.9706  0.7984  0.5610
18152TIP3   OH275870   0.188   2.096   4.313  0.3331  0.3819  0.0465
18152TIP3    H175871   0.115   2.078   4.372  0.0251  2.5999  0.4440
18152TIP3    H275872   0.168   2.183   4.276  1.1645 -0.3445 -2.3340
18153TIP3   OH275873   5.057   5.114  17.435  0.5496 -0.0903  0.2324
18153TIP3    H175874   4.972   5.118  17.391  0.5078 -1.2501  0.1945
18153TIP3    H275875   5.114   5.069  17.373  1.0286  0.0922  0.5354
18154TIP3   OH275876   2.617   2.327   6.498 -0.1257  0.3944  0.2173
18154TIP3    H175877   2.580   2.240   6.510  0.6864  0.0793  0.5535
18154TIP3    H275878   2.635   2.358   6.587 -1.0280  1.1900  0.1327
18155TIP3   OH275879   6.239   5.985   5.322  0.1209 -0.1485  0.0407
18155TIP3    H175880   6.235   5.995   5.417  0.7576  0.8805 -0.0344
18155TIP3    H275881   6.158   5.940   5.300  0.2220 -0.9247  1.1291
18156TIP3   OH275882   0.363   3.731   6.319  0.4240  1.0980 -0.1570
18156TIP3    H175883   0.339   3.652   6.272  0.6968  0.1817  1.2008
18156TIP3    H275884   0.280   3.774   6.339  0.2702  1.0757 -0.7351
18157TIP3   OH275885   6.653   0.856   2.687  0.1863  1.2786  0.2159
18157TIP3    H175886   6.605   0.903   2.754 -1.6109  0.0203 -0.1196
18157TIP3    H275887   6.709   0.795   2.736 -0.9805  0.4917  0.6131
18158TIP3   OH275888   4.254   5.187   4.057 -0.6295 -0.1816  0.3810
18158TIP3    H175889   4.303   5.234   3.990 -1.5007 -0.0306 -0.1726
18158TIP3    H275890   4.176   5.241   4.073 -2.1570 -1.8415 -0.9663
18159TIP3   OH275891   4.531   4.947   0.361 -0.6707  0.2546 -0.5177
18159TIP3    H175892   4.555   4.922   0.272  0.0443  1.9029 -0.8165
18159TIP3    H275893   4.598   4.907   0.417 -0.1002  0.6897 -0.8897
18160TIP3   OH275894   2.581   5.713  14.136  0.1369 -0.0934 -0.3598
18160TIP3    H175895   2.555   5.685  14.048 -0.8378 -1.6468  0.3769
18160TIP3    H275896   2.630   5.639  14.171 -1.8600 -0.6990  1.3822
18161TIP3   OH275897   4.039   1.230   1.377  0.1701  0.3308 -0.1470
18161TIP3    H175898   4.000   1.234   1.289  0.7016  0.6512 -0.3715
18161TIP3    H275899   3.969   1.259   1.435 -0.4430 -0.6309 -0.3748
18162TIP3   OH275900   0.365   3.837  13.985 -0.3983 -0.3081 -0.1968
18162TIP3    H175901   0.282   3.885  13.986 -0.8545 -1.0205 -1.3355
18162TIP3    H275902   0.338   3.745  13.997  0.4050 -0.3750  1.4089
18163TIP3   OH275903   2.645   5.001  16.154 -0.2752 -0.3964 -0.5516
18163TIP3    H175904   2.626   5.067  16.086 -0.7269  1.5919  1.3938
18163TIP3    H275905   2.560   4.982  16.193  0.0182 -1.3568 -0.3494
18164TIP3   OH275906   5.238   6.301   5.979  0.1638 -0.4985 -0.4484
18164TIP3    H175907   5.177   6.368   6.010  1.4997  1.5873 -2.0738
18164TIP3    H275908   5.302   6.349   5.927  1.4947 -3.0024 -1.2832
18165TIP3   OH275909   4.046   4.558   3.398  0.6206  0.4508 -0.2585
18165TIP3    H175910   3.997   4.549   3.480 -0.2227 -1.4259 -0.9041
18165TIP3    H275911   4.137   4.544   3.423  0.1801 -2.4417  0.1227
18166TIP3   OH275912   3.711   1.783   1.379  0.0256 -0.0170  0.2104
18166TIP3    H175913   3.772   1.849   1.346  1.4212 -2.1497 -1.7871
18166TIP3    H275914   3.650   1.769   1.306 -0.4424 -0.7225  0.7269
18167TIP3   OH275915   2.195   6.698   1.796 -0.4409 -0.5014  0.2400
18167TIP3    H175916   2.274   6.746   1.821 -0.3924 -0.8862  0.8477
18167TIP3    H275917   2.125   6.762   1.803 -0.2967 -0.3686  0.4867
18168TIP3   OH275918   5.111   6.716  12.283  0.8268 -0.3783 -0.1134
18168TIP3    H175919   5.042   6.659  12.250  1.0582 -1.4969  1.2707
18168TIP3    H275920   5.091   6.802  12.245 -0.3376 -1.0543 -1.0909
18169TIP3   OH275921   2.880   5.127  13.607  0.3441 -0.3434 -0.1569
18169TIP3    H175922   2.931   5.052  13.576  0.8600  0.0793 -0.3483
18169TIP3    H275923   2.789   5.104  13.586 -0.0439 -2.6585  3.2756
18170TIP3   OH275924   3.662   0.028  12.691  0.7185 -0.7077 -0.8952
18170TIP3    H175925   3.707   0.085  12.629  0.3365 -0.3834 -0.8789
18170TIP3    H275926   3.698   0.051  12.777  0.4855 -0.4081 -0.8757
18171TIP3   OH275927   1.879   0.740  12.984 -0.2195 -0.3771 -0.4333
18171TIP3    H175928   1.857   0.827  13.018  0.2580  0.2375 -1.6344
18171TIP3    H275929   1.965   0.721  13.020 -0.3064 -0.3375 -0.2019
18172TIP3   OH275930   0.273   4.665   1.165 -0.0934 -0.0151  0.0095
18172TIP3    H175931   0.245   4.709   1.085 -1.7040  1.3687  1.2396
18172TIP3    H275932   0.288   4.736   1.227  0.7101 -1.0661  1.0538
18173TIP3   OH275933   3.917   2.036  12.568  0.2138 -0.2090  0.1405
18173TIP3    H175934   3.890   2.128  12.575  2.0230  0.3129  0.9500
18173TIP3    H275935   3.915   2.003  12.658  1.0851 -0.4902  0.0645
18174TIP3   OH275936   3.827   4.701  15.146  0.2437  0.2278  0.0938
18174TIP3    H175937   3.923   4.705  15.140  0.1247  1.9432 -2.0724
18174TIP3    H275938   3.801   4.643  15.075 -0.3542 -0.4690  0.8599
18175TIP3   OH275939   3.756   5.096  12.642 -0.4537  0.0464  0.6671
18175TIP3    H175940   3.687   5.030  12.642  0.6851 -1.2014  1.8441
18175TIP3    H275941   3.753   5.134  12.730 -0.0272  0.4003  0.5321
18176TIP3   OH275942   1.350   2.902  12.470  0.8042 -0.1117 -0.5719
18176TIP3    H175943   1.326   2.814  12.498 -2.0190  0.4309 -0.9609
18176TIP3    H275944   1.396   2.939  12.545 -0.1485 -1.1172  0.5586
18177TIP3   OH275945   6.685   1.550   0.827 -0.0392  0.4169  0.6674
18177TIP3    H175946   6.727   1.576   0.909  0.8046  0.2142  0.3112
18177TIP3    H275947   6.665   1.457   0.839 -0.4638  0.5333  0.8683
18178TIP3   OH275948   4.358   2.689  12.819 -0.2331  0.1361  0.3791
18178TIP3    H175949   4.307   2.767  12.841  0.5126  1.1257 -1.2039
18178TIP3    H275950   4.329   2.665  12.731  2.2784  1.0222 -0.7844
18179TIP3   OH275951   4.145   6.276  14.747  0.4761  0.5632  0.5924
18179TIP3    H175952   4.190   6.312  14.671 -1.4354  1.1210 -0.3155
18179TIP3    H275953   4.154   6.344  14.814  0.2224  1.0609  0.1313
18180TIP3   OH275954   0.603   1.454  12.279 -0.4818  0.6765 -0.2758
18180TIP3    H175955   0.619   1.509  12.356 -1.3902  0.5169  0.0350
18180TIP3    H275956   0.521   1.487  12.242  0.0822  0.9424 -1.3618
18181TIP3   OH275957   5.646   4.175   5.984  0.1975  0.1459 -1.1276
18181TIP3    H175958   5.631   4.082   6.001  1.5828  0.0257 -0.4189
18181TIP3    H275959   5.725   4.196   6.033  0.0349  1.6578 -1.4527
18182TIP3   OH275960   5.456   4.877  15.992  0.0283  0.1592 -0.5599
18182TIP3    H175961   5.436   4.967  15.967  0.5780  0.3334 -0.3772
18182TIP3    H275962   5.405   4.824  15.931 -1.7275  0.5745  0.4841
18183TIP3   OH275963   6.120   5.648  11.849 -0.1273  0.3268  0.3686
18183TIP3    H175964   6.084   5.619  11.765 -1.2270  1.4989  0.4078
18183TIP3    H275965   6.214   5.642  11.838 -0.2726 -1.2163 -0.3353
18184TIP3   OH275966   4.608   0.102   3.116 -0.3003 -0.1114 -0.5139
18184TIP3    H175967   4.536   0.146   3.162 -2.1108 -2.2907 -1.0892
18184TIP3    H275968   4.655   0.055   3.185 -0.3405  0.1150 -0.3300
18185TIP3   OH275969   0.700   5.186   3.403  0.3736  0.0084  0.4897
18185TIP3    H175970   0.742   5.239   3.470  0.1702  0.1217  0.5302
18185TIP3    H275971   0.621   5.153   3.444 -0.9626  1.9191 -0.3472
18186TIP3   OH275972   3.983   3.262   2.711 -0.6248  0.0507  0.1179
18186TIP3    H175973   4.017   3.238   2.625  0.0461 -0.4868  0.5292
18186TIP3    H275974   3.888   3.251   2.703 -0.4444 -1.7056 -0.0442
18187TIP3   OH275975   0.144   6.506  11.558  0.2515  0.4983 -0.1740
18187TIP3    H175976   0.145   6.436  11.493 -1.5682  0.2348  0.0146
18187TIP3    H275977   0.166   6.585  11.509  0.4801  0.0707 -0.7681
18188TIP3   OH275978   0.484   2.360   3.061 -0.4713 -0.1463  0.5195
18188TIP3    H175979   0.467   2.290   2.998  2.7451 -1.6924  1.1714
18188TIP3    H275980   0.514   2.433   3.007  0.4611 -0.8385  0.0608
18189TIP3   OH275981   0.581   4.153  13.886 -0.0920 -0.4949  0.2075
18189TIP3    H175982   0.513   4.210  13.850 -1.1110 -1.2383  0.8562
18189TIP3    H275983   0.620   4.204  13.957  1.4752  0.7219 -1.4527
18190TIP3   OH275984   5.437   4.175  16.293 -0.2094  0.0451 -0.1109
18190TIP3    H175985   5.369   4.127  16.339  1.4720 -1.2455  1.1798
18190TIP3    H275986   5.419   4.267  16.310 -1.8625 -0.2407 -0.2041
18191TIP3   OH275987   4.261   5.274   1.063 -0.0088 -0.4393 -0.1486
18191TIP3    H175988   4.279   5.363   1.093 -0.8509  0.3725 -1.8835
18191TIP3    H275989   4.327   5.220   1.107  1.4246  1.2371 -0.1152
18192TIP3   OH275990   3.648   0.070  12.061 -0.4417  0.4320  0.0274
18192TIP3    H175991   3.655   0.070  11.965 -0.8111 -0.5718 -0.0149
18192TIP3    H275992   3.644  -0.023  12.084  3.0130  0.4782  1.3023
18193TIP3   OH275993   3.593   6.358  17.390  0.3583  0.3720  0.4029
18193TIP3    H175994   3.550   6.428  17.339  0.5444  1.4013  1.6098
18193TIP3    H275995   3.561   6.277  17.351  1.2715  1.0858 -2.0199
18194TIP3   OH275996   5.618   0.408   6.409 -0.5835 -0.1043  0.6845
18194TIP3    H175997   5.553   0.373   6.471 -0.4080  1.0183  1.5382
18194TIP3    H275998   5.590   0.499   6.395 -0.6226 -0.3398 -0.9112
18195TIP3   OH275999   2.396   6.520   6.050 -0.1253  0.3261  0.4818
18195TIP3    H176000   2.371   6.605   6.087 -1.1235  0.1297  0.2809
18195TIP3    H276001   2.353   6.456   6.107  0.7669 -0.0611  0.7373
18196TIP3   OH276002   5.081   2.238   1.655  0.3356 -0.5510  0.1909
18196TIP3    H176003   5.088   2.164   1.717 -0.2389 -2.0383 -1.4351
18196TIP3    H276004   5.023   2.206   1.586  0.9863  1.0380 -1.1594
18197TIP3   OH276005   5.001   4.755   3.198  0.3265 -0.3170  0.2749
18197TIP3    H176006   4.988   4.848   3.216  0.3441 -0.5139  1.3768
18197TIP3    H276007   4.966   4.742   3.110 -3.2306  0.0071  1.4802
18198TIP3   OH276008   1.402   2.372  15.738 -0.1109 -0.0946 -0.4238
18198TIP3    H176009   1.431   2.463  15.728 -1.3158  0.2450 -0.9779
18198TIP3    H276010   1.478   2.327  15.775  1.8931  0.3526 -3.5960
18199TIP3   OH276011   5.078   3.394  15.584  0.0229 -0.3118  0.6516
18199TIP3    H176012   5.094   3.484  15.556  0.2267 -0.8344 -1.0490
18199TIP3    H276013   5.088   3.396  15.679 -0.0474  1.4624  0.6563
18200TIP3   OH276014   3.196   5.890  11.897 -0.3850 -0.0208  0.3005
18200TIP3    H176015   3.161   5.866  11.811  0.2421  2.5682 -0.7564
18200TIP3    H276016   3.286   5.916  11.881 -0.2240  0.4345  1.7611
18201TIP3   OH276017   0.178   5.711   2.746 -0.2170  0.0471 -0.2678
18201TIP3    H176018   0.250   5.704   2.808 -1.3748 -0.6890  1.0531
18201TIP3    H276019   0.105   5.745   2.798 -1.4557 -1.3628 -1.0135
18202TIP3   OH276020   4.328   0.007   2.174 -0.6939  0.4647  0.0511
18202TIP3    H176021   4.423   0.011   2.181 -0.3847 -1.9632 -1.5082
18202TIP3    H276022   4.303  -0.062   2.235 -1.2836  0.1889 -0.4883
18203TIP3   OH276023   3.843   3.192   4.268  0.2996  0.1011  0.0973
18203TIP3    H176024   3.818   3.237   4.349  0.8141  2.2613 -0.8634
18203TIP3    H276025   3.778   3.222   4.204  2.4047  1.9651 -1.2848
18204TIP3   OH276026   5.001   6.269  15.075 -0.5466 -0.3656  0.4909
18204TIP3    H176027   5.007   6.289  15.168 -0.0717 -0.6496  0.5209
18204TIP3    H276028   4.929   6.206  15.068 -1.8512  1.0635  0.4346
18205TIP3   OH276029   0.027   3.111   3.891 -0.0770 -0.2176 -0.1684
18205TIP3    H176030   0.055   3.152   3.973  0.3797 -1.2547  0.2128
18205TIP3    H276031   0.099   3.125   3.830 -0.2229  0.1503 -0.2613
18206TIP3   OH276032   2.285   5.517   2.401  0.2932  0.1973  0.1377
18206TIP3    H176033   2.379   5.535   2.394  0.6582 -1.6646 -0.2527
18206TIP3    H276034   2.244   5.603   2.397  1.8142  0.9202 -2.4037
18207TIP3   OH276035   6.596   3.297  15.272 -0.4295  0.2901 -0.1826
18207TIP3    H176036   6.531   3.258  15.214 -2.4594  2.2959  0.5668
18207TIP3    H276037   6.577   3.259  15.358  0.1720  0.0229 -0.1631
18208TIP3   OH276038   0.285   5.808   1.012 -0.4135 -0.2608  0.2053
18208TIP3    H176039   0.272   5.903   1.015 -1.3792 -0.4065  1.3166
18208TIP3    H276040   0.299   5.783   1.103 -0.7504 -1.2559 -0.0065
18209TIP3   OH276041   5.160   3.666   3.295 -0.2777 -0.3060  0.7099
18209TIP3    H176042   5.226   3.733   3.311 -1.8523  1.4221  0.2844
18209TIP3    H276043   5.157   3.656   3.200  0.5485 -1.6709  0.7957
18210TIP3   OH276044   2.673   5.523  14.435  0.0389 -0.1294  0.3994
18210TIP3    H176045   2.691   5.501  14.343 -0.6330 -0.1065  0.2587
18210TIP3    H276046   2.601   5.465  14.460  0.2515 -0.1710  0.9310
18211TIP3   OH276047   4.219   2.474   3.354  0.2441 -0.1470 -0.1435
18211TIP3    H176048   4.256   2.537   3.416 -2.3298 -0.2100  1.6359
18211TIP3    H276049   4.241   2.389   3.392 -1.2743 -0.1858  0.7382
18212TIP3   OH276050   6.233   6.438  16.401  0.6094  0.2546 -0.5649
18212TIP3    H176051   6.241   6.427  16.307 -0.7107  2.6165 -1.0278
18212TIP3    H276052   6.265   6.527  16.418 -1.4177  0.8106  0.8076
18213TIP3   OH276053   1.052   0.088  17.014  0.7149 -0.6477  0.0945
18213TIP3    H176054   0.975   0.061  17.064 -1.9810  1.8228 -2.3103
18213TIP3    H276055   1.083   0.008  16.972 -0.6593 -1.6765  0.9445
18214TIP3   OH276056   4.100   3.574  14.298 -0.2044 -0.4436 -0.1633
18214TIP3    H176057   4.118   3.579  14.392  0.9246 -0.6387 -0.3568
18214TIP3    H276058   4.143   3.493  14.270  2.2706  1.1970 -1.4258
18215TIP3   OH276059   4.502   6.246   4.859  0.0611  0.5120 -0.2117
18215TIP3    H176060   4.542   6.210   4.780  0.5947 -0.4645  0.4750
18215TIP3    H276061   4.436   6.181   4.883 -1.0334  1.4567 -0.5806
18216TIP3   OH276062   3.490   1.353   5.218  0.4877  0.2843 -0.8327
18216TIP3    H176063   3.559   1.339   5.283  1.9193  2.1596 -1.8278
18216TIP3    H276064   3.509   1.290   5.149  0.1848 -0.3349 -0.3555
18217TIP3   OH276065   3.050   1.816   0.862 -0.2348  0.7006 -0.1558
18217TIP3    H176066   2.970   1.787   0.906 -0.4110  1.4409  0.0201
18217TIP3    H276067   3.054   1.910   0.878 -0.4037  1.0318 -1.8739
18218TIP3   OH276068   5.983   4.408   2.466 -0.1698  0.2191  0.0306
18218TIP3    H176069   5.931   4.488   2.455 -1.8311 -0.3774  2.4760
18218TIP3    H276070   5.984   4.367   2.379 -2.9831  0.8162 -0.3847
18219TIP3   OH276071   3.202   0.163   5.349 -0.7646  0.2779 -0.3665
18219TIP3    H176072   3.199   0.076   5.309 -0.4710  0.0396  0.1266
18219TIP3    H276073   3.138   0.159   5.421  0.5406 -0.1110  0.7997
18220TIP3   OH276074   5.437   3.148   4.678 -0.8016  0.0804 -0.0233
18220TIP3    H176075   5.436   3.166   4.772 -1.1095 -0.9287  0.1809
18220TIP3    H276076   5.455   3.233   4.637  1.2549  0.1990  1.0178
18221TIP3   OH276077   2.136   0.375  16.534 -0.0559 -0.1411  0.1251
18221TIP3    H176078   2.118   0.468  16.524 -1.2623 -0.3691  0.0855
18221TIP3    H276079   2.232   0.368  16.526  0.1712  1.2243  1.2554
18222TIP3   OH276080   6.497   6.510   3.440  0.1313 -0.4584 -0.2680
18222TIP3    H176081   6.554   6.434   3.425  1.7258  0.7483 -0.5042
18222TIP3    H276082   6.555   6.578   3.474 -1.4614  0.3572  0.9467
18223TIP3   OH276083   5.558   2.876  14.972 -0.2600  0.1951 -0.1292
18223TIP3    H176084   5.546   2.948  14.910 -1.2024  2.0010  2.0351
18223TIP3    H276085   5.652   2.876  14.990 -0.1337  0.3374 -0.7556
18224TIP3   OH276086   0.076   1.416  14.939  0.4734  0.9146  0.4445
18224TIP3    H176087   0.055   1.507  14.961  1.6841  1.0831  1.0104
18224TIP3    H276088   0.099   1.376  15.023 -1.8001 -0.4585  0.4893
18225TIP3   OH276089   6.601   2.436   3.932 -0.2312  0.7283 -0.8267
18225TIP3    H176090   6.615   2.390   3.849  0.9332 -0.2762 -0.1253
18225TIP3    H276091   6.521   2.396   3.968  0.9164 -1.0485 -0.0966
18226TIP3   OH276092   1.323   1.561  16.613 -0.3272  0.3154 -0.3051
18226TIP3    H176093   1.343   1.560  16.707 -0.0810 -0.9690 -0.3459
18226TIP3    H276094   1.388   1.501  16.575 -2.5275 -1.9376 -0.8067
18227TIP3   OH276095   5.068   4.305  15.016  0.0690  0.0813 -0.0238
18227TIP3    H176096   5.159   4.275  15.008 -0.1361 -0.3603 -0.7583
18227TIP3    H276097   5.021   4.258  14.948 -0.6455  0.6002  0.0991
18228TIP3   OH276098   0.022   3.471  13.062 -0.3038  0.0767 -0.4351
18228TIP3    H176099  -0.012   3.385  13.038  0.6246 -0.1763 -0.8725
18228TIP3    H276100   0.022   3.521  12.980  1.4165 -0.2972 -0.7132
18229TIP3   OH276101   4.832   6.116  11.284  0.5157 -0.5878  0.3983
18229TIP3    H176102   4.906   6.097  11.227  0.1274 -1.4184  0.1543
18229TIP3    H276103   4.867   6.173  11.352  1.3358 -0.8343  0.1875
18230TIP3   OH276104   2.453   5.554  13.853  0.4230  0.2983  0.1845
18230TIP3    H176105   2.367   5.561  13.811  1.9727  1.8927 -3.0924
18230TIP3    H276106   2.448   5.473  13.903 -2.5345 -0.4114 -1.0044
18231TIP3   OH276107   3.842   5.622   5.624  0.3131  0.5625  0.3086
18231TIP3    H176108   3.810   5.672   5.699  2.0231  1.8025  0.2690
18231TIP3    H276109   3.808   5.669   5.547  0.1900  0.4350  0.2839
18232TIP3   OH276110   6.567   3.759   4.595 -0.4174 -0.0779  0.0851
18232TIP3    H176111   6.552   3.750   4.501  0.6788  0.3835 -0.1496
18232TIP3    H276112   6.598   3.673   4.623 -0.8662 -0.2524  0.0630
18233TIP3   OH276113   6.360   1.790   1.484 -0.6142 -0.1316  0.6296
18233TIP3    H176114   6.296   1.722   1.506  0.7320 -1.3816  0.8277
18233TIP3    H276115   6.429   1.780   1.550  0.8903 -0.3506 -0.9105
18234TIP3   OH276116   1.194   5.004  15.495  0.1783  0.2088 -0.2564
18234TIP3    H176117   1.288   4.985  15.488 -0.2020 -3.1512  1.6485
18234TIP3    H276118   1.157   4.973  15.413  0.2690 -3.0725  0.8109
18235TIP3   OH276119   6.197   6.668   2.874 -0.1647  0.0797 -0.2263
18235TIP3    H176120   6.112   6.708   2.855 -0.7093 -1.0706 -0.2919
18235TIP3    H276121   6.176   6.579   2.902  1.0190 -0.1855 -0.1212
18236TIP3   OH276122   2.496   5.730  12.004 -0.2105 -0.4746 -0.0296
18236TIP3    H176123   2.532   5.671  11.938  2.2935  3.0037 -2.0408
18236TIP3    H276124   2.507   5.683  12.087  3.4716 -2.1140 -1.2576
18237TIP3   OH276125   0.343   3.401  13.002  0.2674  0.0419  0.0212
18237TIP3    H176126   0.390   3.484  13.007 -1.4066  1.0794 -0.4651
18237TIP3    H276127   0.334   3.373  13.094 -2.9257  2.7224  0.7103
18238TIP3   OH276128   1.767   1.446  12.721  0.0434  0.1686 -0.2037
18238TIP3    H176129   1.777   1.534  12.756  0.6278  0.4661 -1.0874
18238TIP3    H276130   1.749   1.391  12.797  0.1568  0.9744  0.4102
18239TIP3   OH276131   1.776   1.007  11.160 -0.8273  0.2217  0.2061
18239TIP3    H176132   1.730   0.923  11.157 -0.4444  0.0187 -0.1255
18239TIP3    H276133   1.707   1.072  11.173 -1.0234 -0.2267  1.5012
18240TIP3   OH276134   1.252   2.256  12.061 -0.4681 -0.3192 -0.3028
18240TIP3    H176135   1.243   2.164  12.037 -2.7516  0.4175 -2.6431
18240TIP3    H276136   1.184   2.271  12.127  1.4837 -0.7736  1.9525
18241TIP3   OH276137   1.185   6.123   1.750  0.2732  0.2128  0.9232
18241TIP3    H176138   1.211   6.045   1.799 -1.7055  0.0182  1.7653
18241TIP3    H276139   1.136   6.175   1.813 -0.1558  1.1851 -0.1847
18242TIP3   OH276140   1.286   6.628   6.818  0.1472 -0.5260 -0.2885
18242TIP3    H176141   1.340   6.705   6.837 -0.1816 -0.7580  1.8219
18242TIP3    H276142   1.336   6.554   6.850 -0.8959 -0.8625  0.6329
18243TIP3   OH276143   1.862   4.852   6.416 -0.0705  0.2331  0.1074
18243TIP3    H176144   1.912   4.893   6.344 -0.5559  2.6737  1.0693
18243TIP3    H276145   1.921   4.857   6.491 -0.3895 -0.3045  0.3938
18244TIP3   OH276146   2.650   5.511  16.148  0.0470  0.0482  0.7020
18244TIP3    H176147   2.671   5.575  16.216  2.4354 -0.8286  0.8794
18244TIP3    H276148   2.675   5.427  16.187 -3.7393 -1.2464  0.8158
18245TIP3   OH276149   2.086   3.048  15.918 -0.8128 -0.1202 -0.2334
18245TIP3    H176150   2.010   3.068  15.863 -0.5047 -0.8805 -0.9666
18245TIP3    H276151   2.103   2.955  15.901 -0.1990 -0.1524  0.5227
18246TIP3   OH276152   6.537   6.176  11.491  0.2684 -0.0420  0.9176
18246TIP3    H176153   6.625   6.202  11.462  0.5428 -0.3056  1.5047
18246TIP3    H276154   6.552   6.112  11.560 -0.3979 -0.7255  0.4460
18247TIP3   OH276155   1.799   0.589   1.689  0.3361  0.2377 -0.3631
18247TIP3    H176156   1.779   0.679   1.665 -0.7166 -0.1281 -0.9145
18247TIP3    H276157   1.716   0.554   1.723  0.9580 -0.2535  0.7188
18248TIP3   OH276158   6.050   3.627  15.165 -0.1914 -0.3499 -0.5753
18248TIP3    H176159   5.992   3.683  15.218 -1.0960  0.2878 -2.1770
18248TIP3    H276160   6.084   3.685  15.098  2.3476 -0.7302  0.2987
18249TIP3   OH276161   3.093   0.298   1.681 -0.2602  0.0815 -0.1443
18249TIP3    H176162   3.002   0.328   1.674 -0.4967 -0.8739 -1.6848
18249TIP3    H276163   3.086   0.208   1.712  0.0125 -0.6639 -2.1322
18250TIP3   OH276164   2.550   5.192   5.360 -0.1118 -0.1705 -0.1131
18250TIP3    H176165   2.586   5.281   5.364 -0.0737 -0.1126 -1.5391
18250TIP3    H276166   2.626   5.135   5.352 -0.1385 -0.3534  0.7628
18251TIP3   OH276167   6.556   5.455  10.421  0.2558 -0.0877  0.4415
18251TIP3    H176168   6.559   5.367  10.460  1.5909  0.3558  1.4110
18251TIP3    H276169   6.524   5.440  10.332 -0.0447 -1.4958  0.7557
18252TIP3   OH276170   2.589   2.479   0.694  0.4159 -0.0213 -0.4064
18252TIP3    H176171   2.569   2.393   0.658 -1.1567 -0.4188  1.2415
18252TIP3    H276172   2.505   2.525   0.693  0.4825  0.2626  1.7631
18253TIP3   OH276173   0.711   5.867   2.362  0.4044 -0.0182 -0.2534
18253TIP3    H176174   0.784   5.929   2.361  0.8455 -0.5387 -0.3789
18253TIP3    H276175   0.719   5.819   2.280  0.4411 -0.6848  0.1343
18254TIP3   OH276176   0.033   4.020  11.375  0.3904 -0.4472 -0.3596
18254TIP3    H176177   0.012   3.939  11.421  0.4500  0.8662  2.1789
18254TIP3    H276178  -0.052   4.056  11.351  0.2803 -0.4870 -0.0384
18255TIP3   OH276179   2.349   3.259  12.569  0.4139 -0.2580 -0.2692
18255TIP3    H176180   2.403   3.281  12.645 -0.1848  0.6087 -0.0748
18255TIP3    H276181   2.271   3.218  12.607 -0.3949  1.1940 -0.3101
18256TIP3   OH276182   3.530   3.562   6.514  0.2693 -0.3154  0.2433
18256TIP3    H176183   3.528   3.539   6.421 -1.3971 -1.0265  0.4346
18256TIP3    H276184   3.561   3.653   6.515  2.6818 -1.0338 -0.8096
18257TIP3   OH276185   5.661   3.046   4.528  0.2134  0.1117  0.0966
18257TIP3    H176186   5.586   3.105   4.518  0.0499 -0.4340 -2.5355
18257TIP3    H276187   5.629   2.961   4.499  0.9580 -0.9151  2.1144
18258TIP3   OH276188   3.095   5.113   4.667 -0.3761  0.1639 -0.2510
18258TIP3    H176189   3.007   5.076   4.670 -1.1480  1.7950  3.2606
18258TIP3    H276190   3.153   5.038   4.660 -1.9951 -1.2203  0.4145
18259TIP3   OH276191   5.268   6.353   5.198  0.2350  0.5008  1.1405
18259TIP3    H176192   5.225   6.358   5.283 -0.6359  3.2540  0.6247
18259TIP3    H276193   5.355   6.391   5.212  1.0123 -1.2226  1.2618
18260TIP3   OH276194   1.817   4.820   5.715 -0.4277 -0.2874 -0.7362
18260TIP3    H176195   1.903   4.853   5.687  0.7050  0.1260  2.7186
18260TIP3    H276196   1.813   4.732   5.679  2.3144 -0.9788  0.3714
18261TIP3   OH276197   3.990   5.153   1.837 -0.1826  0.3277  0.2889
18261TIP3    H176198   4.009   5.063   1.863 -1.0306 -0.0092 -0.2265
18261TIP3    H276199   3.964   5.196   1.919  0.1668  0.0947  0.5259
18262TIP3   OH276200   5.673   0.608  12.188 -0.1647  0.0865  0.1504
18262TIP3    H176201   5.602   0.634  12.129  0.9346  1.4272 -0.6445
18262TIP3    H276202   5.689   0.516  12.167 -1.1529 -0.0199 -0.1896
18263TIP3   OH276203   0.333   2.416  12.437  0.1535 -0.3128  0.5510
18263TIP3    H176204   0.275   2.363  12.492 -0.2052 -0.1846  0.2964
18263TIP3    H276205   0.275   2.459  12.375  0.3355  1.0000  1.2470
18264TIP3   OH276206   0.840   1.992  16.707 -0.2678 -0.1939 -0.3298
18264TIP3    H176207   0.785   2.014  16.632  0.5351 -1.3880 -1.3001
18264TIP3    H276208   0.924   1.966  16.669  0.6594  0.6188  1.0719
18265TIP3   OH276209   0.703   5.632  13.953  0.5678 -0.0229  0.4778
18265TIP3    H176210   0.745   5.550  13.977 -0.9336 -1.2315 -0.7690
18265TIP3    H276211   0.712   5.688  14.030  1.7314 -1.3091  1.3111
18266TIP3   OH276212   0.227   4.741  15.854  0.2407  0.2743  0.4635
18266TIP3    H176213   0.184   4.658  15.834 -0.3650  0.4400  1.0355
18266TIP3    H276214   0.290   4.720  15.923  0.2989  0.2390  0.3998
18267TIP3   OH276215   3.392   5.694  16.030  0.0694  0.3801 -0.2104
18267TIP3    H176216   3.433   5.735  16.106  1.2275 -0.5826 -0.2954
18267TIP3    H276217   3.452   5.711  15.958  0.3222 -1.0095 -0.3504
18268TIP3   OH276218   1.151   5.948  15.245 -0.9387 -0.4200 -0.3801
18268TIP3    H176219   1.089   5.903  15.188  0.3867 -4.3267  0.9457
18268TIP3    H276220   1.133   5.913  15.333  0.2466  1.7105  0.8022
18269TIP3   OH276221   0.093   3.386  12.315 -0.1117 -0.3597 -0.7491
18269TIP3    H176222   0.164   3.358  12.258 -0.3051 -0.3146 -1.0104
18269TIP3    H276223   0.013   3.370  12.265 -0.2417  0.4060 -0.7965
18270TIP3   OH276224   0.357   6.095   3.479 -0.0519  0.0769 -0.3172
18270TIP3    H176225   0.351   6.153   3.403 -0.9675  1.6663  0.9132
18270TIP3    H276226   0.401   6.148   3.546  1.4841 -1.5655  0.0565
18271TIP3   OH276227   0.142   3.172   2.810 -0.3739  0.1371 -0.0793
18271TIP3    H176228   0.096   3.101   2.766 -1.1179  0.4841  0.1237
18271TIP3    H276229   0.217   3.131   2.851 -0.3520 -0.3977 -0.6369
18272TIP3   OH276230   4.406   1.319   1.650 -0.6947  0.0034 -0.0292
18272TIP3    H176231   4.346   1.269   1.595 -0.3301  0.8960 -1.3032
18272TIP3    H276232   4.418   1.401   1.602  0.6069  0.3184  0.7988
18273TIP3   OH276233   0.420   3.721   5.360  0.6632  0.1271 -0.0874
18273TIP3    H176234   0.463   3.640   5.333 -0.2364 -0.5301  0.4450
18273TIP3    H276235   0.416   3.773   5.279 -0.2098 -1.0135 -0.7984
18274TIP3   OH276236   0.758   4.200  13.373  0.0796 -0.1122  0.7079
18274TIP3    H176237   0.782   4.219  13.464  1.7304  0.1466  0.2355
18274TIP3    H276238   0.840   4.176  13.331 -0.7192 -0.5317 -0.6546
18275TIP3   OH276239   2.136   4.298  16.414 -0.0795 -0.7139  0.1311
18275TIP3    H176240   2.145   4.212  16.372 -1.4066 -0.2458 -1.1877
18275TIP3    H276241   2.084   4.281  16.492 -0.7026 -1.0545 -0.3512
18276TIP3   OH276242   5.133   3.953  10.650 -0.1236 -0.3063 -0.2274
18276TIP3    H176243   5.226   3.931  10.641  0.0848  0.9675 -1.5057
18276TIP3    H276244   5.087   3.885  10.601  0.1767 -0.5222 -0.2127
18277TIP3   OH276245   2.362   0.470  13.095  0.1913 -0.0913 -0.0526
18277TIP3    H176246   2.344   0.432  13.009 -2.0929  0.1917  0.2395
18277TIP3    H276247   2.314   0.415  13.157  0.7681  0.4560  0.9124
18278TIP3   OH276248   4.360   3.041   6.553 -1.0057  1.0401  0.0195
18278TIP3    H176249   4.331   3.111   6.612 -1.9206 -0.3267  1.2740
18278TIP3    H276250   4.285   3.025   6.496 -0.5076  1.6107 -0.8170
18279TIP3   OH276251   6.531   6.639  14.789 -0.2246 -0.0402 -0.4563
18279TIP3    H176252   6.617   6.614  14.823  0.1208  0.5301 -0.8827
18279TIP3    H276253   6.515   6.727  14.826 -0.0427  0.3954 -1.3880
18280TIP3   OH276254   5.442   0.632   2.245 -0.1084 -0.1992 -0.1368
18280TIP3    H176255   5.535   0.631   2.223 -0.1653 -0.6678 -0.3809
18280TIP3    H276256   5.418   0.539   2.251 -0.0634 -0.1220  2.1073
18281TIP3   OH276257   5.179   5.321   1.942 -0.2862  0.2131 -0.1720
18281TIP3    H176258   5.166   5.347   2.034  0.0355 -0.1311 -0.0253
18281TIP3    H276259   5.177   5.403   1.893  0.0634  0.4525  0.2077
18282TIP3   OH276260   4.784   3.995   4.679 -0.2457 -0.0722 -0.0328
18282TIP3    H176261   4.800   4.022   4.588  0.7159 -0.0076  0.1440
18282TIP3    H276262   4.727   3.918   4.671  0.0167 -0.2045 -0.7013
18283TIP3   OH276263   0.002   5.521  13.332  0.5848 -0.1986 -0.1398
18283TIP3    H176264   0.057   5.475  13.269  0.6226 -0.8483  0.3634
18283TIP3    H276265  -0.055   5.577  13.278 -0.4966 -1.9253 -0.8576
18284TIP3   OH276266   5.811   5.100  14.132 -0.4810  0.2672 -0.1229
18284TIP3    H176267   5.731   5.048  14.121 -0.7259  0.2553  1.5345
18284TIP3    H276268   5.869   5.043  14.181  0.6039  0.2563 -1.3640
18285TIP3   OH276269   4.468   1.558  12.914 -0.4961 -0.1788 -0.3296
18285TIP3    H176270   4.428   1.601  12.990  0.0417  1.3184 -0.8584
18285TIP3    H276271   4.510   1.480  12.950  0.0895  0.7160  0.9867
18286TIP3   OH276272   5.024   0.940  17.059  0.0673  0.0960 -0.6499
18286TIP3    H176273   5.094   1.001  17.035  0.4722 -0.1601 -0.1410
18286TIP3    H276274   5.062   0.886  17.129 -1.1865  1.0525  0.8295
18287TIP3   OH276275   5.657   0.788  14.857  0.1575  0.0656 -0.2873
18287TIP3    H176276   5.564   0.790  14.878  0.1317  2.2653 -0.3861
18287TIP3    H276277   5.698   0.845  14.923  1.1774  0.4998 -1.2579
18288TIP3   OH276278   1.745   5.204   1.540 -0.4211 -0.0983  0.2254
18288TIP3    H176279   1.839   5.192   1.550 -0.3885  0.8516  1.3446
18288TIP3    H276280   1.730   5.295   1.567 -1.8517 -0.6784  1.5349
18289TIP3   OH276281   6.128   6.287   4.254  0.1567 -0.6353 -0.0517
18289TIP3    H176282   6.189   6.334   4.197  0.2683 -1.0992 -0.3214
18289TIP3    H276283   6.078   6.356   4.298 -2.0175 -0.1566 -2.9076
18290TIP3   OH276284   3.148   0.087  13.643  0.3390  0.4023 -0.1606
18290TIP3    H176285   3.243   0.093  13.633  0.4355  1.5894  1.2307
18290TIP3    H276286   3.117   0.177  13.638 -0.3247  0.4156  2.7472
18291TIP3   OH276287   2.443   6.051  15.734  0.4111 -0.4060  0.0346
18291TIP3    H176288   2.442   5.978  15.672  1.4382  0.5358 -1.1731
18291TIP3    H276289   2.529   6.047  15.774  0.7204  0.4748 -0.5062
18292TIP3   OH276290   0.670   2.823  10.316  0.3699  0.3298 -0.4958
18292TIP3    H176291   0.620   2.750  10.353  0.4714 -0.4350 -1.8340
18292TIP3    H276292   0.728   2.851  10.387 -1.9978  1.3309  1.1766
18293TIP3   OH276293   0.469   4.573   5.647  0.0922  0.2793  0.2907
18293TIP3    H176294   0.478   4.497   5.705 -0.1252 -0.8773 -1.1334
18293TIP3    H276295   0.529   4.555   5.575 -0.9576  0.7836 -0.7488
18294TIP3   OH276296   4.330   1.918  15.875 -0.0197 -0.0670  0.1027
18294TIP3    H176297   4.423   1.943  15.868 -0.4318  1.3694 -0.5733
18294TIP3    H276298   4.310   1.927  15.968  0.1080  1.2589  0.0236
18295TIP3   OH276299   3.991   5.907  16.708 -0.2472 -0.0506 -0.5650
18295TIP3    H176300   3.971   5.995  16.742 -2.3547 -1.0119  0.9090
18295TIP3    H276301   3.953   5.906  16.621  1.4066  1.0367 -1.3594
18296TIP3   OH276302   3.262   3.824  13.907  0.4387 -0.1223 -0.0861
18296TIP3    H176303   3.294   3.900  13.956 -1.2180  1.6959 -1.6339
18296TIP3    H276304   3.316   3.751  13.939  1.0424  1.3477  2.6334
18297TIP3   OH276305   2.290   4.767  11.532  0.0304 -0.1218  1.1623
18297TIP3    H176306   2.262   4.679  11.557  0.8887 -0.8804 -0.4082
18297TIP3    H276307   2.245   4.783  11.449 -0.5926  1.1922  1.7284
18298TIP3   OH276308   2.233   4.854   6.046  0.6523  0.0482  0.7974
18298TIP3    H176309   2.232   4.925   5.982  2.4527  0.5055  1.2079
18298TIP3    H276310   2.281   4.891   6.121 -0.1487 -0.9504  1.8406
18299TIP3   OH276311   6.360   1.680  16.760  0.0477 -0.4255 -0.0131
18299TIP3    H176312   6.325   1.753  16.812  0.5240 -0.2430  0.0583
18299TIP3    H276313   6.378   1.718  16.675 -1.5332 -0.9231 -0.6065
18300TIP3   OH276314   1.636   4.798   6.675 -0.4519 -0.2283  0.2652
18300TIP3    H176315   1.603   4.711   6.653 -0.5941 -0.2581  0.5833
18300TIP3    H276316   1.713   4.781   6.730  1.4075 -0.2020 -2.1539
18301TIP3   OH276317   2.565   5.594   5.227  1.0311  0.3936 -1.2647
18301TIP3    H176318   2.642   5.538   5.242 -0.3293 -0.9740  1.4461
18301TIP3    H276319   2.563   5.607   5.133  3.2842 -1.4755 -1.6683
18302TIP3   OH276320   5.926   2.574   1.890 -0.0460 -0.1655 -0.3950
18302TIP3    H176321   5.970   2.552   1.808  0.8959 -2.3253  0.6144
18302TIP3    H276322   5.997   2.600   1.949 -0.4117 -1.1136  0.4787
18303TIP3   OH276323   1.777   4.457   1.460 -0.0050  0.9278  0.3253
18303TIP3    H176324   1.867   4.433   1.482  0.2388  0.9243 -0.6003
18303TIP3    H276325   1.761   4.539   1.506  0.8766  1.5266 -0.4081
18304TIP3   OH276326   6.053   4.812   0.781  0.2968  0.3946 -0.2100
18304TIP3    H176327   5.995   4.884   0.803 -0.1412 -0.0300  0.0471
18304TIP3    H276328   6.008   4.734   0.814  1.0132  0.0618  0.0124
18305TIP3   OH276329   4.052   3.045   5.687 -0.7210  0.5909 -0.6273
18305TIP3    H176330   3.964   3.068   5.658 -0.4219 -0.5511 -2.5444
18305TIP3    H276331   4.066   2.956   5.656  0.2828 -0.1427  1.6676
18306TIP3   OH276332   0.654   0.383  11.913  0.1061 -0.0187 -0.1289
18306TIP3    H176333   0.662   0.310  11.852  0.8731  1.1246 -1.4620
18306TIP3    H276334   0.743   0.395  11.947 -0.6876 -2.2141  3.2489
18307TIP3   OH276335   0.167   5.703  16.927  0.3112  0.1739 -0.3098
18307TIP3    H176336   0.217   5.640  16.875  0.2564  0.3903 -0.6290
18307TIP3    H276337   0.084   5.714  16.879  0.9592  1.7248 -1.1758
18308TIP3   OH276338   4.967   1.944   5.167  0.4410 -0.0205 -0.8873
18308TIP3    H176339   4.928   1.883   5.229  1.4208 -0.1446 -0.3796
18308TIP3    H276340   4.926   2.029   5.187  0.6963 -0.0728 -0.1145
18309TIP3   OH276341   2.919   2.224  16.444  0.0930  0.1523  0.0875
18309TIP3    H176342   2.870   2.302  16.469  0.2603 -0.1901  1.5577
18309TIP3    H276343   3.008   2.257  16.427  0.1539  0.2897  0.6579
18310TIP3   OH276344   6.678   6.394   0.349 -0.1897  0.8414  0.0481
18310TIP3    H176345   6.639   6.379   0.436  1.6259  1.0199  0.9359
18310TIP3    H276346   6.609   6.439   0.300 -1.2133  0.8877  1.4484
18311TIP3   OH276347   2.569   0.966  11.895 -0.0657  0.2310 -0.6659
18311TIP3    H176348   2.507   1.026  11.937  0.8180  1.2486 -0.7553
18311TIP3    H276349   2.533   0.879  11.912 -0.7616  0.7101  0.5070
18312TIP3   OH276350   1.305   6.577  14.776  0.6686 -0.2346  0.2706
18312TIP3    H176351   1.215   6.560  14.748  0.9286  1.5646 -1.9476
18312TIP3    H276352   1.345   6.490  14.779 -0.6812 -0.9241 -0.4659
18313TIP3   OH276353   4.133   1.502  17.091 -0.2044 -0.2591 -0.6289
18313TIP3    H176354   4.192   1.541  17.027 -1.1924  2.0514 -0.2185
18313TIP3    H276355   4.127   1.410  17.065  2.3840 -0.2503 -1.5426
18314TIP3   OH276356   5.836   1.249   6.035  0.1251 -0.0134 -0.0034
18314TIP3    H176357   5.831   1.307   6.111 -2.0902 -1.1605  0.8275
18314TIP3    H276358   5.908   1.190   6.054 -0.2047 -0.0885  1.0706
18315TIP3   OH276359   4.847   3.432   4.279  0.2472  0.3860 -0.1274
18315TIP3    H176360   4.852   3.351   4.228 -1.6965 -1.8244  2.8517
18315TIP3    H276361   4.776   3.481   4.238  2.9686  1.9691 -3.4617
18316TIP3   OH276362   4.138   4.870  17.320  0.1911  0.3725  0.3191
18316TIP3    H176363   4.148   4.796  17.379  0.8501  0.3581  0.1976
18316TIP3    H276364   4.135   4.947  17.378  0.6885  0.3469  0.3843
18317TIP3   OH276365   0.765   5.391  14.952  0.2172  0.2347  0.7927
18317TIP3    H176366   0.747   5.426  15.039 -0.7967 -0.0565  0.7066
18317TIP3    H276367   0.692   5.331  14.934  0.6251 -0.0155 -0.0881
18318TIP3   OH276368   2.761   1.716  12.238  0.8886  0.6123  0.5022
18318TIP3    H176369   2.813   1.795  12.221  1.5378  0.5845  2.1537
18318TIP3    H276370   2.815   1.664  12.297  0.0709 -0.6490  0.1758
18319TIP3   OH276371   0.077   5.690   0.634 -0.0696 -0.4188  0.0159
18319TIP3    H176372  -0.010   5.656   0.654 -0.4311  0.9933  0.9937
18319TIP3    H276373   0.065   5.785   0.633  1.6582 -0.1617  1.1482
18320TIP3   OH276374   3.918   2.541   5.640 -0.6563 -0.5923 -0.1175
18320TIP3    H176375   3.941   2.541   5.547  0.7702 -2.6737  0.1576
18320TIP3    H276376   3.864   2.463   5.650 -0.6555 -0.4744  0.8250
18321TIP3   OH276377   2.708   0.698  13.114 -0.3672  0.1755  0.1514
18321TIP3    H176378   2.801   0.684  13.100 -0.4138 -0.5380  0.5094
18321TIP3    H276379   2.695   0.792  13.101  0.2374  0.1311 -0.8111
18322TIP3   OH276380   3.780   1.456   2.196 -0.0100 -0.3281  0.2830
18322TIP3    H176381   3.840   1.444   2.269  0.4215  0.3736  0.0484
18322TIP3    H276382   3.784   1.549   2.176  1.2497 -0.7710 -1.7981
18323TIP3   OH276383   0.861   3.171   6.192 -0.0812 -0.5676  0.2289
18323TIP3    H176384   0.824   3.185   6.105  2.1184  1.2252 -0.5336
18323TIP3    H276385   0.903   3.085   6.187  0.7779 -0.1114 -0.8081
18324TIP3   OH276386   0.813   5.998  15.539  0.0648 -0.4345 -0.7704
18324TIP3    H176387   0.778   5.944  15.609 -0.8154  0.1785 -0.7246
18324TIP3    H276388   0.812   6.087  15.575  1.8932 -0.4135 -0.6739
18325TIP3   OH276389   0.295   5.409  11.522  0.0020 -0.2993  0.0400
18325TIP3    H176390   0.246   5.363  11.591  0.4797 -0.7053  0.1188
18325TIP3    H276391   0.357   5.344  11.490  1.1358  0.4669  0.5881
18326TIP3   OH276392   4.902   4.857   0.158 -0.2187 -0.5677  0.1071
18326TIP3    H176393   4.826   4.902   0.122 -0.8222 -0.5344  1.3595
18326TIP3    H276394   4.967   4.926   0.172  0.0711 -0.5968 -0.9634
18327TIP3   OH276395   1.465   0.637   0.192  0.2495  0.4713 -0.1583
18327TIP3    H176396   1.491   0.573   0.125 -1.4030  0.1277 -0.5220
18327TIP3    H276397   1.529   0.626   0.262 -0.1318 -1.8315 -0.0735
18328TIP3   OH276398   4.335   3.166   1.816  0.2220  0.3258  0.1540
18328TIP3    H176399   4.350   3.190   1.908  1.0898  0.4369 -0.0021
18328TIP3    H276400   4.361   3.245   1.768  0.3339  0.0615 -0.2146
18329TIP3   OH276401   6.726   3.328   1.774  0.3590 -0.3009 -0.1167
18329TIP3    H176402   6.670   3.263   1.731  0.0408  0.0739 -0.2774
18329TIP3    H276403   6.675   3.357   1.850  0.3169  0.0662 -0.2815
18330TIP3   OH276404   6.282   0.350  11.967  0.6581 -0.4737 -0.8844
18330TIP3    H176405   6.228   0.298  11.908 -0.8425  0.4504 -0.3742
18330TIP3    H276406   6.315   0.287  12.031 -2.0506 -0.7195  0.4071
18331TIP3   OH276407   2.843   2.677  12.697  0.2341  0.4989  0.4354
18331TIP3    H176408   2.795   2.733  12.758 -1.8160 -1.5386  0.7959
18331TIP3    H276409   2.906   2.630  12.751  0.1055  0.4794  0.5674
18332TIP3   OH276410   4.648   3.457   4.092  0.1244 -0.1092  0.1508
18332TIP3    H176411   4.573   3.507   4.057  0.4096 -0.5611 -1.1813
18332TIP3    H276412   4.609   3.397   4.155 -0.7282 -0.6811 -0.8792
18333TIP3   OH276413   2.911   1.580  12.418  0.0828  0.5181  0.2622
18333TIP3    H176414   3.000   1.615  12.416  0.4371 -0.3663  0.1397
18333TIP3    H276415   2.917   1.502  12.472 -0.2936 -0.4160 -0.9982
18334TIP3   OH276416   3.878   4.741   6.551  0.1825 -0.0316  0.1890
18334TIP3    H176417   3.972   4.738   6.533 -0.1410 -3.3845 -1.7512
18334TIP3    H276418   3.857   4.834   6.550  3.4992  0.8836  1.1510
18335TIP3   OH276419   3.078   2.569  12.822 -0.2490  0.1029  0.1578
18335TIP3    H176420   3.104   2.534  12.908 -1.2303 -0.1166  0.3858
18335TIP3    H276421   3.108   2.503  12.760  0.2513  0.1430  0.3496
18336TIP3   OH276422   5.346   6.033   3.174  0.0873  0.9822  0.0634
18336TIP3    H176423   5.416   6.049   3.110 -0.3683  0.9304 -0.4477
18336TIP3    H276424   5.278   6.095   3.151 -0.9211 -0.3880 -0.7633
18337TIP3   OH276425   2.514   3.202   6.285  0.5208 -0.9031  0.3101
18337TIP3    H176426   2.600   3.159   6.285  1.0049 -0.0290 -1.3220
18337TIP3    H276427   2.465   3.157   6.216  0.6538  0.3624 -0.6612
18338TIP3   OH276428   0.504   4.904   0.902  0.3044  0.3019  0.0667
18338TIP3    H176429   0.522   4.817   0.868  0.9435  0.8688 -1.1066
18338TIP3    H276430   0.558   4.911   0.981 -0.3542 -0.6364  0.6095
18339TIP3   OH276431   5.381   5.353  16.783  0.2674  0.5525  0.3615
18339TIP3    H176432   5.307   5.296  16.763  1.1855 -1.1681  1.5735
18339TIP3    H276433   5.444   5.336  16.713 -0.3312  1.8445 -0.5392
18340TIP3   OH276434   1.964   1.424  11.735  0.1407 -0.0310  0.0435
18340TIP3    H176435   1.882   1.453  11.777  0.8550  1.2694  0.6003
18340TIP3    H276436   2.033   1.465  11.787  1.1558 -1.1118 -0.4251
18341TIP3   OH276437   0.719   0.644  13.270 -0.1148  0.3153  0.0274
18341TIP3    H176438   0.623   0.646  13.270 -0.1002  1.4101 -0.5484
18341TIP3    H276439   0.745   0.731  13.241  1.0562 -0.2656 -0.7069
18342TIP3   OH276440   1.527   3.169   4.292  0.0715  0.0451  0.2747
18342TIP3    H176441   1.577   3.142   4.369 -0.8993 -2.8009 -0.0086
18342TIP3    H276442   1.579   3.138   4.218 -0.4438  0.1558 -0.1357
18343TIP3   OH276443   4.163   3.762   6.230 -0.1346  0.0902 -0.2082
18343TIP3    H176444   4.084   3.730   6.275  1.0542 -0.5863  1.5160
18343TIP3    H276445   4.194   3.686   6.180  1.5773 -1.0117  2.3081
18344TIP3   OH276446   4.521   2.543   4.563 -0.3044  0.4915 -0.1098
18344TIP3    H176447   4.532   2.546   4.658 -1.8796 -0.0847  0.1198
18344TIP3    H276448   4.431   2.574   4.548 -0.4350 -0.3983 -1.3223
18345TIP3   OH276449   2.635   5.617  15.434 -0.2640  0.0924  0.3394
18345TIP3    H176450   2.730   5.606  15.425 -0.5580 -1.7139 -0.9991
18345TIP3    H276451   2.613   5.574  15.517  0.2391  1.8059  1.4045
18346TIP3   OH276452   2.832   4.543   1.845 -0.2336 -0.0930  0.0113
18346TIP3    H176453   2.871   4.629   1.857 -0.0039 -0.4637  2.3450
18346TIP3    H276454   2.747   4.560   1.805  0.8750  0.9786 -2.0435
18347TIP3   OH276455   2.370   5.800  12.336 -0.0475 -0.1957 -0.2284
18347TIP3    H176456   2.447   5.775  12.388  0.0723  1.5556  0.5092
18347TIP3    H276457   2.384   5.893  12.316 -0.9322 -0.3958 -1.9712
18348TIP3   OH276458   0.119   4.204  16.364  0.3311 -0.4672  0.2245
18348TIP3    H176459   0.170   4.212  16.445 -0.4347 -2.1938  0.9280
18348TIP3    H276460   0.034   4.243  16.385 -0.3938 -2.2489  0.8057
18349TIP3   OH276461   6.176   6.373  10.599 -0.0270  0.5031  0.3363
18349TIP3    H176462   6.250   6.335  10.647 -1.0170  0.2500  1.7410
18349TIP3    H276463   6.147   6.303  10.541  0.1146  0.1913  0.6320
18350TIP3   OH276464   2.974   3.503  12.233  1.2746  0.0090 -0.8934
18350TIP3    H176465   3.006   3.593  12.239  0.0758  0.3969  0.0585
18350TIP3    H276466   2.957   3.477  12.323 -0.0161 -0.5506 -1.2762
18351TIP3   OH276467   1.592   2.406   4.236  0.0434 -1.0569 -0.3158
18351TIP3    H176468   1.593   2.489   4.188  0.6951 -0.4465  0.7064
18351TIP3    H276469   1.676   2.404   4.282  0.0316 -2.2855 -0.3146
18352TIP3   OH276470   4.154   1.446  14.346 -0.1892  0.0247 -0.1155
18352TIP3    H176471   4.110   1.521  14.305 -0.1377  0.3797  0.4615
18352TIP3    H276472   4.093   1.373  14.334  0.0273  0.0151 -1.2089
18353TIP3   OH276473   0.132   1.011  13.286 -0.4048  0.3360  0.4659
18353TIP3    H176474   0.100   0.994  13.374 -1.2332 -0.4763  0.0342
18353TIP3    H276475   0.120   1.105  13.273  1.5221  0.8442  1.8742
18354TIP3   OH276476   6.192   1.371   0.140 -0.5588 -0.0450  0.6912
18354TIP3    H176477   6.099   1.363   0.162 -0.5868  1.7409  1.3815
18354TIP3    H276478   6.194   1.422   0.059 -0.2202 -2.1358 -0.7093
18355TIP3   OH276479   4.565   5.141   6.444  0.0070  0.4661  0.5856
18355TIP3    H176480   4.534   5.229   6.425  0.0997  0.4477  0.3448
18355TIP3    H276481   4.628   5.122   6.374  1.0209  0.7343  1.3965
18356TIP3   OH276482   2.842   2.031  13.445  0.5402  0.1700  0.0639
18356TIP3    H176483   2.903   1.966  13.478  1.0221  0.9631  0.7815
18356TIP3    H276484   2.844   2.021  13.350  1.7408  0.1330  0.0803
18357TIP3   OH276485   1.826   2.808  13.683 -0.0064  0.1026  0.2102
18357TIP3    H176486   1.828   2.745  13.611 -1.3478  0.1763  0.0799
18357TIP3    H276487   1.854   2.759  13.760  0.4760 -0.2279 -0.1660
18358TIP3   OH276488   0.657   0.557   3.732  0.0077 -0.3544 -0.1931
18358TIP3    H176489   0.640   0.649   3.710  1.3837 -0.4150 -1.7724
18358TIP3    H276490   0.580   0.529   3.781 -0.6502  1.5084 -0.0775
18359TIP3   OH276491   6.647   5.596  13.059 -0.2022  0.4530  0.1828
18359TIP3    H176492   6.600   5.622  12.980 -0.1005 -0.1312 -0.0711
18359TIP3    H276493   6.621   5.506  13.075  0.5415  0.2377  0.2447
18360TIP3   OH276494   2.441   1.635   5.575 -0.3863 -0.2258 -0.1862
18360TIP3    H176495   2.416   1.629   5.668  0.7839  2.5127  0.3815
18360TIP3    H276496   2.487   1.553   5.558  2.0745  0.4005  2.5813
18361TIP3   OH276497   0.565   0.620  16.053  0.4667  0.4264  0.7353
18361TIP3    H176498   0.519   0.608  15.970  0.0515  2.4384  0.6194
18361TIP3    H276499   0.546   0.541  16.103 -0.3309 -0.2548 -0.5969
18362TIP3   OH276500   1.366   3.603   1.726  0.4919 -0.1245 -0.4165
18362TIP3    H176501   1.400   3.669   1.665 -0.4253  0.3329 -0.4528
18362TIP3    H276502   1.283   3.576   1.688 -0.5632  0.8619  1.1070
18363TIP3   OH276503   3.971   4.600   6.238  0.0653  0.8729  0.7152
18363TIP3    H176504   3.994   4.693   6.233 -0.7997  1.0752  0.4555
18363TIP3    H276505   3.938   4.579   6.151 -0.6947  0.5755  1.0731
18364TIP3   OH276506   5.925   3.745   3.001 -0.1027  0.0373  0.0249
18364TIP3    H176507   5.921   3.811   2.932  0.3181  0.1714  0.1214
18364TIP3    H276508   5.924   3.661   2.954  0.8820  0.1307 -0.2010
18365TIP3   OH276509   2.741   5.999  15.785  0.0197  0.2591  1.0171
18365TIP3    H176510   2.799   6.020  15.859  0.2069  0.3116  0.8558
18365TIP3    H276511   2.794   5.943  15.729 -0.3658 -0.3953  1.2847
18366TIP3   OH276512   5.469   1.842   0.720  0.4103  0.0354 -0.6990
18366TIP3    H176513   5.538   1.823   0.656  1.6482  1.6527  0.0812
18366TIP3    H276514   5.430   1.923   0.689  1.3498  1.1105  0.7927
18367TIP3   OH276515   0.282   2.429  11.095 -0.3767 -0.0423 -0.1807
18367TIP3    H176516   0.331   2.461  11.019  0.3291  0.6297  0.5494
18367TIP3    H276517   0.325   2.346  11.117  0.0194  0.2276  0.0626
18368TIP3   OH276518   1.867   0.939  15.784  0.1420 -0.4379  0.5571
18368TIP3    H176519   1.867   1.034  15.775 -1.0536 -0.2442  2.2785
18368TIP3    H276520   1.912   0.922  15.866 -0.2480 -1.3238  0.5995
18369TIP3   OH276521   6.006   3.549   4.058 -0.2041  0.6362 -0.5072
18369TIP3    H176522   6.060   3.627   4.049  0.0434  0.4640 -0.5302
18369TIP3    H276523   6.056   3.480   4.014 -1.2682  0.8538 -2.1743
18370TIP3   OH276524   5.892   1.097  14.253  0.0192  0.6148  0.1533
18370TIP3    H176525   5.946   1.047  14.314  0.5262  1.6357  0.5592
18370TIP3    H276526   5.888   1.043  14.174  1.4423  0.4181  0.1997
18371TIP3   OH276527   3.360   3.448   3.186 -0.2479 -0.1781 -0.0336
18371TIP3    H176528   3.377   3.365   3.141 -0.8982 -0.5882  0.4540
18371TIP3    H276529   3.297   3.426   3.254  0.0869  0.5951  0.5455
18372TIP3   OH276530   1.543   2.458  15.113 -0.6077  0.2055  0.4401
18372TIP3    H176531   1.563   2.378  15.160  0.6846 -0.4113 -1.0658
18372TIP3    H276532   1.497   2.429  15.034 -0.8996  1.0317  0.2887
18373TIP3   OH276533   0.939   5.524  15.730  0.6627 -0.0929  0.2056
18373TIP3    H176534   0.981   5.524  15.816  0.2580  0.5171  0.4135
18373TIP3    H276535   0.849   5.496  15.748  0.7806 -0.7041 -0.1341
18374TIP3   OH276536   5.594   3.559   2.103 -0.1514 -0.5621  0.2078
18374TIP3    H176537   5.550   3.515   2.176 -0.3901  0.4622  0.7179
18374TIP3    H276538   5.678   3.515   2.095 -0.0875 -0.6534  1.1733
18375TIP3   OH276539   1.265   2.077   2.392 -0.2938  0.0960 -0.2276
18375TIP3    H176540   1.337   2.022   2.423 -0.9112 -0.0326  1.0478
18375TIP3    H276541   1.230   2.030   2.316  0.0872 -0.5419 -0.0151
18376TIP3   OH276542   5.782   2.740  15.862  0.7330 -0.4139  0.2923
18376TIP3    H176543   5.775   2.738  15.767  2.0199 -1.7464  0.2025
18376TIP3    H276544   5.819   2.827  15.881  0.0701  0.0302 -0.3614
18377TIP3   OH276545   2.967   6.448   0.367 -0.1907 -0.2632  0.2277
18377TIP3    H176546   2.926   6.480   0.447  0.1426 -1.3608  0.8679
18377TIP3    H276547   3.051   6.411   0.397 -0.4326 -1.4441 -0.4893
18378TIP3   OH276548   2.176   2.041   1.104  0.4131  0.8733 -0.2908
18378TIP3    H176549   2.133   1.959   1.128  0.9113  0.4885 -0.6814
18378TIP3    H276550   2.264   2.034   1.141  0.9263  0.6114 -1.4876
18379TIP3   OH276551   0.385   1.990  10.937  0.0061  1.0259 -0.0711
18379TIP3    H176552   0.330   2.057  10.895 -0.3428  0.4461 -0.5506
18379TIP3    H276553   0.404   1.928  10.867 -1.6842 -0.6984  0.8934
18380TIP3   OH276554   6.544   0.558  16.948 -0.1481  0.1251  0.5147
18380TIP3    H176555   6.481   0.491  16.974  1.1485 -0.4057  2.5554
18380TIP3    H276556   6.524   0.633  17.004 -0.3929  0.7884 -0.4364
18381TIP3   OH276557   5.179   3.841  15.442  0.3777 -0.1819 -0.4378
18381TIP3    H176558   5.255   3.785  15.428  1.4316  1.0400  0.1176
18381TIP3    H276559   5.211   3.911  15.500 -0.9634  0.7983 -0.8124
18382TIP3   OH276560   6.101   5.327  16.900  0.5330 -0.9277 -0.1640
18382TIP3    H176561   6.055   5.263  16.846  1.0894 -0.9916 -0.5647
18382TIP3    H276562   6.185   5.339  16.858  0.1419  0.6781 -0.5743
18383TIP3   OH276563   1.619   5.355  17.367  0.2473 -0.6473 -0.1272
18383TIP3    H176564   1.656   5.269  17.385  0.8087 -0.2687  0.5571
18383TIP3    H276565   1.677   5.417  17.412 -0.4955  0.0446 -0.0948
18384TIP3   OH276566   2.414   1.395   4.932  0.0406 -0.0535 -0.4960
18384TIP3    H176567   2.455   1.481   4.921  1.3710 -0.7465 -1.1359
18384TIP3    H276568   2.365   1.403   5.014  0.0240  1.3545 -0.6052
18385TIP3   OH276569   0.097   6.649   0.618 -0.1229 -0.3343  0.2845
18385TIP3    H176570   0.060   6.624   0.703 -0.8417 -0.7380 -0.1408
18385TIP3    H276571   0.191   6.656   0.635 -0.3155  0.1020  1.2326
18386TIP3   OH276572   4.959   1.955  11.503  0.5152  0.1035 -0.1466
18386TIP3    H176573   5.003   1.930  11.421  0.5998 -1.1925  0.2682
18386TIP3    H276574   5.031   1.968  11.565  0.3981 -0.6047  0.1535
18387TIP3   OH276575   5.012   5.712  11.179 -0.8365 -0.4927  0.7152
18387TIP3    H176576   4.952   5.687  11.108  1.9889 -1.7823 -1.4599
18387TIP3    H276577   5.031   5.804  11.163  0.2619 -0.9187 -0.7394
18388TIP3   OH276578   0.306   2.068   5.294  0.1238  0.1646  0.1756
18388TIP3    H176579   0.400   2.076   5.308 -0.2196  2.3515  1.7570
18388TIP3    H276580   0.278   1.998   5.354  0.5660  0.4818  0.7617
18389TIP3   OH276581   2.656   0.850  16.264  0.4829 -0.4810 -0.4428
18389TIP3    H176582   2.675   0.893  16.347 -0.7413 -0.4230 -0.1870
18389TIP3    H276583   2.631   0.921  16.205 -0.0247 -0.6666 -0.4571
18390TIP3   OH276584   5.208   5.953  17.363 -0.2476 -0.1715  0.2653
18390TIP3    H176585   5.137   5.946  17.427  2.3545 -1.4350  3.2686
18390TIP3    H276586   5.232   5.863  17.343  0.0844  0.2244 -1.2984
18391TIP3   OH276587   2.852   3.187   3.128  0.1037  0.3793 -0.7847
18391TIP3    H176588   2.851   3.181   3.032 -0.0280  0.0002 -0.7592
18391TIP3    H276589   2.881   3.100   3.157 -0.7362  0.2033 -0.4489
18392TIP3   OH276590   2.296   0.578  12.782 -0.1876 -0.3866  0.4117
18392TIP3    H176591   2.204   0.572  12.756  0.2807 -0.9103 -1.2039
18392TIP3    H276592   2.293   0.585  12.878 -1.9326  0.4388  0.3341
18393TIP3   OH276593   3.867   6.309  14.688 -0.2011  0.1129  0.0420
18393TIP3    H176594   3.948   6.313  14.738  1.0768  0.2896 -1.9194
18393TIP3    H276595   3.853   6.216  14.672  0.8873  0.1723 -1.4795
18394TIP3   OH276596   4.082   3.034  14.693 -0.3631 -0.2886  0.7205
18394TIP3    H176597   4.128   2.956  14.723 -0.6113 -0.7735 -0.1093
18394TIP3    H276598   4.069   3.086  14.772 -1.3216 -1.6808  1.5419
18395TIP3   OH276599   3.135   4.812  13.747  0.1997 -0.2317  0.1486
18395TIP3    H176600   3.090   4.733  13.718 -0.5401 -0.7863  2.5953
18395TIP3    H276601   3.223   4.782  13.769 -0.4981 -0.7578  2.4589
18396TIP3   OH276602   1.410   4.033   5.311  0.3008  0.0592 -0.3167
18396TIP3    H176603   1.422   3.958   5.370 -1.0067  0.4620  0.4959
18396TIP3    H276604   1.460   4.103   5.352 -1.2370  0.5607  0.7947
18397TIP3   OH276605   3.642   2.945   5.406  0.3253 -1.1149 -0.3582
18397TIP3    H176606   3.562   2.947   5.459 -0.4782 -1.4781 -1.5389
18397TIP3    H276607   3.615   2.907   5.323  1.4759 -0.1369 -1.2078
18398TIP3   OH276608   0.155   3.812  17.160 -0.1741  0.0505  0.3280
18398TIP3    H176609   0.076   3.859  17.135 -0.0501 -0.5036 -1.2471
18398TIP3    H276610   0.128   3.755  17.232 -1.9526 -2.1061 -1.8610
18399TIP3   OH276611   1.332   0.269   3.758 -0.0883 -0.3131  0.2024
18399TIP3    H176612   1.409   0.219   3.786  0.5145  0.7795  0.5742
18399TIP3    H276613   1.264   0.246   3.821  0.1516 -0.7197  0.3180
18400TIP3   OH276614   3.835   0.771   5.803  0.5099 -0.3599  0.2696
18400TIP3    H176615   3.901   0.778   5.872  0.0459 -0.7451  0.7605
18400TIP3    H276616   3.761   0.726   5.844  0.5817 -1.4373 -0.7295
18401TIP3   OH276617   3.592   3.801   6.617  0.0467 -0.2717  0.7529
18401TIP3    H176618   3.585   3.765   6.705 -0.7597 -1.0845  0.3658
18401TIP3    H276619   3.560   3.891   6.626  1.6473  0.2562  1.6306
18402TIP3   OH276620   1.078   3.992  15.643  0.3101 -0.6481  0.2058
18402TIP3    H176621   1.044   4.010  15.555  0.7516  0.1210  0.1813
18402TIP3    H276622   1.038   3.909  15.667  0.3818 -0.9933 -0.8191
18403TIP3   OH276623   2.237   2.353  13.297 -0.3447 -0.2959 -0.4045
18403TIP3    H176624   2.271   2.430  13.250 -1.4463 -0.3160 -1.2532
18403TIP3    H276625   2.304   2.286  13.284 -1.1398 -0.6783 -3.0172
18404TIP3   OH276626   4.618   3.748   4.379  0.2189 -0.3049 -0.1383
18404TIP3    H176627   4.593   3.840   4.370 -0.2716 -0.5123 -1.0484
18404TIP3    H276628   4.653   3.741   4.468 -0.7714  0.5152  0.3314
18405TIP3   OH276629   1.062   1.776  17.030  0.2339  0.0843  0.3184
18405TIP3    H176630   1.098   1.806  17.113  1.3362  1.2628 -0.5469
18405TIP3    H276631   1.137   1.738  16.984 -0.5220 -1.2633  0.1574
18406TIP3   OH276632   3.897   3.722   1.338 -0.8765  0.2642  0.1050
18406TIP3    H176633   3.941   3.643   1.308  0.4435  0.4526  1.4618
18406TIP3    H276634   3.900   3.781   1.262  0.1625 -0.1639 -0.1980
18407TIP3   OH276635   0.934   2.897  13.690 -0.4388 -0.1482  0.9556
18407TIP3    H176636   0.847   2.864  13.667 -0.2543  0.2273 -0.3599
18407TIP3    H276637   0.994   2.828  13.663 -0.2570  0.0357  0.8922
18408TIP3   OH276638   3.289   4.946   5.351 -0.0252 -0.0826 -0.1669
18408TIP3    H176639   3.360   5.007   5.373 -1.4101  1.2990  0.6987
18408TIP3    H276640   3.305   4.870   5.407  1.0428 -0.0326 -0.3706
18409TIP3   OH276641   5.563   1.543  13.162 -0.3380  1.0286  0.1813
18409TIP3    H176642   5.594   1.525  13.073 -1.1672 -0.6242  0.1640
18409TIP3    H276643   5.598   1.470  13.214  0.2214  2.0359  1.2454
18410TIP3   OH276644   5.900   3.053   0.577  0.8621  0.3435  0.2630
18410TIP3    H176645   5.834   3.073   0.644  0.3757 -0.2015 -0.0442
18410TIP3    H276646   5.907   2.958   0.579  0.2784  0.2598 -0.9891
18411TIP3   OH276647   1.972   0.773   3.149 -0.6189 -0.2604 -0.1277
18411TIP3    H176648   1.939   0.701   3.202 -2.0550  0.0698 -0.5290
18411TIP3    H276649   1.971   0.849   3.207  1.7086 -0.6722  0.5580
18412TIP3   OH276650   4.700   4.913   5.554  0.7557 -0.0594  0.6179
18412TIP3    H176651   4.656   4.984   5.507  1.3368  1.2692  2.0162
18412TIP3    H276652   4.640   4.892   5.626  1.6329  0.6466  1.5767
18413TIP3   OH276653   5.037   5.971  15.633  0.6406 -0.0359 -0.0088
18413TIP3    H176654   5.017   5.893  15.686 -1.8337  0.9083  0.5636
18413TIP3    H276655   4.987   5.959  15.553  0.4483  0.8429 -0.0287
18414TIP3   OH276656   4.298   1.511  11.779 -0.1775 -0.2088  1.3387
18414TIP3    H176657   4.360   1.443  11.804 -0.2296 -0.6473  0.3230
18414TIP3    H276658   4.306   1.517  11.684 -0.3448  1.0465  1.3944
18415TIP3   OH276659   2.793   1.621  11.375  0.2359  0.2614 -0.0261
18415TIP3    H176660   2.788   1.716  11.384  1.4402  0.2596  0.9242
18415TIP3    H276661   2.706   1.590  11.402 -0.4754  1.1245 -1.2214
18416TIP3   OH276662   5.323   1.543  12.631  0.0567  0.1335 -0.0706
18416TIP3    H176663   5.311   1.560  12.537  0.1400  1.2517  0.1000
18416TIP3    H276664   5.417   1.550  12.645 -0.0142  0.6078  0.1987
18417TIP3   OH276665   6.399   4.745  17.146  0.2644 -0.3417  0.1094
18417TIP3    H176666   6.448   4.735  17.228  1.7462 -1.9352 -0.9120
18417TIP3    H276667   6.350   4.663  17.137  2.1950 -1.3698 -1.8512
18418TIP3   OH276668   1.833   5.089  13.421  0.2310 -0.2999  0.5622
18418TIP3    H176669   1.788   5.173  13.431  1.1983  0.2079  0.7134
18418TIP3    H276670   1.886   5.099  13.342  0.5755 -0.6728  0.7445
18419TIP3   OH276671   6.150   5.376  15.210 -0.0233  0.2340  0.2563
18419TIP3    H176672   6.126   5.286  15.189 -1.2039  1.0167 -1.9914
18419TIP3    H276673   6.241   5.384  15.181  0.4197 -0.4531  1.3609
18420TIP3   OH276674   1.243   4.087  14.341 -0.1271 -0.5631 -0.1916
18420TIP3    H176675   1.173   4.146  14.313 -0.2324 -0.5954  0.0075
18420TIP3    H276676   1.229   4.008  14.289 -0.2969 -0.6059 -0.0808
18421TIP3   OH276677   1.389   4.413   4.564  0.1745  0.5759  0.3713
18421TIP3    H176678   1.462   4.465   4.531 -1.2725  2.8458  0.5531
18421TIP3    H276679   1.312   4.447   4.517 -1.2345  0.5387  2.5051
18422TIP3   OH276680   2.614   1.427   5.483  0.6742  0.1227  0.3161
18422TIP3    H176681   2.602   1.341   5.523  0.9220  0.7444  1.8143
18422TIP3    H276682   2.625   1.409   5.390 -2.8087 -1.1931  0.0145
18423TIP3   OH276683   4.474   3.036   0.571  0.3374 -0.0661 -0.1079
18423TIP3    H176684   4.445   3.026   0.662 -0.1868 -0.4700 -0.3175
18423TIP3    H276685   4.535   2.964   0.558  0.6903  0.1998  0.0235
18424TIP3   OH276686   4.641   6.234  16.883 -0.1025 -0.1156 -0.3221
18424TIP3    H176687   4.666   6.280  16.963 -2.3722  2.5684 -1.0062
18424TIP3    H276688   4.552   6.204  16.901 -0.6808  0.6249 -1.8505
18425TIP3   OH276689   0.309   1.203  15.652  0.6304 -0.1649  0.9355
18425TIP3    H176690   0.392   1.210  15.701  1.4563 -1.9650 -0.1129
18425TIP3    H276691   0.305   1.284  15.602  2.6736 -0.7510 -0.3068
18426TIP3   OH276692   6.166   6.190   5.162 -0.6797  0.2507  0.3119
18426TIP3    H176693   6.219   6.224   5.090 -0.2093  1.0845  1.0396
18426TIP3    H276694   6.212   6.110   5.189 -1.0743 -0.2921 -0.5425
18427TIP3   OH276695   0.331   4.553  16.491  0.1797 -0.5659 -0.3461
18427TIP3    H176696   0.305   4.641  16.464  0.0508 -0.7811 -0.9434
18427TIP3    H276697   0.372   4.515  16.413  2.3117 -0.2385  0.5495
18428TIP3   OH276698   6.355   1.557  16.086  0.2818  0.1382 -0.0360
18428TIP3    H176699   6.386   1.626  16.144  1.3952 -0.1064 -0.3097
18428TIP3    H276700   6.274   1.591  16.048 -1.4393 -0.3503  2.8890
18429TIP3   OH276701   2.644   1.280  12.460  0.0119  0.2633  0.5721
18429TIP3    H176702   2.663   1.351  12.521 -0.7742  0.7542  0.2564
18429TIP3    H276703   2.727   1.263  12.416  0.5136  0.1219  1.5359
18430TIP3   OH276704   2.521   4.626   4.979  0.3070 -0.2304  0.4017
18430TIP3    H176705   2.432   4.613   5.011 -1.0983  1.0484 -2.5988
18430TIP3    H276706   2.530   4.564   4.907  1.9833 -0.4996  0.7917
18431TIP3   OH276707   4.981   0.397  13.386 -0.5125 -0.0698 -0.6151
18431TIP3    H176708   5.018   0.423  13.302  1.0456  2.6757  0.7906
18431TIP3    H276709   5.043   0.333  13.421 -0.0455  0.3493 -0.6680
18432TIP3   OH276710   0.921   5.804  14.966 -0.2135  0.0209 -0.1346
18432TIP3    H176711   0.842   5.792  15.019  1.2097  1.1554  2.3894
18432TIP3    H276712   0.989   5.755  15.011  0.9415  0.5195 -1.2488
18433TIP3   OH276713   5.976   3.624   5.302 -0.3305 -0.4743 -0.0582
18433TIP3    H176714   6.061   3.580   5.308  0.8026  1.7581  2.0939
18433TIP3    H276715   5.992   3.699   5.243  0.2835  1.9027  2.8926
18434TIP3   OH276716   4.510   6.450  14.647 -0.6921  0.4340 -0.3139
18434TIP3    H176717   4.554   6.533  14.628 -1.1640  0.2409 -2.4688
18434TIP3    H276718   4.426   6.456  14.602 -1.2034 -0.7769  0.4307
18435TIP3   OH276719   3.536   4.774   0.665 -0.2536 -0.2753 -0.3672
18435TIP3    H176720   3.539   4.718   0.743 -1.4470 -1.7296 -1.3136
18435TIP3    H276721   3.454   4.751   0.622 -0.1831  1.3559 -1.4543
18436TIP3   OH276722   6.391   5.573   5.478 -0.2362  0.0612 -0.3922
18436TIP3    H176723   6.381   5.515   5.402  0.4649  1.1177 -1.3230
18436TIP3    H276724   6.461   5.532   5.529 -0.6462 -0.6059 -0.3522
18437TIP3   OH276725   6.398   4.475  12.158 -0.4757  0.1957 -1.2098
18437TIP3    H176726   6.415   4.554  12.210  0.6614  0.3790 -1.8409
18437TIP3    H276727   6.391   4.507  12.068  3.3152 -0.7172 -1.9924
18438TIP3   OH276728   2.051   4.070   4.010  0.5330  0.0414  0.2228
18438TIP3    H176729   2.087   4.152   4.046  1.4581 -0.5368  0.6383
18438TIP3    H276730   2.112   4.002   4.039 -0.2830 -0.8147 -0.0402
18439TIP3   OH276731   6.462   1.445   1.775  0.0284  0.0753  0.1138
18439TIP3    H176732   6.489   1.373   1.718  0.8481  0.6950 -0.3114
18439TIP3    H276733   6.369   1.431   1.789  0.2874 -1.4272  0.5656
18440TIP3   OH276734   2.625   4.290  17.346 -0.3695 -0.1656 -0.2110
18440TIP3    H176735   2.572   4.286  17.266 -0.2585 -1.9533 -0.2252
18440TIP3    H276736   2.705   4.241  17.325  1.1147  2.0127 -0.0063
18441TIP3   OH276737   0.831   2.699  12.681 -0.4398 -0.3237 -0.1600
18441TIP3    H176738   0.766   2.739  12.622 -0.9706 -0.3501  0.3889
18441TIP3    H276739   0.861   2.772  12.735 -0.6660 -0.4784  0.1752
18442TIP3   OH276740   3.283   3.852   2.044  0.1387 -0.1638 -0.0614
18442TIP3    H176741   3.320   3.822   2.127  0.9702  0.3479 -0.2285
18442TIP3    H276742   3.191   3.869   2.062  0.7626  2.0053  1.3212
18443TIP3   OH276743   0.813   1.134   2.424  0.1411  0.6491  0.1196
18443TIP3    H176744   0.805   1.059   2.365 -0.1047  0.1102  0.8178
18443TIP3    H276745   0.832   1.208   2.366  1.3901 -0.1200 -0.4930
18444TIP3   OH276746   5.702   3.840  15.981  0.5225 -0.2740 -0.1196
18444TIP3    H176747   5.637   3.825  15.913 -0.4829 -1.0825  0.9682
18444TIP3    H276748   5.656   3.817  16.063  2.0988 -0.6147  0.6979
18445TIP3   OH276749   5.856   2.605  12.490 -0.3904 -0.0542 -0.0972
18445TIP3    H176750   5.819   2.680  12.535  1.6045  0.9109  0.0169
18445TIP3    H276751   5.784   2.541  12.487 -2.0500  1.7056  0.0509
18446TIP3   OH276752   3.915   4.541   3.621  0.3901 -0.3741  0.1232
18446TIP3    H176753   3.856   4.466   3.630  0.2894 -0.5862 -1.8872
18446TIP3    H276754   3.900   4.592   3.700 -1.0935 -1.4001  0.5572
18447TIP3   OH276755   5.508   4.735   3.663  0.3264 -0.1255 -0.2861
18447TIP3    H176756   5.578   4.681   3.699 -0.5587 -0.6297  0.7469
18447TIP3    H276757   5.508   4.814   3.717 -0.4510 -0.5154  0.3224
18448TIP3   OH276758   5.442   4.121   5.433 -0.3629 -0.0359  0.3627
18448TIP3    H176759   5.415   4.105   5.523  0.5253  0.7960  0.8054
18448TIP3    H276760   5.478   4.037   5.403  0.0035 -0.1309  1.0425
18449TIP3   OH276761   6.704   1.982  13.134 -0.1063 -0.6411  0.7684
18449TIP3    H176762   6.750   1.899  13.146  0.0314 -1.2355 -2.6924
18449TIP3    H276763   6.634   1.962  13.072 -0.9593  1.5563  0.9159
18450TIP3   OH276764   0.961   5.752   0.145 -0.7830  0.4072  0.6403
18450TIP3    H176765   1.015   5.743   0.067  1.1152  0.3554  1.8999
18450TIP3    H276766   0.877   5.713   0.120 -0.3921  0.7762 -1.4814
18451TIP3   OH276767   0.161   2.052   2.915 -0.2509  0.1172 -1.0200
18451TIP3    H176768   0.217   2.088   2.847 -1.4000  0.7405 -1.6597
18451TIP3    H276769   0.211   1.978   2.951 -0.1097 -0.9887 -3.3245
18452TIP3   OH276770   2.800   5.196   0.465  0.0347 -0.0776  0.1605
18452TIP3    H176771   2.755   5.149   0.535 -0.4623 -0.5302 -0.4570
18452TIP3    H276772   2.735   5.258   0.432 -0.5573 -1.5197 -1.5000
18453TIP3   OH276773   1.910   1.977   4.494  0.0569 -0.6226  0.0949
18453TIP3    H176774   1.994   1.946   4.529 -1.0258 -2.2597  1.3851
18453TIP3    H276775   1.887   2.052   4.550 -0.0627 -1.1392  0.7500
18454TIP3   OH276776   2.025   2.014  15.151 -0.2003  0.0632 -0.0093
18454TIP3    H176777   2.113   2.031  15.120 -0.4843  1.5473 -0.0872
18454TIP3    H276778   2.036   1.949  15.220  0.8237 -0.5538 -0.7251
18455TIP3   OH276779   3.565   6.633  12.447  0.1138 -0.0930 -0.2043
18455TIP3    H176780   3.635   6.568  12.449 -0.2954 -0.5404  0.7976
18455TIP3    H276781   3.598   6.706  12.500 -1.7929 -2.1773  4.4599
18456TIP3   OH276782   5.577   2.226   4.062  0.0207 -0.8016 -0.1742
18456TIP3    H176783   5.656   2.186   4.026  0.5041  0.5893 -0.7365
18456TIP3    H276784   5.584   2.212   4.157  1.2680 -0.1658 -0.1537
18457TIP3   OH276785   1.288   5.192   3.207 -0.3911  0.2914  0.0102
18457TIP3    H176786   1.199   5.165   3.231 -0.4831 -0.4931 -1.1326
18457TIP3    H276787   1.333   5.203   3.290 -1.3137 -0.1519  0.5856
18458TIP3   OH276788   4.262   4.606   3.607  0.4485  0.3584 -0.2967
18458TIP3    H176789   4.312   4.525   3.598  0.4079 -0.0288  2.1422
18458TIP3    H276790   4.266   4.625   3.701 -2.0773  1.5246 -0.3594
18459TIP3   OH276791   5.157   5.589  13.075 -0.8924  0.0031 -0.5272
18459TIP3    H176792   5.096   5.531  13.030  0.0218 -0.8337 -0.7109
18459TIP3    H276793   5.209   5.628  13.004 -0.4762 -0.1334 -0.2975
18460TIP3   OH276794   5.859   6.143   5.358  0.3717 -0.1261  0.7846
18460TIP3    H176795   5.804   6.136   5.436  0.1174 -0.3491  0.5876
18460TIP3    H276796   5.886   6.053   5.339 -1.8801 -0.5255 -1.0227
18461TIP3   OH276797   5.382   3.047   6.059  0.3401 -0.7101  0.0012
18461TIP3    H176798   5.441   3.001   6.118 -1.2015 -1.9796  0.5993
18461TIP3    H276799   5.406   3.139   6.070  2.2313 -1.1699  0.1668
18462TIP3   OH276800   3.346   3.872   1.327  0.4828  0.2471 -0.5119
18462TIP3    H176801   3.258   3.877   1.365  1.0286 -0.9073  1.0196
18462TIP3    H276802   3.336   3.818   1.249  0.0226 -1.0110  0.3884
18463TIP3   OH276803   1.919   4.806  12.161 -0.3243  0.0141 -0.2837
18463TIP3    H176804   1.825   4.823  12.155 -0.1317  2.0776  1.5017
18463TIP3    H276805   1.932   4.776  12.251  0.7296 -0.4030 -0.5673
18464TIP3   OH276806   6.366   2.199   1.664 -0.3933 -0.5426 -0.4425
18464TIP3    H176807   6.375   2.173   1.573 -0.5379  0.1967 -0.6746
18464TIP3    H276808   6.402   2.288   1.667 -0.0632 -0.6950  0.2916
18465TIP3   OH276809   5.566   6.237  16.333 -0.4350  0.7186  0.3782
18465TIP3    H176810   5.532   6.218  16.420  1.2115  1.4742  1.2167
18465TIP3    H276811   5.602   6.154  16.303  1.1525  0.9735  1.4547
18466TIP3   OH276812   3.763   0.116  16.334  0.2401 -0.1255 -0.0091
18466TIP3    H176813   3.821   0.091  16.262 -1.2803  1.3587 -1.8578
18466TIP3    H276814   3.786   0.207  16.352 -0.9834  0.2422 -0.2511
18467TIP3   OH276815   3.399   2.871  11.920 -0.0454  0.4102 -0.0279
18467TIP3    H176816   3.450   2.924  11.982  0.1116  1.5702 -1.1122
18467TIP3    H276817   3.412   2.781  11.950 -0.3812  0.9693  1.9082
18468TIP3   OH276818   0.349   2.639   4.363  0.2072 -0.4443 -0.0283
18468TIP3    H176819   0.357   2.644   4.267 -0.9405  2.0591 -0.0664
18468TIP3    H276820   0.377   2.725   4.394 -1.9370 -0.2724  1.6559
18469TIP3   OH276821   4.362   1.885   5.420  0.3338  1.3263  0.0890
18469TIP3    H176822   4.428   1.884   5.352  0.2916 -0.5518  0.0187
18469TIP3    H276823   4.295   1.823   5.390  0.0362  0.8960  1.5361
18470TIP3   OH276824   6.025   0.779  14.197 -0.5160  0.0274  0.3581
18470TIP3    H176825   6.120   0.792  14.201 -0.2132 -1.7135 -0.6077
18470TIP3    H276826   5.995   0.801  14.286  1.0598 -1.3733  1.2927
18471TIP3   OH276827   5.722   3.447  16.327  0.5592 -0.1791 -0.1445
18471TIP3    H176828   5.688   3.394  16.399 -0.5271  1.5993  0.7389
18471TIP3    H276829   5.816   3.455  16.344  0.2627  0.5271  1.3373
18472TIP3   OH276830   1.712   5.573  15.906  0.2484  0.3627 -0.3444
18472TIP3    H176831   1.765   5.551  15.829  0.2141 -1.3740  0.1033
18472TIP3    H276832   1.713   5.669  15.908  1.9762  0.4157 -1.3173
18473TIP3   OH276833   4.258   1.988  16.993  0.1502  0.0481 -0.2115
18473TIP3    H176834   4.193   2.053  16.967 -0.6141 -0.0133  1.4295
18473TIP3    H276835   4.210   1.927  17.048  1.4326 -0.4490  0.3913
18474TIP3   OH276836   4.044   1.674   4.403 -0.0284 -0.1465 -0.0767
18474TIP3    H176837   3.993   1.657   4.483 -2.2716  1.5476 -1.0201
18474TIP3    H276838   4.080   1.589   4.379 -1.0962 -1.1342  1.5692
18475TIP3   OH276839   2.029   3.178  11.092  0.0066 -0.3720  0.3305
18475TIP3    H176840   2.022   3.273  11.104 -4.0044 -0.6957  2.1705
18475TIP3    H276841   1.990   3.163  11.006 -1.0633 -0.4125  0.8006
18476TIP3   OH276842   0.506   1.306  17.412 -0.3483 -0.3101 -0.1368
18476TIP3    H176843   0.544   1.393  17.417 -1.5111  0.1655  2.0816
18476TIP3    H276844   0.417   1.317  17.448 -0.8487 -2.2369 -0.6556
18477TIP3   OH276845   2.192   4.303  16.721 -0.0894 -0.6444 -0.3859
18477TIP3    H176846   2.099   4.296  16.740 -0.9612  0.5084 -3.5465
18477TIP3    H276847   2.209   4.397  16.720  0.9133 -0.8172 -0.6074
18478TIP3   OH276848   1.538   1.277  15.827  0.2179 -0.5954 -0.0957
18478TIP3    H176849   1.616   1.264  15.772  0.9494 -0.3448  0.8534
18478TIP3    H276850   1.557   1.227  15.907 -0.5834 -0.4878  0.1712
18479TIP3   OH276851   4.674   3.680   3.473  0.0330  0.6494  0.2051
18479TIP3    H176852   4.661   3.637   3.388 -2.8037  1.0522  0.3628
18479TIP3    H276853   4.694   3.609   3.533 -1.9532 -0.1989 -0.0597
18480TIP3   OH276854   6.087   2.743   2.968  0.7104  0.2952  0.5359
18480TIP3    H176855   6.129   2.774   2.888 -0.3376 -0.1078 -0.1993
18480TIP3    H276856   6.028   2.814   2.993  0.8330  0.3041  0.8053
18481TIP3   OH276857   4.357   6.179  14.037 -0.4023  0.1155 -0.5947
18481TIP3    H176858   4.337   6.162  14.129 -0.3552  1.4928 -0.3220
18481TIP3    H276859   4.275   6.211  14.001  0.3667  2.6301 -0.2539
18482TIP3   OH276860   1.384   1.112  15.264  0.8132  0.1525  0.5500
18482TIP3    H176861   1.406   1.197  15.301 -0.6387  0.1860  1.4097
18482TIP3    H276862   1.446   1.101  15.191  1.9125  1.3131  1.2666
18483TIP3   OH276863   5.164   2.493   0.950  0.2337  0.0477  0.2036
18483TIP3    H176864   5.196   2.419   0.900 -0.6546 -1.4566  1.7723
18483TIP3    H276865   5.070   2.480   0.955 -0.1162  1.9506 -0.4703
18484TIP3   OH276866   1.361   6.006   4.797  0.2074 -0.2003 -0.3360
18484TIP3    H176867   1.443   6.008   4.847 -0.1961 -0.8492  0.3658
18484TIP3    H276868   1.364   5.925   4.746  0.7805  0.6295 -1.6904
18485TIP3   OH276869   5.197   3.587  15.746  0.0629 -0.2258 -0.2642
18485TIP3    H176870   5.165   3.668  15.706 -1.2354 -0.6862 -0.2194
18485TIP3    H276871   5.258   3.615  15.813  0.4860  0.6669 -1.0090
18486TIP3   OH276872   5.230   5.673   1.649 -0.4089 -0.2516  0.9788
18486TIP3    H176873   5.299   5.611   1.675 -0.7018 -0.3690  1.5008
18486TIP3    H276874   5.228   5.668   1.554  1.6092  1.1702  0.8126
18487TIP3   OH276875   5.224   1.931   3.357  0.4768  0.7305  0.2093
18487TIP3    H176876   5.268   1.860   3.309 -1.7400 -0.7458  0.1920
18487TIP3    H276877   5.276   1.942   3.437 -0.1211 -2.3534  1.1636
18488TIP3   OH276878   3.950   1.801   3.866 -0.1157  0.0592 -0.5048
18488TIP3    H176879   3.992   1.803   3.952 -1.6785 -1.3719  0.3584
18488TIP3    H276880   3.869   1.752   3.880 -0.8401  0.5299 -2.6251
18489TIP3   OH276881   5.327   6.205   2.628  0.1522 -0.1839  0.0907
18489TIP3    H176882   5.296   6.289   2.591  2.3874  1.3291  1.4201
18489TIP3    H276883   5.391   6.174   2.564 -0.0825 -0.4795 -0.0021
18490TIP3   OH276884   0.964   3.092  14.200  0.0996 -0.4038  0.0197
18490TIP3    H176885   0.997   3.162  14.145 -0.2334 -0.5448 -0.3680
18490TIP3    H276886   0.968   3.014  14.145 -1.2991 -0.3480 -0.2135
18491TIP3   OH276887   6.024   1.075   1.128  0.0827 -0.4149  0.4639
18491TIP3    H176888   6.072   1.157   1.117 -0.8475  0.2011  0.8566
18491TIP3    H276889   6.039   1.027   1.047 -0.9424  0.9966 -0.6222
18492TIP3   OH276890   5.553   2.142   0.444  0.0194 -0.0940 -0.5459
18492TIP3    H176891   5.597   2.203   0.503 -0.1043 -1.5315  1.1144
18492TIP3    H276892   5.467   2.129   0.482 -1.0033  0.7842 -2.4110
18493TIP3   OH276893   1.555   4.959  16.832  0.1564 -0.0565  0.6683
18493TIP3    H176894   1.478   4.982  16.779  0.2355  0.1831  0.6586
18493TIP3    H276895   1.614   4.915  16.771 -0.5134 -1.4052  0.9513
18494TIP3   OH276896   5.831   1.307  11.713  0.2228 -0.1299  0.3538
18494TIP3    H176897   5.890   1.343  11.779  1.0421  1.1821 -1.0438
18494TIP3    H276898   5.754   1.364  11.715  1.0883  1.1666 -1.1469
18495TIP3   OH276899   6.184   1.984   3.346  0.0176 -0.4992  0.0494
18495TIP3    H176900   6.186   1.895   3.381  1.7069 -1.3775 -2.0339
18495TIP3    H276901   6.199   1.973   3.252  1.0077  2.0238 -0.1698
18496TIP3   OH276902   5.057   0.871   2.822  0.6130  0.3737 -0.2468
18496TIP3    H176903   4.970   0.875   2.782 -0.3074 -0.0168  1.5894
18496TIP3    H276904   5.045   0.911   2.908  1.9517 -0.7863  0.5192
18497TIP3   OH276905   2.325   1.935  17.346  0.1056 -0.6948  0.0172
18497TIP3    H176906   2.339   1.896  17.433 -3.3005 -0.6159  0.7563
18497TIP3    H276907   2.378   2.015  17.347 -1.0507  0.1836  2.7783
18498TIP3   OH276908   6.032   0.600  16.950 -0.5921  0.6185 -0.0453
18498TIP3    H176909   6.107   0.563  16.996  0.9511  1.4556 -1.7310
18498TIP3    H276910   6.029   0.553  16.866 -0.2865  2.3079 -1.0684
18499TIP3   OH276911   2.494   5.547   6.628 -0.1143 -0.9339  0.2457
18499TIP3    H176912   2.483   5.593   6.711 -1.4451 -1.4149  0.3592
18499TIP3    H276913   2.463   5.458   6.645 -1.4973 -0.7575 -1.0239
18500TIP3   OH276914   4.107   3.730   6.965  0.6594 -0.2951  0.4547
18500TIP3    H176915   4.137   3.661   7.025 -0.0183 -1.5270 -0.5676
18500TIP3    H276916   4.188   3.770   6.932  1.0789 -0.8351  0.8128
18501TIP3   OH276917   5.220   0.340  16.156 -0.0680 -0.4986 -0.2654
18501TIP3    H176918   5.311   0.366  16.169  0.7190 -1.4308 -3.1722
18501TIP3    H276919   5.175   0.420  16.131  0.8103 -0.5900 -2.3339
18502TIP3   OH276920   3.385   0.912   5.143  0.8840 -0.2448 -0.3809
18502TIP3    H176921   3.463   0.895   5.092  0.0410 -1.3911 -1.3392
18502TIP3    H276922   3.339   0.828   5.146  0.1245  0.1836  0.9138
18503TIP3   OH276923   6.615   4.712  15.045 -0.3603  0.2891 -0.2479
18503TIP3    H176924   6.632   4.762  14.965 -0.0156 -0.1815 -0.4797
18503TIP3    H276925   6.701   4.674  15.067 -0.3155  0.9159  0.6930
18504TIP3   OH276926   5.965   5.699   6.468  0.2516  0.5372  0.0089
18504TIP3    H176927   5.913   5.633   6.513  0.5229  1.0400  1.0890
18504TIP3    H276928   5.909   5.777   6.468  0.9549  1.0560  1.0994
18505TIP3   OH276929   1.809   6.662   0.471  0.2228 -0.1838 -0.2921
18505TIP3    H176930   1.747   6.732   0.450 -0.1812 -0.7896 -1.1812
18505TIP3    H276931   1.886   6.708   0.506 -1.0662  0.5264  1.7896
18506TIP3   OH276932   3.103   4.236   3.138 -0.3925  0.2644 -0.2490
18506TIP3    H176933   3.176   4.277   3.185  0.6858  0.2670 -1.8550
18506TIP3    H276934   3.047   4.309   3.113  0.0155  0.4649 -0.5948
18507TIP3   OH276935   5.709   5.111  17.241  0.0907  0.6200 -0.0683
18507TIP3    H176936   5.749   5.185  17.287 -0.4237  0.8152  0.0720
18507TIP3    H276937   5.615   5.124  17.252  0.0057 -1.0997  1.6279
18508TIP3   OH276938   1.545   6.600  14.174 -0.2006  0.0071  0.7530
18508TIP3    H176939   1.475   6.656  14.140  1.2731  0.4832 -1.7530
18508TIP3    H276940   1.606   6.661  14.216 -0.1350 -0.1156  0.8358
18509TIP3   OH276941   1.684   5.722   6.353  0.6702  0.2267  0.2957
18509TIP3    H176942   1.617   5.697   6.290  0.8769 -1.3377  0.6596
18509TIP3    H276943   1.637   5.727   6.437  0.5445  1.5549  0.1624
18510TIP3   OH276944   1.055   6.204  12.383  0.9150 -0.0346  0.3814
18510TIP3    H176945   1.104   6.174  12.306 -1.9267  0.2619 -1.6981
18510TIP3    H276946   1.106   6.279  12.415  2.8489 -0.9391 -0.3662
18511TIP3   OH276947   5.670   0.207  16.474 -0.3164  0.4764 -0.1584
18511TIP3    H176948   5.738   0.201  16.542  0.4402  0.7947 -0.8737
18511TIP3    H276949   5.712   0.172  16.396 -1.0033  0.6306 -0.6018
18512TIP3   OH276950   1.348   1.167   0.654 -0.0893 -0.5830  0.3451
18512TIP3    H176951   1.387   1.141   0.571 -0.4031 -0.3369  0.1193
18512TIP3    H276952   1.381   1.103   0.717  0.8851 -0.2244  0.2131
18513TIP3   OH276953   1.598   5.812  13.091 -0.1896 -0.4754 -0.0110
18513TIP3    H176954   1.532   5.753  13.054 -1.0097  0.7952 -0.6473
18513TIP3    H276955   1.609   5.880  13.024  1.8146 -0.6805  0.0756
18514TIP3   OH276956   4.745   5.258  16.085  0.7350  0.6039  0.1574
18514TIP3    H176957   4.771   5.326  16.148  2.3726  2.8881 -2.6927
18514TIP3    H276958   4.826   5.212  16.065 -0.0760 -1.1979  0.8552
18515TIP3   OH276959   4.007   1.504  16.120  0.3077 -0.1875  0.3261
18515TIP3    H176960   4.053   1.427  16.085 -1.9458 -1.0981 -0.8453
18515TIP3    H276961   4.007   1.567  16.047 -0.9699 -0.5420 -0.0122
18516TIP3   OH276962   4.123   5.498  12.853 -0.4083  0.0151 -0.0969
18516TIP3    H176963   4.197   5.535  12.901 -0.5812 -1.1919  1.1824
18516TIP3    H276964   4.069   5.456  12.921 -0.8156 -1.5063 -1.2983
18517TIP3   OH276965   3.268   1.301  14.519  0.7692  0.5814  0.2910
18517TIP3    H176966   3.309   1.305  14.605 -0.1647  0.9273  0.7340
18517TIP3    H276967   3.282   1.211  14.489 -0.3664 -0.0612  1.5629
18518TIP3   OH276968   3.892   1.903  17.245 -0.4395 -0.2131 -0.4202
18518TIP3    H176969   3.886   1.997  17.260 -0.6791 -0.1273 -1.0265
18518TIP3    H276970   3.811   1.881  17.200 -0.4138 -0.7252 -0.2228
18519TIP3   OH276971   4.215   5.104   3.579  0.9883  0.2862 -0.1629
18519TIP3    H176972   4.220   5.015   3.543  0.0680 -0.4151  1.3548
18519TIP3    H276973   4.266   5.157   3.517  1.6330 -1.2938 -1.0662
18520TIP3   OH276974   0.783   5.196  14.006  0.1191  0.1207  0.0741
18520TIP3    H176975   0.732   5.245  14.070  0.2903  0.3133  0.0640
18520TIP3    H276976   0.847   5.147  14.058 -0.6846 -0.8714  0.1651
18521TIP3   OH276977   5.356   0.139   0.399  0.4595 -0.3788 -0.7725
18521TIP3    H176978   5.415   0.098   0.462  0.3717  1.9834  0.9622
18521TIP3    H276979   5.317   0.065   0.351  2.0086 -2.1532  0.5615
18522TIP3   OH276980   2.751   3.208   0.757  0.0167  0.1491  0.2246
18522TIP3    H176981   2.765   3.249   0.672 -2.7740  0.3088 -0.2577
18522TIP3    H276982   2.709   3.276   0.809 -1.3909 -0.9541  0.5867
18523TIP3   OH276983   4.159   6.194   1.925 -0.0587 -0.4412  0.3711
18523TIP3    H176984   4.105   6.270   1.903  1.5844  0.0313 -2.4610
18523TIP3    H276985   4.112   6.119   1.887  0.8973 -0.0968 -1.6077
18524TIP3   OH276986   2.303   0.749   0.178 -0.0795  0.1734 -0.4393
18524TIP3    H176987   2.252   0.829   0.187  0.4792  0.4718  0.2045
18524TIP3    H276988   2.272   0.709   0.096 -0.3700  1.0383 -0.7588
18525TIP3   OH276989   0.011   6.404  16.058  0.0262  0.6744  0.5254
18525TIP3    H176990   0.077   6.447  16.111  0.1660 -0.6288  1.4578
18525TIP3    H276991  -0.015   6.327  16.109 -0.7950  0.0966 -0.7023
18526TIP3   OH276992   4.229   6.127  11.935 -0.1419 -0.4144 -0.0178
18526TIP3    H176993   4.183   6.125  12.019  0.3271 -2.0671  0.2352
18526TIP3    H276994   4.163   6.100  11.871 -0.8794  2.1107 -0.4483
18527TIP3   OH276995   5.158   5.891   2.981  0.3920  0.5521 -0.0449
18527TIP3    H176996   5.107   5.958   2.936 -0.2716  0.6213  0.7882
18527TIP3    H276997   5.141   5.906   3.074  2.0859  0.7075  0.2827
18528TIP3   OH276998   5.943   6.584   5.610  0.1835 -0.0005  0.8424
18528TIP3    H176999   5.932   6.526   5.686  1.0984  0.8714  1.6800
18528TIP3    H277000   5.854   6.609   5.586 -0.3688 -2.9668 -0.5568
18529TIP3   OH277001   4.440   4.365   2.740 -0.4469 -0.0614 -0.0044
18529TIP3    H177002   4.364   4.335   2.690  1.7388  1.0316 -4.5542
18529TIP3    H277003   4.488   4.286   2.762 -1.2581 -0.5692 -0.0409
18530TIP3   OH277004   3.805   1.184   2.178  0.1058 -0.5432  0.1430
18530TIP3    H177005   3.811   1.276   2.153  1.7709 -1.2678 -2.6830
18530TIP3    H277006   3.782   1.185   2.270  1.4375  2.7378  0.5724
18531TIP3   OH277007   4.949   4.606  14.331  1.0646  0.5078  0.7010
18531TIP3    H177008   5.002   4.628  14.407  1.5551  4.0339 -0.4742
18531TIP3    H277009   4.937   4.690  14.285 -0.3966 -1.2004 -2.3415
18532TIP3   OH277010   2.451   0.849  14.955  0.0660  0.1693  0.5938
18532TIP3    H177011   2.542   0.874  14.967  0.7963 -2.1199  0.2852
18532TIP3    H277012   2.414   0.849  15.043  1.6962 -3.3235  1.4674
18533TIP3   OH277013   4.329   4.943   5.886  0.3894 -0.2413 -0.0321
18533TIP3    H177014   4.309   4.998   5.962 -0.0740 -1.5015  0.7915
18533TIP3    H277015   4.272   4.976   5.816 -0.4756 -0.1756  0.6847
18534TIP3   OH277016   0.432   2.078  12.254  0.4023  0.2223  0.5676
18534TIP3    H177017   0.488   2.003  12.236  2.0180  1.3233  0.8053
18534TIP3    H277018   0.449   2.139  12.183 -0.5008  0.6014  0.6561
18535TIP3   OH277019   4.143   1.062  14.260  0.3355 -0.2004 -0.2959
18535TIP3    H177020   4.058   1.105  14.275  0.7111 -0.2851  2.6110
18535TIP3    H277021   4.121   0.969  14.250  0.1319 -0.5450  2.5572
18536TIP3   OH277022   2.395   0.346  14.344 -0.1151 -0.4946  0.1379
18536TIP3    H177023   2.398   0.425  14.398 -0.8402  0.9042 -1.7494
18536TIP3    H277024   2.477   0.348  14.294 -0.4612 -0.5289 -0.4392
18537TIP3   OH277025   6.568   5.352  13.477 -1.0514  0.5286  0.5985
18537TIP3    H177026   6.551   5.282  13.413 -1.9481 -0.7167  2.1483
18537TIP3    H277027   6.663   5.365  13.473 -0.9635 -0.2492 -0.2535
18538TIP3   OH277028   0.570   2.702  14.286 -0.0354  0.3634 -0.2627
18538TIP3    H177029   0.551   2.790  14.319 -1.0528 -0.5319  1.7176
18538TIP3    H277030   0.552   2.708  14.192 -1.1344  2.0008  0.0033
18539TIP3   OH277031   1.962   3.580   4.731  0.6764 -0.4889 -0.0629
18539TIP3    H177032   1.952   3.567   4.825  0.3072 -1.2274 -0.1987
18539TIP3    H277033   2.021   3.510   4.703 -0.4301 -1.2325 -0.6163
18540TIP3   OH277034   1.828   1.429   1.303 -0.2378 -0.3480  0.4611
18540TIP3    H177035   1.828   1.426   1.208 -2.1182 -0.0429  0.4048
18540TIP3    H277036   1.739   1.457   1.326  0.6763  1.2528  2.2735
18541TIP3   OH277037   4.537   3.271   3.032  0.5216 -0.6903 -0.6404
18541TIP3    H177038   4.626   3.303   3.046  0.2315  0.3312 -1.0863
18541TIP3    H277039   4.547   3.197   2.972  1.2159 -1.5832  0.5360
18542TIP3   OH277040   5.588   3.178   0.499 -0.6344  0.1570 -0.4591
18542TIP3    H177041   5.653   3.174   0.570 -0.8474  0.4382 -0.2428
18542TIP3    H277042   5.574   3.087   0.473  1.2905  0.2108 -1.8425
18543TIP3   OH277043   4.672   0.763   0.238 -0.1245  0.5158 -0.4853
18543TIP3    H177044   4.738   0.771   0.307  0.3514  0.9013 -0.9707
18543TIP3    H277045   4.660   0.669   0.226 -1.7099  0.4072  1.5080
18544TIP3   OH277046   2.442   0.568  15.791  0.0937  0.0420 -0.0234
18544TIP3    H177047   2.489   0.590  15.872  1.2311 -0.8811 -0.3978
18544TIP3    H277048   2.404   0.650  15.762 -2.0881  0.0489  2.5111
18545TIP3   OH277049   5.123   3.540  14.305  0.7471  0.2340 -0.3362
18545TIP3    H177050   5.202   3.594  14.298  1.1610 -0.3142  0.0037
18545TIP3    H277051   5.120   3.515  14.397 -0.9491  1.8949  0.1274
18546TIP3   OH277052   0.782   1.567  15.499  0.5436 -0.6788 -0.1615
18546TIP3    H177053   0.786   1.476  15.469  0.3128 -0.2086 -1.6944
18546TIP3    H277054   0.690   1.582  15.519  0.8694 -1.3726  2.1536
18547TIP3   OH277055   1.494   3.079   6.412  0.3942  0.3097  0.0293
18547TIP3    H177056   1.471   3.165   6.447  0.5504  0.2244  0.3448
18547TIP3    H277057   1.530   3.032   6.486  0.6850  0.1077 -0.2375
18548TIP3   OH277058   1.323   4.986   5.631 -0.7600  0.2078  0.6609
18548TIP3    H177059   1.284   4.899   5.619 -0.0768 -0.0633  0.3835
18548TIP3    H277060   1.249   5.046   5.618 -0.7763 -0.2197 -1.6525
18549TIP3   OH277061   2.341   4.312   6.837 -0.0769  0.2708 -0.2307
18549TIP3    H177062   2.404   4.278   6.774  2.1405  2.5107  0.5944
18549TIP3    H277063   2.265   4.335   6.785  0.9703  0.3122 -1.8032
18550TIP3   OH277064   6.164   0.409   3.264 -0.2292 -0.4821  0.9135
18550TIP3    H177065   6.127   0.491   3.230  1.3125 -0.1108  0.0391
18550TIP3    H277066   6.121   0.397   3.349 -1.2939  0.6436  0.5621
18551TIP3   OH277067   1.683   0.942  12.196  0.4057 -0.5818 -0.0930
18551TIP3    H177068   1.697   1.019  12.140 -0.3855  0.4237  1.0243
18551TIP3    H277069   1.723   0.967  12.279  2.5372 -2.4749 -0.4521
18552TIP3   OH277070   1.595   3.029  12.100  0.3014  0.5163  0.0970
18552TIP3    H177071   1.615   3.105  12.045  0.1362  1.2602  1.0396
18552TIP3    H277072   1.516   3.053  12.148  1.0223  0.3154  1.4316
18553TIP3   OH277073   2.227   5.821  12.575  0.0336 -0.4033  0.5963
18553TIP3    H177074   2.250   5.792  12.487 -1.0086 -1.6624  0.7146
18553TIP3    H277075   2.139   5.858  12.565  0.4109  0.6288  0.8977
18554TIP3   OH277076   6.623   1.060   1.974 -0.1088  0.2412 -0.2242
18554TIP3    H177077   6.559   1.115   2.019  2.2106  1.3905  1.9200
18554TIP3    H277078   6.574   1.018   1.904 -2.6700  2.7935 -0.1398
18555TIP3   OH277079   0.330   2.739   1.410  0.6027  0.7524  0.0756
18555TIP3    H177080   0.422   2.720   1.430  1.1147  2.5052 -0.4505
18555TIP3    H277081   0.282   2.661   1.440  1.8779  1.0053  3.1419
18556TIP3   OH277082   4.134   1.459  15.286 -0.6554 -0.0426 -0.1479
18556TIP3    H177083   4.224   1.428  15.291  0.2920  2.3268 -1.1040
18556TIP3    H277084   4.137   1.548  15.322 -2.6774 -0.0299  0.0896
18557TIP3   OH277085   3.186   4.511  13.383  0.6181  0.1592  0.5157
18557TIP3    H177086   3.159   4.459  13.458  1.1201  0.1685  0.7029
18557TIP3    H277087   3.218   4.593  13.420 -1.3006  1.1175  0.1574
18558TIP3   OH277088   0.822   3.619   3.414 -0.0774  0.2281  0.8054
18558TIP3    H177089   0.900   3.639   3.363  0.2741 -0.6355  0.9851
18558TIP3    H277090   0.750   3.630   3.352  0.3088 -0.3919  0.2233
18559TIP3   OH277091   3.696   2.762   2.778 -0.0535  0.1583  0.0497
18559TIP3    H177092   3.772   2.810   2.810  0.2531 -1.1395  1.3943
18559TIP3    H277093   3.710   2.672   2.808 -0.9832 -0.6265 -1.6936
18560TIP3   OH277094   3.838   4.142   3.107  0.2692 -0.0463 -0.5787
18560TIP3    H177095   3.789   4.216   3.070  0.9032 -0.2204 -1.8399
18560TIP3    H277096   3.840   4.078   3.036  0.2444 -1.0282  0.2962
18561TIP3   OH277097   4.097   0.832  14.563 -0.1689 -0.0904 -0.0317
18561TIP3    H177098   4.087   0.847  14.657 -1.3095 -0.6033 -0.0531
18561TIP3    H277099   4.191   0.837  14.548  0.2760 -2.1688  1.5248
18562TIP3   OH277100   1.472   6.521   4.604  0.4304 -0.6082  0.1453
18562TIP3    H177101   1.506   6.449   4.658  1.5051  0.4302  0.8891
18562TIP3    H277102   1.378   6.523   4.624  0.7245 -0.5688  1.6033
18563TIP3   OH277103   2.685   3.297   4.601 -0.1307 -0.6044  0.0177
18563TIP3    H177104   2.649   3.386   4.594  3.0779  0.8046 -0.0530
18563TIP3    H277105   2.643   3.249   4.529  0.3166  1.7571 -1.9639
18564TIP3   OH277106   2.106   1.010   2.956  0.8397 -0.4324 -0.1849
18564TIP3    H177107   2.037   1.023   3.021  0.8059  0.1994 -0.3337
18564TIP3    H277108   2.181   0.978   3.006 -0.0660 -2.8633 -0.2627
18565TIP3   OH277109   5.879   1.546   2.448  0.5296 -0.5485 -0.1490
18565TIP3    H177110   5.853   1.502   2.367 -0.0459  1.2965 -1.0262
18565TIP3    H277111   5.800   1.591   2.477  1.4041  0.9799 -0.0389
18566TIP3   OH277112   1.982   3.373  14.443 -0.3409 -0.5183  0.2051
18566TIP3    H177113   1.953   3.459  14.413  0.3373 -0.1329  0.6295
18566TIP3    H277114   2.062   3.356  14.394 -0.2493 -0.7271  0.4259
18567TIP3   OH277115   0.562   3.217   3.354 -0.5279  0.4401 -0.4686
18567TIP3    H177116   0.529   3.184   3.270 -1.0145  1.0222 -0.5136
18567TIP3    H277117   0.511   3.297   3.370 -0.4995  0.2865  0.4269
18568TIP3   OH277118   3.660   0.211  17.211 -0.1920 -0.7358 -0.3058
18568TIP3    H177119   3.748   0.243  17.233 -0.6534  0.4675 -0.1196
18568TIP3    H277120   3.602   0.254  17.273 -0.9812 -1.0920 -0.7742
18569TIP3   OH277121   2.989   0.986   5.388  0.2749  0.2240 -0.0447
18569TIP3    H177122   3.081   0.977   5.367 -0.3906 -1.1497 -2.8029
18569TIP3    H277123   2.969   1.078   5.369  0.7672  0.1519 -0.9537
18570TIP3   OH277124   0.043   6.253  14.167 -0.1160  0.2484 -0.0891
18570TIP3    H177125   0.010   6.339  14.142  1.1910  1.1572  1.1357
18570TIP3    H277126  -0.018   6.222  14.235 -1.4060 -0.4807 -1.5106
18571TIP3   OH277127   2.601   0.581  16.281  0.2190  0.0634  0.0229
18571TIP3    H177128   2.641   0.665  16.256  1.8416 -1.0025 -1.2379
18571TIP3    H277129   2.515   0.582  16.239  0.3429  0.9732 -0.2321
18572TIP3   OH277130   4.112   3.193  14.469 -0.5024 -0.2667 -0.0053
18572TIP3    H177131   4.184   3.250  14.497  0.1663 -1.1506  0.1352
18572TIP3    H277132   4.096   3.136  14.544  0.2549 -1.6376 -0.8390
18573TIP3   OH277133   0.950   1.212   1.300 -0.2667  0.3046  0.6176
18573TIP3    H177134   0.894   1.138   1.274  2.8749 -2.0253 -0.2200
18573TIP3    H277135   0.995   1.237   1.219 -1.4304  3.4661  0.8262
18574TIP3   OH277136   1.434   5.912  14.969 -0.1616  0.3693  0.4892
18574TIP3    H177137   1.500   5.973  15.002  1.4869 -0.4305 -1.1362
18574TIP3    H277138   1.467   5.886  14.883 -0.5254 -3.1455  1.2812
18575TIP3   OH277139   3.425   2.379   1.385 -0.6099  0.1708 -0.6444
18575TIP3    H177140   3.485   2.323   1.435 -1.4434 -0.3903 -0.2499
18575TIP3    H277141   3.382   2.319   1.324 -1.2861  0.4305 -0.4280
18576TIP3   OH277142   3.405   0.394   4.302  0.1434 -0.4795  0.1949
18576TIP3    H177143   3.450   0.331   4.359  3.1789  1.8523  0.6229
18576TIP3    H277144   3.314   0.367   4.305  0.8356 -3.1006  2.6382
18577TIP3   OH277145   1.391   0.676  14.940  0.1593 -0.8169 -0.3256
18577TIP3    H177146   1.473   0.666  14.989  0.3482 -1.0966 -0.6894
18577TIP3    H277147   1.409   0.633  14.856  0.7354  1.8232 -1.6805
18578TIP3   OH277148   4.568   4.700   6.930  0.2844  0.2750 -0.4712
18578TIP3    H177149   4.584   4.607   6.916 -1.1654 -0.1695  0.5237
18578TIP3    H277150   4.489   4.718   6.879  0.8509  1.1073 -1.0820
18579TIP3   OH277151   2.132   3.100  12.855 -0.2387 -0.5778  0.1805
18579TIP3    H177152   2.150   3.131  12.766 -1.2668  1.6439  0.6698
18579TIP3    H277153   2.037   3.106  12.864 -0.1951 -1.2030  1.3006
18580TIP3   OH277154   5.298   1.579  13.870  0.3483 -0.8175 -0.2930
18580TIP3    H177155   5.207   1.572  13.899  0.3846 -0.8294 -0.1822
18580TIP3    H277156   5.348   1.536  13.939  0.7283  1.7677  1.1561
18581TIP3   OH277157   3.495   2.162   1.886  0.1121  0.5093  0.8703
18581TIP3    H177158   3.584   2.168   1.920 -0.4061  1.8350  2.0819
18581TIP3    H277159   3.444   2.123   1.956  0.0810 -2.4237 -0.6265
18582TIP3   OH277160   0.340   5.291  15.119  0.5711  0.4640  0.4701
18582TIP3    H177161   0.357   5.237  15.042 -1.6559  0.2912  0.0465
18582TIP3    H277162   0.301   5.371  15.084  0.0090  0.5968  1.3678
18583TIP3   OH277163   0.776   0.889   2.238  0.3235 -0.7831  0.4579
18583TIP3    H177164   0.778   0.821   2.171 -0.5082  1.8495 -2.5197
18583TIP3    H277165   0.868   0.916   2.247  0.5481 -1.7021  1.0687
18584TIP3   OH277166   0.333   5.696   0.732  0.1215  0.1192  0.3739
18584TIP3    H177167   0.247   5.704   0.690 -0.0693 -0.3722  0.6659
18584TIP3    H277168   0.322   5.739   0.817  0.1494 -0.0026  0.4378
18585TIP3   OH277169   1.407   1.397   5.283  0.1320  0.1994  0.0608
18585TIP3    H177170   1.344   1.343   5.235 -1.0265  0.4246  1.2937
18585TIP3    H277171   1.477   1.413   5.219 -2.0291  1.7567 -2.1277
18586TIP3   OH277172   2.586   0.591   1.888  0.0674  0.2243  0.0960
18586TIP3    H177173   2.575   0.659   1.821  2.2115  1.3350  0.7854
18586TIP3    H277174   2.556   0.632   1.969 -0.8220 -0.4854  0.1352
18587TIP3   OH277175   5.313   3.136   4.412  0.3990 -0.2085 -0.1262
18587TIP3    H177176   5.243   3.193   4.446  1.4842  0.3323  1.3070
18587TIP3    H277177   5.272   3.050   4.405 -0.8085  0.3924 -0.6970
18588TIP3   OH277178   0.304   5.025  12.419  0.5925 -0.0413  0.2073
18588TIP3    H177179   0.340   5.040  12.506  2.6236  2.3183 -0.8844
18588TIP3    H277180   0.220   5.070  12.419  0.3955 -0.3902  1.0299
18589TIP3   OH277181   5.129   0.408   2.325  0.6827 -0.0889 -0.0187
18589TIP3    H177182   5.128   0.449   2.411  1.7301 -0.7983  0.3514
18589TIP3    H277183   5.212   0.361   2.321 -0.2170 -1.7240 -0.6278
18590TIP3   OH277184   2.780   6.377   2.174  0.5400  0.4902  0.3791
18590TIP3    H177185   2.799   6.328   2.253  0.4911  0.7075  0.5270
18590TIP3    H277186   2.707   6.331   2.133  0.3448  0.5717  0.6358
18591TIP3   OH277187   3.239   2.868   3.874  0.3891  0.7732 -0.0087
18591TIP3    H177188   3.255   2.942   3.815 -1.0250  1.1363  0.0285
18591TIP3    H277189   3.325   2.848   3.910  1.4350  0.1688 -2.5799
18592TIP3   OH277190   4.326   0.547  11.759  0.2635  0.3178 -0.1462
18592TIP3    H177191   4.353   0.456  11.771 -0.8922  0.1996  2.3697
18592TIP3    H277192   4.326   0.560  11.665  1.8214 -1.8483 -0.5216
18593TIP3   OH277193   2.669   0.295   2.858  0.5537  0.1366  0.0952
18593TIP3    H177194   2.626   0.372   2.896 -1.6158 -0.7836 -0.3497
18593TIP3    H277195   2.760   0.322   2.846  0.0186  2.3758  0.6111
18594TIP3   OH277196   5.567   2.627  14.881  0.0267 -0.0332 -0.7585
18594TIP3    H177197   5.565   2.719  14.907  2.3541 -0.7087  2.4761
18594TIP3    H277198   5.494   2.587  14.927 -0.2398 -0.0439 -1.1812
18595TIP3   OH277199   1.942   4.223   1.893  0.3952  0.5743 -0.4257
18595TIP3    H177200   1.946   4.166   1.816 -0.5539 -0.5412  0.3110
18595TIP3    H277201   1.979   4.171   1.964 -2.4514 -0.0773  0.7439
18596TIP3   OH277202   4.347   3.668   4.387  0.4185 -0.6809  0.5768
18596TIP3    H177203   4.414   3.737   4.384 -0.0705 -0.2134  0.2579
18596TIP3    H277204   4.397   3.587   4.399  1.1067 -0.4256 -0.3887
18597TIP3   OH277205   4.931   1.318   5.195 -0.5408 -0.6547 -0.0395
18597TIP3    H177206   4.899   1.293   5.108  1.3769 -0.4070 -0.8641
18597TIP3    H277207   5.024   1.298   5.193 -0.4340 -0.5784  1.9594
18598TIP3   OH277208   5.908   4.068  13.489  0.2879 -0.4480 -0.8061
18598TIP3    H177209   5.867   3.986  13.459 -1.3218  0.0197  0.0074
18598TIP3    H277210   5.853   4.137  13.451  0.4088  0.2091  0.1938
18599TIP3   OH277211   5.631   4.268   0.434  0.0814  0.5482  0.0558
18599TIP3    H177212   5.578   4.191   0.413  0.6944  0.0944  0.1372
18599TIP3    H277213   5.614   4.329   0.363  1.2337 -0.5083 -1.2091
18600TIP3   OH277214   4.490   4.051   3.959 -0.0066  0.0081 -0.2569
18600TIP3    H177215   4.560   4.106   3.993 -1.2244  1.6792 -0.3709
18600TIP3    H277216   4.412   4.077   4.008 -1.0122 -0.2228 -1.6745
18601TIP3   OH277217   4.886   1.483   3.498  0.7105  0.1740  0.1752
18601TIP3    H177218   4.970   1.505   3.458  1.1702 -0.4259  0.7917
18601TIP3    H277219   4.867   1.394   3.467 -0.4756  0.8541 -1.2116
18602TIP3   OH277220   2.019   4.496   1.905  0.4502  0.1335  0.7537
18602TIP3    H177221   2.092   4.516   1.963  0.1158  0.9276  0.9214
18602TIP3    H277222   2.016   4.401   1.902 -0.0117  0.0287  2.6963
18603TIP3   OH277223   0.427   5.238   5.298 -0.3981 -0.2795 -0.2428
18603TIP3    H177224   0.403   5.324   5.333  0.1171  0.4372 -1.5553
18603TIP3    H277225   0.495   5.258   5.234 -1.3031 -1.5069 -1.6310
18604TIP3   OH277226   2.214   4.940  13.089 -0.2268  0.3309 -0.4060
18604TIP3    H177227   2.190   4.941  12.996 -0.3095 -2.7619 -0.5056
18604TIP3    H277228   2.236   4.849  13.107  1.0884  1.1016  2.3242
18605TIP3   OH277229   3.668   4.510  10.647  0.3539  0.7344 -0.0279
18605TIP3    H177230   3.668   4.596  10.689 -0.2421  1.3705 -1.2654
18605TIP3    H277231   3.633   4.526  10.559 -1.8965 -1.1156  0.4196
18606TIP3   OH277232   0.705   0.216   4.370 -0.6517 -0.8964 -0.0352
18606TIP3    H177233   0.686   0.235   4.278 -1.8295  1.8836  0.6929
18606TIP3    H277234   0.621   0.226   4.415  0.1098 -1.1516  1.5165
18607TIP3   OH277235   6.142   0.811   4.135 -0.1775  0.0808 -0.7412
18607TIP3    H177236   6.105   0.857   4.211  3.1964 -0.4946  1.4705
18607TIP3    H277237   6.118   0.720   4.148 -1.2523  0.2322 -1.5119
18608TIP3   OH277238   1.637   0.064  13.860 -0.1773 -0.3735  0.2517
18608TIP3    H177239   1.699  -0.008  13.844 -1.4599 -1.2122 -1.1193
18608TIP3    H277240   1.693   0.141  13.874  1.1910 -1.0331 -1.3239
18609TIP3   OH277241   2.732   2.109  12.104  0.2622  0.3561  0.2026
18609TIP3    H177242   2.637   2.103  12.088 -0.1839 -1.6425  2.8230
18609TIP3    H277243   2.771   2.082  12.021 -1.5026 -0.1139 -0.5377
18610TIP3   OH277244   0.845   0.415  16.945 -0.0718 -0.0687  0.2241
18610TIP3    H177245   0.804   0.414  16.859 -0.2223  1.2349  0.2610
18610TIP3    H277246   0.901   0.492  16.944  0.6655 -0.5742  0.9654
18611TIP3   OH277247   0.860   2.706  15.341  0.1065 -0.1386  0.4973
18611TIP3    H177248   0.878   2.761  15.265 -0.9414 -1.8845 -1.0937
18611TIP3    H277249   0.943   2.700  15.388  1.0744  0.0413 -1.1592
18612TIP3   OH277250   5.431   6.436   0.901  0.1135 -0.1597 -0.3098
18612TIP3    H177251   5.445   6.445   0.806  0.3741  3.4965 -0.0828
18612TIP3    H277252   5.513   6.468   0.940  0.6283 -3.0986  1.2475
18613TIP3   OH277253   1.709   4.455   5.269  0.0095 -0.0221  0.1475
18613TIP3    H177254   1.672   4.492   5.348 -1.9578  1.3254 -1.3143
18613TIP3    H277255   1.693   4.361   5.276 -2.5219  0.3670  0.2064
18614TIP3   OH277256   3.166   2.631   3.329 -0.2460  0.0407  0.2032
18614TIP3    H177257   3.115   2.551   3.332 -1.2040  0.5665 -1.1206
18614TIP3    H277258   3.218   2.630   3.409  0.2590 -2.2207 -0.0999
18615TIP3   OH277259   6.139   0.053   6.130 -0.2524 -0.0431 -0.2061
18615TIP3    H177260   6.217   0.083   6.083 -0.1378  0.8054  0.5018
18615TIP3    H277261   6.173   0.004   6.205 -0.2271  3.0698  1.9871
18616TIP3   OH277262   3.565   4.544  13.333 -0.0638 -0.5406  0.1331
18616TIP3    H177263   3.660   4.530  13.336  0.4718  2.1751 -0.8691
18616TIP3    H277264   3.539   4.549  13.425  1.3026  1.3321  0.4806
18617TIP3   OH277265   1.259   3.431  16.339 -0.3637  0.0090 -0.0080
18617TIP3    H177266   1.181   3.377  16.353  0.4532 -1.3108 -0.4078
18617TIP3    H277267   1.314   3.414  16.415  0.5817 -0.9468 -0.8898
18618TIP3   OH277268   2.780   1.390  11.171  0.1158  0.1359  0.1916
18618TIP3    H177269   2.798   1.363  11.261 -1.7910 -0.4176  0.4552
18618TIP3    H277270   2.809   1.316  11.117  0.6488  0.1908  0.3986
18619TIP3   OH277271   1.341   0.455   3.556  0.7151  0.0918 -0.1204
18619TIP3    H177272   1.405   0.520   3.584 -1.4639  2.8344 -1.0602
18619TIP3    H277273   1.366   0.375   3.602  2.3245  2.0828  2.7508
18620TIP3   OH277274   1.985   0.228   3.550  0.2674  0.1606  0.4335
18620TIP3    H177275   1.995   0.287   3.476  2.3629 -0.0915  0.4652
18620TIP3    H277276   1.955   0.145   3.511  0.6348  0.2479 -0.0415
18621TIP3   OH277277   5.656   4.763  12.434 -0.2422  1.0661  0.1221
18621TIP3    H177278   5.738   4.809  12.415 -0.0343  0.5244 -0.2996
18621TIP3    H277279   5.668   4.675  12.398 -0.5412  0.5891  1.1322
18622TIP3   OH277280   6.520   0.754  14.104  0.1409 -0.1185  0.1201
18622TIP3    H177281   6.457   0.685  14.125  0.4777 -0.1262  1.1759
18622TIP3    H277282   6.548   0.736  14.015 -0.8268 -0.5231 -0.1136
18623TIP3   OH277283   0.431   1.801   5.897  0.2254  0.0514  0.3042
18623TIP3    H177284   0.488   1.752   5.838 -0.9210 -1.7930  0.6473
18623TIP3    H277285   0.455   1.771   5.984  0.0334  0.7204  0.5965
18624TIP3   OH277286   0.084   2.214  11.664 -0.2609 -0.0001 -0.5540
18624TIP3    H177287   0.067   2.212  11.569 -0.5266  0.9877 -0.5412
18624TIP3    H277288   0.150   2.282  11.675  0.4543 -0.7536 -0.1159
18625TIP3   OH277289   6.649   3.072   0.361 -0.1380  0.4289 -0.2793
18625TIP3    H177290   6.717   3.039   0.302 -0.3847 -1.5613  0.4843
18625TIP3    H277291   6.569   3.072   0.308 -0.4317 -1.6980  0.0848
18626TIP3   OH277292   4.858   4.766  15.980 -0.4224  0.5809  0.5010
18626TIP3    H177293   4.870   4.859  15.961  1.1751  0.7323  2.0225
18626TIP3    H277294   4.943   4.726  15.962 -1.4118 -0.8654 -1.3413
18627TIP3   OH277295   0.055   6.383   5.922 -0.0337 -0.0215  0.1443
18627TIP3    H177296   0.100   6.304   5.892  0.7873 -0.4311  2.2997
18627TIP3    H277297  -0.035   6.354   5.940 -0.2463 -0.0097 -0.8501
18628TIP3   OH277298   5.058   5.358   6.804  0.5364  0.1566  0.0453
18628TIP3    H177299   5.066   5.407   6.722  0.1698  0.7537  0.3648
18628TIP3    H277300   4.966   5.334   6.810  1.0295 -2.4261 -1.1476
18629TIP3   OH277301   3.453   0.479   0.223  0.0896 -0.0317  0.6739
18629TIP3    H177302   3.546   0.502   0.216  0.5148 -0.8638  2.9484
18629TIP3    H277303   3.439   0.463   0.316 -2.5583  0.8749  0.5081
18630TIP3   OH277304   0.785   3.575   1.685 -0.2140  0.1583  0.1910
18630TIP3    H177305   0.844   3.618   1.747 -1.6364 -0.0311  1.7425
18630TIP3    H277306   0.827   3.491   1.666 -0.1480 -0.1322  1.5596
18631TIP3   OH277307   3.527   4.012  16.807  0.0296  0.4899  0.3509
18631TIP3    H177308   3.617   4.017  16.775 -0.0704  1.7050  0.1842
18631TIP3    H277309   3.518   3.923  16.841  0.2565 -0.7764 -2.5971
18632TIP3   OH277310   3.965   2.767   5.216  0.0763  0.0926  0.5068
18632TIP3    H177311   3.920   2.694   5.259 -2.0572  1.4216  0.6951
18632TIP3    H277312   3.988   2.826   5.288 -0.3408  0.6911  0.1561
18633TIP3   OH277313   1.361   0.546  15.607  0.0467 -0.0019 -0.2101
18633TIP3    H177314   1.268   0.544  15.586  0.3335  0.5030 -1.6010
18633TIP3    H277315   1.366   0.507  15.694 -1.8314  2.6434  1.2553
18634TIP3   OH277316   3.787   4.269  12.650 -0.3278  0.4560 -0.0765
18634TIP3    H177317   3.755   4.180  12.638  0.5310 -0.0716  1.2969
18634TIP3    H277318   3.757   4.294  12.738 -0.3983  1.4659 -0.3699
18635TIP3   OH277319   1.160   6.462  15.719  0.2376 -0.2569  0.4831
18635TIP3    H177320   1.166   6.427  15.630  0.3499  0.7751  0.0676
18635TIP3    H277321   1.075   6.432  15.751  0.3282 -0.8833  0.1347
18636TIP3   OH277322   5.351   2.469   3.539 -0.0741 -0.0535  0.6144
18636TIP3    H177323   5.301   2.416   3.601 -0.4864  0.5730  0.8334
18636TIP3    H277324   5.442   2.445   3.554 -0.3576 -2.4419 -0.9301
18637TIP3   OH277325   0.601   5.245  13.801  0.1277  0.1296  0.0735
18637TIP3    H177326   0.649   5.213  13.877  0.0351  0.1236  0.1306
18637TIP3    H277327   0.664   5.242  13.729  0.7408  1.7854  0.5080
18638TIP3   OH277328   0.167   0.566  13.159  0.0075  0.2869  0.1627
18638TIP3    H177329   0.099   0.505  13.129 -0.4963  1.4862 -1.2676
18638TIP3    H277330   0.235   0.509  13.195 -0.1772 -1.2089 -1.6507
18639TIP3   OH277331   5.059   4.958  14.429  0.0942 -0.4406  0.0181
18639TIP3    H177332   5.052   4.932  14.338  0.0477 -1.8346  0.3968
18639TIP3    H277333   5.066   4.876  14.477  1.7226  0.2955  1.1383
18640TIP3   OH277334   5.313   5.666  11.921 -0.3793  0.3696 -0.2500
18640TIP3    H177335   5.354   5.631  12.000 -0.4454 -1.3548 -0.9368
18640TIP3    H277336   5.224   5.689  11.948 -0.4631 -0.3905  0.1428
18641TIP3   OH277337   5.689   2.771  12.634  0.1548 -0.0345  0.0052
18641TIP3    H177338   5.620   2.826  12.596  1.4046 -0.2349 -2.7524
18641TIP3    H277339   5.648   2.733  12.712 -2.9429 -0.3514 -1.6134
18642TIP3   OH277340   4.651   1.966  15.829  0.3782 -0.5083 -0.6582
18642TIP3    H177341   4.648   2.057  15.798  0.3257 -0.6220 -0.9825
18642TIP3    H277342   4.744   1.945  15.833  0.4018 -0.3482 -0.3149
18643TIP3   OH277343   3.067   1.887   4.184 -0.2526 -0.0592 -0.3610
18643TIP3    H177344   2.993   1.915   4.130 -0.3204 -2.2125 -1.4867
18643TIP3    H277345   3.125   1.963   4.187 -0.8093  0.5242 -2.5034
18644TIP3   OH277346   1.481   2.187   3.519  0.2793  0.4893  0.2869
18644TIP3    H177347   1.417   2.115   3.513 -0.6140  1.2658  0.1901
18644TIP3    H277348   1.552   2.160   3.461 -0.4424  0.0735 -0.4324
18645TIP3   OH277349   5.479   5.626   1.828 -0.4443 -0.1458  0.0419
18645TIP3    H177350   5.525   5.706   1.853  1.2692 -0.9323 -0.4243
18645TIP3    H277351   5.549   5.562   1.813 -1.6130 -0.9841 -2.2473
18646TIP3   OH277352   6.301   4.827  13.282  0.0491 -0.0785 -0.1602
18646TIP3    H177353   6.221   4.799  13.328  0.9462 -0.0122  1.5250
18646TIP3    H277354   6.366   4.761  13.304  1.5054  1.8646  1.7839
18647TIP3   OH277355   4.974   5.143   5.956 -0.3563  0.2401  0.2351
18647TIP3    H177356   4.907   5.163   5.890  0.6667 -1.0267 -1.2427
18647TIP3    H277357   4.940   5.065   6.001  0.3443 -0.7664 -0.9166
18648TIP3   OH277358   5.039   0.185   5.563 -0.1170 -0.2593  0.0920
18648TIP3    H177359   5.110   0.224   5.512  0.9856 -1.2078  0.8377
18648TIP3    H277360   5.072   0.185   5.653 -1.3510 -0.0995  0.5542
18649TIP3   OH277361   5.479   5.952   3.744  0.2580 -0.0512  0.8197
18649TIP3    H177362   5.572   5.934   3.731  0.2368  1.1118 -1.2272
18649TIP3    H277363   5.434   5.877   3.704  0.2950 -0.0344  0.7478
18650TIP3   OH277364   0.205   1.898  14.965  0.2716 -0.1859 -0.2172
18650TIP3    H177365   0.230   1.811  14.932  2.7278  0.8058 -1.1790
18650TIP3    H277366   0.170   1.880  15.052  1.3073 -2.1234 -0.1221
18651TIP3   OH277367   6.268   2.301  15.380 -0.4018  0.4986  0.2951
18651TIP3    H177368   6.281   2.340  15.466 -1.5346  0.6558  0.4203
18651TIP3    H277369   6.173   2.293  15.372 -0.2517 -1.2610 -0.1589
18652TIP3   OH277370   4.483   5.944  13.447  0.1632 -0.4985  0.0368
18652TIP3    H177371   4.491   6.033  13.480 -1.6450 -0.0700 -0.5469
18652TIP3    H277372   4.553   5.936  13.382  0.2767  0.5357  0.0230
18653TIP3   OH277373   2.352   3.551   3.105 -0.1319  0.0972  0.0353
18653TIP3    H177374   2.279   3.510   3.153 -0.5107  0.7773  0.0468
18653TIP3    H277375   2.430   3.527   3.155 -0.4000 -0.2151  0.3086
18654TIP3   OH277376   1.310   6.662   3.799 -0.2271  0.2356  0.0924
18654TIP3    H177377   1.291   6.620   3.883  0.6540 -0.4990 -0.0553
18654TIP3    H277378   1.367   6.735   3.821  1.2952 -0.8785  0.0209
18655TIP3   OH277379   6.032   5.191  13.317 -0.2566  0.7760  0.3526
18655TIP3    H177380   5.958   5.189  13.256  1.5410  2.3983 -2.0999
18655TIP3    H277381   6.103   5.148  13.269  0.8832  0.8995  1.8644
18656TIP3   OH277382   3.555   6.176  14.211 -0.5383 -0.2736  0.1426
18656TIP3    H177383   3.536   6.118  14.137  1.2960 -0.6767 -0.0512
18656TIP3    H277384   3.632   6.138  14.252  0.1674  1.5326  0.5622
18657TIP3   OH277385   1.967   4.580   3.738 -0.4009  0.1245 -0.3250
18657TIP3    H177386   1.989   4.563   3.646 -1.2438  0.4042 -0.5865
18657TIP3    H277387   2.050   4.573   3.784  0.1999  0.9482 -1.2487
18658TIP3   OH277388   3.738   5.384   1.013 -0.4454  0.5953 -0.0857
18658TIP3    H177389   3.688   5.389   1.094 -1.3355 -0.6483 -0.5267
18658TIP3    H277390   3.797   5.310   1.026 -0.0772  0.8468 -0.3029
18659TIP3   OH277391   6.230   1.017   5.855  0.1442 -0.2028 -0.1921
18659TIP3    H177392   6.192   0.930   5.841  1.0066 -0.7122  0.6048
18659TIP3    H277393   6.268   1.013   5.942 -1.5851  1.6322  0.7363
18660TIP3   OH277394   4.074   5.141   0.611 -0.2499 -0.0449  0.0845
18660TIP3    H177395   4.029   5.094   0.681 -0.1597  0.5271  0.5355
18660TIP3    H277396   4.044   5.231   0.619 -2.2208 -0.3793 -2.2117
18661TIP3   OH277397   3.407   4.000   0.991 -0.0529  0.2799 -0.0410
18661TIP3    H177398   3.333   4.046   0.951  0.8078  0.9861 -0.8729
18661TIP3    H277399   3.441   3.944   0.922 -0.3770 -0.7753  0.6260
18662TIP3   OH277400   1.369   4.289   6.159  0.2113 -0.0879 -0.1325
18662TIP3    H177401   1.435   4.225   6.185 -1.0776 -1.4756 -0.0900
18662TIP3    H277402   1.416   4.352   6.106  1.4435 -1.4010 -0.6708
18663TIP3   OH277403   3.273   2.960   6.400  0.0050  0.2729  0.1647
18663TIP3    H177404   3.264   2.902   6.475 -0.2982 -0.6508 -0.5662
18663TIP3    H277405   3.182   2.979   6.374  0.1005  0.0125 -0.3849
18664TIP3   OH277406   4.639   3.349  12.940 -0.0175  0.4088  0.0370
18664TIP3    H177407   4.614   3.298  12.863 -1.1299  0.3788  0.3999
18664TIP3    H277408   4.665   3.284  13.004 -2.3462  0.1647  0.8309
18665TIP3   OH277409   5.518   3.048  16.158 -0.3150  0.0954  0.3029
18665TIP3    H177410   5.552   2.960  16.175 -1.0694 -0.3565 -0.4201
18665TIP3    H277411   5.506   3.087  16.244  0.0654 -0.5009  0.6300
18666TIP3   OH277412   5.754   4.668  14.033 -0.9889  0.4059 -0.0750
18666TIP3    H177413   5.753   4.743  13.974 -2.6260  0.4177 -0.0726
18666TIP3    H277414   5.799   4.599  13.983  2.6555  1.9436  0.7605
18667TIP3   OH277415   3.541   5.081  12.265  0.1817  0.3078 -0.4763
18667TIP3    H177416   3.451   5.048  12.265 -0.1745  0.9918 -3.7290
18667TIP3    H277417   3.547   5.137  12.343 -2.5864  1.2150 -0.8351
18668TIP3   OH277418   3.755   4.025  14.180  0.2406  0.5689 -0.4235
18668TIP3    H177419   3.768   4.088  14.251 -1.9446 -0.0996  0.6592
18668TIP3    H277420   3.660   4.016  14.173  0.4094 -3.4315  0.2771
18669TIP3   OH277421   6.610   4.325  16.464 -0.3755  0.3413 -0.2366
18669TIP3    H177422   6.611   4.250  16.524 -0.8025 -0.0210 -0.6699
18669TIP3    H277423   6.640   4.399  16.517  1.2841 -0.3635 -0.1169
18670TIP3   OH277424   0.133   2.163  17.105 -0.5022 -0.1216 -0.6056
18670TIP3    H177425   0.208   2.103  17.109 -0.9487 -0.6635 -0.3991
18670TIP3    H277426   0.057   2.109  17.124 -0.8727  0.5847 -0.0140
18671TIP3   OH277427   1.322   3.660  14.589 -0.4405 -0.2067  0.1362
18671TIP3    H177428   1.302   3.752  14.572 -1.1387 -0.4354 -0.3383
18671TIP3    H277429   1.239   3.622  14.615 -0.6358 -1.1477 -1.7028
18672TIP3   OH277430   0.393   6.743  17.248 -0.2590 -0.0637  0.2079
18672TIP3    H177431   0.483   6.732  17.281 -0.7039 -0.1484  1.4718
18672TIP3    H277432   0.380   6.669  17.189  1.5826  1.7111 -2.6218
18673TIP3   OH277433   0.531   4.233  11.997 -0.6990 -0.0749  0.2176
18673TIP3    H177434   0.556   4.295  12.065 -0.0398 -0.4485  0.3237
18673TIP3    H277435   0.536   4.147  12.039 -0.6950 -0.2771 -0.1876
18674TIP3   OH277436   6.684   1.921  15.349  0.2624  0.0471  0.2018
18674TIP3    H177437   6.669   1.929  15.255 -2.8430  2.7085  0.7370
18674TIP3    H277438   6.641   1.840  15.373  0.2932 -0.2034 -0.5554
18675TIP3   OH277439   0.275   1.370   0.103  0.1477  0.5659  0.6899
18675TIP3    H177440   0.201   1.310   0.093 -0.2167  1.0567  0.3681
18675TIP3    H277441   0.256   1.418   0.184  0.8813 -0.3451  1.4307
18676TIP3   OH277442   2.521   1.571  11.395  0.0835  1.4444 -0.3662
18676TIP3    H177443   2.523   1.481  11.430 -2.0929  1.9918  1.3534
18676TIP3    H277444   2.503   1.559  11.302 -0.4931  0.0940 -0.1160
18677TIP3   OH277445   3.343   5.721  13.668 -0.1767  0.4137 -0.3551
18677TIP3    H177446   3.316   5.641  13.713  0.1815  0.2196 -0.4732
18677TIP3    H277447   3.264   5.754  13.626  0.2796 -1.6790 -3.0956
18678TIP3   OH277448   6.304   6.380   2.193 -0.0010 -0.5737  0.6008
18678TIP3    H177449   6.265   6.458   2.154  0.0737 -0.3839  0.9113
18678TIP3    H277450   6.389   6.370   2.149  0.6919  0.4200  1.6817
18679TIP3   OH277451   1.018   6.585  14.713  0.0529  0.7794  0.7033
18679TIP3    H177452   0.939   6.608  14.664  1.3374  1.8643 -0.9688
18679TIP3    H277453   1.024   6.490  14.705 -0.0629  0.8727 -0.8484
18680TIP3   OH277454   0.400   2.651  17.320 -0.4351  0.0655  0.3795
18680TIP3    H177455   0.471   2.634  17.257 -0.0546  0.0503  0.8029
18680TIP3    H277456   0.322   2.661  17.267 -0.2512 -0.6898 -0.0504
18681TIP3   OH277457   3.730   3.384   0.122  0.3047 -0.4100  0.2644
18681TIP3    H177458   3.673   3.461   0.116 -0.1494 -0.3881  3.1297
18681TIP3    H277459   3.672   3.311   0.099 -0.2517 -0.1617  0.8130
18682TIP3   OH277460   2.453   5.468   6.090 -0.3801  0.1097 -0.1095
18682TIP3    H177461   2.404   5.408   6.146  1.9008 -0.6361  1.2446
18682TIP3    H277462   2.531   5.418   6.065  0.8211  1.9687 -0.2490
18683TIP3   OH277463   6.063   3.900  12.500 -0.6445 -0.3429  0.1079
18683TIP3    H177464   5.982   3.916  12.549 -2.1604  0.1752 -2.4183
18683TIP3    H277465   6.113   3.981  12.509 -2.1601  0.8235 -1.3943
18684TIP3   OH277466   1.782   0.327   3.721 -0.2832  0.3275 -0.7313
18684TIP3    H177467   1.865   0.314   3.675  0.0331  3.8829 -1.4827
18684TIP3    H277468   1.715   0.300   3.658  0.2238 -1.4499 -0.5560
18685TIP3   OH277469   5.669   2.779  14.394 -0.1856 -0.0103 -0.3164
18685TIP3    H177470   5.752   2.826  14.398 -0.0477  0.0744 -2.6322
18685TIP3    H277471   5.680   2.704  14.452  1.1291  0.5580  0.1998
18686TIP3   OH277472   1.815   4.559  15.114 -0.9823  0.0818 -0.3327
18686TIP3    H177473   1.840   4.522  15.199 -0.6744  1.4574  0.2113
18686TIP3    H277474   1.774   4.486  15.067 -0.3598 -0.9417  0.6494
18687TIP3   OH277475   5.594   5.901  11.658  0.2199 -0.8581  0.5171
18687TIP3    H177476   5.689   5.903  11.668  0.1941 -2.9125  1.8002
18687TIP3    H277477   5.561   5.903  11.748 -0.8773 -1.6070  0.1462
18688TIP3   OH277478   3.368   0.041  17.264  1.0375  0.7288 -0.2532
18688TIP3    H177479   3.316  -0.006  17.198 -0.0289  1.4326  0.0546
18688TIP3    H277480   3.307   0.104  17.301  2.2913  1.9907 -0.2738
18689TIP3   OH277481   2.698   6.078  15.239  0.0305 -0.3680  0.0861
18689TIP3    H177482   2.702   6.077  15.335 -1.9469  0.5309  0.2110
18689TIP3    H277483   2.662   5.992  15.216 -1.6995  0.2723  0.3103
18690TIP3   OH277484   5.723   3.417   6.296 -0.2054 -0.1476  0.0085
18690TIP3    H177485   5.753   3.490   6.243  0.3220 -0.7564 -0.5425
18690TIP3    H277486   5.661   3.456   6.357 -1.1771  0.5071 -1.3421
18691TIP3   OH277487   1.311   3.117  17.356 -0.3643 -0.5445  0.7494
18691TIP3    H177488   1.383   3.177  17.376 -1.5433  1.9768 -1.8652
18691TIP3    H277489   1.349   3.051  17.298 -0.3618  1.9796 -2.4085
18692TIP3   OH277490   3.768   3.432  13.183  0.6473  0.5986  0.6057
18692TIP3    H177491   3.693   3.438  13.125  1.4021  0.6200 -0.4103
18692TIP3    H277492   3.732   3.406  13.268 -0.4494  0.2359  0.0445
18693TIP3   OH277493   3.782   1.872  13.307 -0.2364 -0.0737 -0.6698
18693TIP3    H177494   3.835   1.869  13.228  0.5329 -0.1112 -0.1587
18693TIP3    H277495   3.841   1.845  13.377 -0.8206  0.2638 -0.0319
18694TIP3   OH277496   1.537   0.241  14.563 -0.0929  0.2473  0.2639
18694TIP3    H177497   1.604   0.292  14.607  0.3754  0.0573 -0.2153
18694TIP3    H277498   1.556   0.251  14.470  0.4370 -1.3454  0.1642
18695TIP3   OH277499   5.140   0.279   3.017  0.0149  0.3060 -0.3750
18695TIP3    H177500   5.106   0.191   3.031  0.0782  0.3013 -0.2430
18695TIP3    H277501   5.129   0.322   3.102  0.5230  0.2417 -0.2753
18696TIP3   OH277502   4.526   1.861  16.951 -0.3461  0.0307 -0.8489
18696TIP3    H177503   4.434   1.881  16.969 -0.1556  1.6866 -1.5421
18696TIP3    H277504   4.575   1.910  17.017  0.0719 -0.0958 -1.0605
18697TIP3   OH277505   1.533   2.449   5.950  0.2678  0.2154 -0.0528
18697TIP3    H177506   1.457   2.394   5.935  1.2645 -0.9146 -1.2133
18697TIP3    H277507   1.596   2.392   5.995  0.8293  0.7799 -0.1042
18698TIP3   OH277508   3.182   4.113  16.484  0.0176  0.4868 -0.5572
18698TIP3    H177509   3.176   4.031  16.436 -0.4549 -0.5550  1.2153
18698TIP3    H277510   3.202   4.088  16.574  1.7212  2.4185 -0.3120
18699TIP3   OH277511   6.012   2.186  14.887  0.1470  0.6375 -0.0162
18699TIP3    H177512   5.980   2.174  14.798  0.4760 -0.1876 -0.0316
18699TIP3    H277513   5.936   2.221  14.935 -0.6660 -0.7883 -0.1759
18700TIP3   OH277514   3.532   5.597  15.188  0.1525 -0.1270 -0.5388
18700TIP3    H177515   3.530   5.559  15.276 -0.3627 -0.8037 -0.8326
18700TIP3    H277516   3.595   5.668  15.194  1.9257 -1.6424 -0.2147
18701TIP3   OH277517   4.284   1.926  12.329  0.4706 -0.3568 -0.5811
18701TIP3    H177518   4.369   1.945  12.289  0.8914 -0.8550  0.0624
18701TIP3    H277519   4.286   1.832  12.345  0.6482 -0.0494  1.3421
18702TIP3   OH277520   3.158   2.373  16.457  0.0404 -0.1375  0.3008
18702TIP3    H177521   3.195   2.449  16.503  0.2985  1.5706 -2.5096
18702TIP3    H277522   3.228   2.308  16.456  0.4315  0.2511  1.1874
18703TIP3   OH277523   2.582   1.468  12.961 -0.2313  0.0845  0.3140
18703TIP3    H177524   2.522   1.542  12.977  1.7885  1.4541  2.0515
18703TIP3    H277525   2.627   1.455  13.044 -0.3398 -3.0497  0.0014
18704TIP3   OH277526   2.131   6.538   3.856  0.1914  0.3983 -0.1321
18704TIP3    H177527   2.171   6.493   3.930 -0.2556  0.6847  0.2899
18704TIP3    H277528   2.199   6.539   3.789  0.9587  1.0546  0.6383
18705TIP3   OH277529   0.528   0.610   5.742 -0.2763  0.0168 -0.0405
18705TIP3    H177530   0.510   0.566   5.825 -0.3752 -0.3314 -0.2455
18705TIP3    H277531   0.480   0.559   5.676 -1.2054  0.9981 -0.1572
18706TIP3   OH277532   5.918   5.984  13.950 -0.4873  0.7710 -0.0097
18706TIP3    H177533   5.850   6.031  13.903  0.8851  1.2184 -1.6320
18706TIP3    H277534   5.962   5.931  13.883  0.2453 -0.1313  1.1372
18707TIP3   OH277535   0.819   6.129  13.575 -0.1568  0.5071  0.1103
18707TIP3    H177536   0.871   6.208  13.587 -0.6753  0.8255  0.2921
18707TIP3    H277537   0.846   6.096  13.489 -1.5324  2.1242 -1.0217
18708TIP3   OH277538   4.464   3.232  15.292 -0.3402 -0.4020 -0.0274
18708TIP3    H177539   4.557   3.210  15.281 -0.6527 -1.5749 -0.3879
18708TIP3    H277540   4.461   3.283  15.373  0.5897 -0.5002  0.0816
18709TIP3   OH277541   5.851   0.603  13.751 -0.1264  0.2684 -0.2638
18709TIP3    H177542   5.864   0.536  13.684  2.1839  0.6164 -0.2578
18709TIP3    H277543   5.939   0.639  13.766 -0.9276  1.6821  1.4102
18710TIP3   OH277544   1.236   6.747   4.794  0.1934 -0.0072  0.2334
18710TIP3    H177545   1.188   6.818   4.752  2.0726 -0.0069 -2.0969
18710TIP3    H277546   1.314   6.789   4.830  0.7086 -0.6962 -0.0613
18711TIP3   OH277547   4.727   1.617   5.761  0.5629 -0.7201  0.1045
18711TIP3    H177548   4.714   1.573   5.845 -0.1592 -3.1612 -1.1811
18711TIP3    H277549   4.821   1.610   5.744  0.4989 -1.5399  0.0620
18712TIP3   OH277550   3.822   0.835  12.722 -0.9126 -0.3986 -0.1898
18712TIP3    H177551   3.871   0.882  12.655 -0.7969  0.2460  0.3354
18712TIP3    H277552   3.808   0.748  12.685 -0.3625 -0.2293 -0.8153
18713TIP3   OH277553   2.383   1.813  12.030  0.5866  0.1008 -0.7388
18713TIP3    H177554   2.470   1.774  12.037 -0.0076 -1.1356 -0.1348
18713TIP3    H277555   2.352   1.786  11.943  1.0861  1.1830 -1.2798
18714TIP3   OH277556   1.651   1.176   0.917  0.0861  0.4102 -0.6543
18714TIP3    H177557   1.602   1.101   0.885  1.3519 -0.3072 -0.9734
18714TIP3    H277558   1.594   1.216   0.983  0.5233 -2.5845  1.7885
18715TIP3   OH277559   0.805   5.435  14.488 -0.4131 -0.0403  0.2290
18715TIP3    H177560   0.844   5.519  14.514 -0.2406 -0.1210  0.2381
18715TIP3    H277561   0.858   5.408  14.413  0.0770 -0.5464  0.7449
18716TIP3   OH277562   4.676   6.680   6.040  0.1138  1.0905 -0.7189
18716TIP3    H177563   4.691   6.586   6.051  0.9342  1.0657 -1.8151
18716TIP3    H277564   4.708   6.720   6.121 -1.1821  0.3595  0.1882
18717TIP3   OH277565   4.416   0.875   0.266  0.1909 -0.1411 -0.5824
18717TIP3    H177566   4.496   0.822   0.272  1.0338  1.2262  1.0564
18717TIP3    H277567   4.354   0.831   0.324 -0.0074 -0.7727 -1.2588
18718TIP3   OH277568   4.815   6.664   4.208 -0.4473  0.1611  0.0698
18718TIP3    H177569   4.741   6.673   4.269  0.4672  0.2631  1.2044
18718TIP3    H277570   4.856   6.750   4.207 -1.6968  0.8189 -2.4408
18719TIP3   OH277571   2.347   2.012  17.058  1.1359  0.4749  0.0458
18719TIP3    H177572   2.370   2.067  16.983  0.8303 -0.1463 -0.5168
18719TIP3    H277573   2.395   2.049  17.131 -1.1255  3.2154  0.3277
18720TIP3   OH277574   5.432   0.001   6.534 -0.1264 -0.0534 -0.0171
18720TIP3    H177575   5.404  -0.089   6.552 -0.3164  0.3464  1.9202
18720TIP3    H277576   5.521   0.006   6.567 -0.2026  0.5321  0.1175
18721TIP3   OH277577   0.336   3.643   2.104  0.3824  0.1074  0.2488
18721TIP3    H177578   0.364   3.665   2.015 -1.5752 -1.3715 -0.7895
18721TIP3    H277579   0.400   3.687   2.160  3.4605 -1.2495 -1.8911
18722TIP3   OH277580   3.001   4.758  17.233 -0.2559  0.2631 -0.2473
18722TIP3    H177581   3.011   4.789  17.143  0.1701 -0.8200 -0.5881
18722TIP3    H277582   2.998   4.838  17.286  0.5981  0.8864 -1.1129
18723TIP3   OH277583   3.225   1.396  13.689  0.3342  0.2125  0.0080
18723TIP3    H177584   3.321   1.398  13.696  0.2832  0.4399  0.6584
18723TIP3    H277585   3.204   1.304  13.673  0.8657  0.5291 -3.3415
18724TIP3   OH277586   6.402   1.467  12.765  0.3224  0.5329  0.0365
18724TIP3    H177587   6.432   1.448  12.676  0.3652  1.4907 -0.1696
18724TIP3    H277588   6.345   1.394  12.788  0.5382  0.1334 -0.6666
18725TIP3   OH277589   3.231   3.146   5.141 -0.0285  0.2137 -0.0657
18725TIP3    H177590   3.201   3.188   5.221 -1.4162  0.1170 -0.5220
18725TIP3    H277591   3.306   3.200   5.113 -0.9964  1.6709  0.0205
18726TIP3   OH277592   1.473   1.466   3.386 -0.2266 -0.2957  0.3304
18726TIP3    H177593   1.522   1.471   3.304  1.7401  1.2568  1.5047
18726TIP3    H277594   1.395   1.520   3.371 -0.4466 -0.9037 -0.8310
18727TIP3   OH277595   2.667   2.158   1.620 -0.4300  0.0482 -0.6021
18727TIP3    H177596   2.725   2.222   1.579 -0.2657  0.1310 -0.2443
18727TIP3    H277597   2.649   2.094   1.550 -1.9813  1.3762 -1.4953
18728TIP3   OH277598   1.958   3.905  11.891 -0.3284  0.0378 -0.1262
18728TIP3    H177599   1.935   3.949  11.809  0.9042  0.3445 -0.3308
18728TIP3    H277600   2.044   3.941  11.914 -0.3582 -0.5441  0.9435
18729TIP3   OH277601   3.177   3.516  15.945 -0.0746 -0.7697 -0.1942
18729TIP3    H177602   3.201   3.602  15.978 -0.8315 -0.3869 -0.6084
18729TIP3    H277603   3.260   3.469  15.937  0.8209  1.0471 -3.1401
18730TIP3   OH277604   2.962   4.701  15.260 -0.0117 -0.0896 -0.2498
18730TIP3    H177605   3.011   4.622  15.236  0.9798 -0.2589  2.0596
18730TIP3    H277606   2.888   4.703  15.200  0.9017 -1.8048 -1.5128
18731TIP3   OH277607   2.450   0.638  14.741 -0.2267 -0.3291 -0.2537
18731TIP3    H177608   2.429   0.560  14.793 -1.2317  0.0407 -0.0872
18731TIP3    H277609   2.442   0.711  14.802 -1.0054  0.0680 -0.8061
18732TIP3   OH277610   0.648   3.331  17.167 -0.2225  0.3826 -0.1832
18732TIP3    H177611   0.654   3.262  17.100  1.1196  1.7661 -1.5766
18732TIP3    H277612   0.555   3.343  17.181 -0.5029 -0.7893 -0.9032
18733TIP3   OH277613   0.143   5.436   5.116 -0.1049  0.1677  0.0710
18733TIP3    H177614   0.098   5.355   5.139  0.6320 -0.5090 -0.7975
18733TIP3    H277615   0.195   5.457   5.194 -0.8237  0.1887  0.5532
18734TIP3   OH277616   3.821   0.825   6.703  0.5708  0.2025 -0.6572
18734TIP3    H177617   3.741   0.824   6.650  0.6004  1.8886 -0.7697
18734TIP3    H277618   3.797   0.777   6.783  0.2394 -1.5179 -1.7325
18735TIP3   OH277619   4.813   2.573   0.090  0.0606  0.6188 -0.5203
18735TIP3    H177620   4.871   2.497   0.084 -0.7476 -0.1529  0.7620
18735TIP3    H277621   4.756   2.565   0.013  0.0585 -0.0185 -0.4597
18736TIP3   OH277622   3.639   6.684  16.009 -0.0511  0.3741  0.2433
18736TIP3    H177623   3.642   6.724  15.922  0.2792  1.3751  0.7038
18736TIP3    H277624   3.634   6.758  16.069 -1.8500 -0.3335  1.0216
18737TIP3   OH277625   2.193   6.484   0.968 -0.1566 -0.1134 -0.6389
18737TIP3    H177626   2.114   6.434   0.947  1.3575 -2.0342 -2.1461
18737TIP3    H277627   2.203   6.545   0.895 -0.3776  0.3224 -0.3092
18738TIP3   OH277628   2.754   1.733  13.355 -0.9877  0.0407 -0.2598
18738TIP3    H177629   2.780   1.764  13.442 -1.3351 -1.6173  0.4818
18738TIP3    H277630   2.830   1.748  13.299  0.1243 -1.0074  0.9058
18739TIP3   OH277631   0.519   3.456  16.285 -0.2554  0.1458  0.3262
18739TIP3    H177632   0.529   3.362  16.301  1.1486  0.4168  1.2444
18739TIP3    H277633   0.585   3.497  16.342  1.8909  1.4921 -2.8662
18740TIP3   OH277634   1.238   2.636  13.961 -0.3499 -0.8081 -0.6288
18740TIP3    H177635   1.177   2.586  14.016 -1.1443 -0.4205 -1.1369
18740TIP3    H277636   1.286   2.570  13.911  1.9697 -1.3447  2.0290
18741TIP3   OH277637   1.110   0.024   2.554  0.5474  0.5068 -0.0370
18741TIP3    H177638   1.168   0.084   2.508  0.9422  0.5050  0.4477
18741TIP3    H277639   1.023   0.041   2.517  0.9100  0.2579 -1.0136
18742TIP3   OH277640   0.059   1.334  11.443 -0.0379  0.2270 -0.0890
18742TIP3    H177641   0.118   1.270  11.483  1.6844  1.6464 -0.2366
18742TIP3    H277642   0.024   1.384  11.516  2.1807  2.0409 -0.1904
18743TIP3   OH277643   1.614   6.420  15.569  0.0579 -0.4774  0.6137
18743TIP3    H177644   1.616   6.509  15.604  1.1702 -0.8342  1.5560
18743TIP3    H277645   1.544   6.377  15.617 -0.2553 -0.1970  0.4063
18744TIP3   OH277646   0.958   0.227  14.092 -0.7981 -0.4665  0.8020
18744TIP3    H177647   0.920   0.315  14.099  1.7705  0.7450  0.4314
18744TIP3    H277648   0.956   0.207  13.998  2.4187  1.1008  0.2747
18745TIP3   OH277649   3.141   3.290  15.369  0.8129  0.0382  0.9582
18745TIP3    H177650   3.153   3.300  15.463 -2.2157  0.3503  1.4248
18745TIP3    H277651   3.099   3.371  15.341  0.5607 -0.5347 -0.4009
18746TIP3   OH277652   4.142   3.188   0.244 -1.0402 -0.5785  0.0497
18746TIP3    H177653   4.069   3.220   0.191 -0.7552 -0.3545 -0.2133
18746TIP3    H277654   4.220   3.221   0.200 -0.8235  0.6931  1.3113
18747TIP3   OH277655   6.704   3.191  16.283  0.5333 -0.2182 -0.2970
18747TIP3    H177656   6.709   3.104  16.322 -0.0495  1.4150  4.0026
18747TIP3    H277657   6.641   3.238  16.338  1.8970  3.3649 -1.5112
18748TIP3   OH277658   2.603   4.904   2.735  0.3479 -0.5797 -0.4254
18748TIP3    H177659   2.621   4.818   2.772  0.7269 -1.1041 -1.7762
18748TIP3    H277660   2.673   4.918   2.671 -0.6269 -0.0051 -1.4125
18749TIP3   OH277661   0.336   5.794  11.389  0.2470 -0.2558 -0.2310
18749TIP3    H177662   0.350   5.870  11.332 -3.0924 -0.6180 -1.7844
18749TIP3    H277663   0.306   5.831  11.471  0.7317  0.1495 -0.2316
18750TIP3   OH277664   2.187   2.217  11.375  0.2470 -0.5080 -0.2170
18750TIP3    H177665   2.199   2.239  11.468  1.1447  0.3373 -0.5141
18750TIP3    H277666   2.257   2.155  11.356 -1.0892 -2.2136  0.1144
18751TIP3   OH277667   3.363   5.661   1.260 -0.1946 -0.0605 -0.1628
18751TIP3    H177668   3.399   5.686   1.345 -0.5892  0.2062 -0.0703
18751TIP3    H277669   3.268   5.659   1.274 -0.2928  0.3889 -0.6967
18752TIP3   OH277670   2.748   1.287  11.951  0.0568 -0.2938 -0.3568
18752TIP3    H177671   2.809   1.223  11.914 -0.1060 -0.5349 -0.2168
18752TIP3    H277672   2.669   1.236  11.970  0.6230 -0.5174  1.6795
18753TIP3   OH277673   3.927   1.820   6.275  0.0549 -0.5490 -0.4194
18753TIP3    H177674   4.006   1.869   6.251  0.1051 -0.0599  0.6774
18753TIP3    H277675   3.855   1.882   6.264  0.0411 -0.4220  0.3003
18754TIP3   OH277676   2.457   3.713  14.948  0.4902  0.7378 -0.3226
18754TIP3    H177677   2.372   3.730  14.908  0.5067  0.1978 -0.5978
18754TIP3    H277678   2.515   3.690  14.875  0.8933  1.1663 -0.1463
18755TIP3   OH277679   5.286   2.074  14.353  0.7127 -0.0336  0.0596
18755TIP3    H177680   5.358   2.110  14.301  0.1820  0.2775 -0.4708
18755TIP3    H277681   5.211   2.076  14.294  0.7140 -2.3405 -0.1152
18756TIP3   OH277682   0.901   1.809  10.358  0.1315  0.3242  0.0949
18756TIP3    H177683   0.838   1.761  10.305  0.3363 -0.1885  0.3062
18756TIP3    H277684   0.852   1.883  10.393  0.3752  1.5825 -2.0607
18757TIP3   OH277685   2.686   4.977  13.271  0.0984 -0.1267  0.1407
18757TIP3    H177686   2.640   4.969  13.188 -0.8610 -0.8163  0.7218
18757TIP3    H277687   2.746   4.903  13.273  1.7597  1.1292 -0.9041
18758TIP3   OH277688   3.177   2.475   1.584  0.3813  0.5912 -0.3977
18758TIP3    H177689   3.120   2.423   1.528 -0.0557  0.3092  0.2986
18758TIP3    H277690   3.247   2.505   1.526 -0.4976  0.9940 -1.2816
18759TIP3   OH277691   5.198   5.410   4.406 -0.1039 -0.1759  0.0160
18759TIP3    H177692   5.135   5.427   4.336 -2.0792  0.3158  1.7887
18759TIP3    H277693   5.144   5.399   4.485  1.8314 -2.9738  1.1275
18760TIP3   OH277694   4.215   0.818   4.524 -0.1170 -0.1675  0.7762
18760TIP3    H177695   4.262   0.736   4.539 -0.1623 -0.7593 -1.7772
18760TIP3    H277696   4.279   0.875   4.482 -0.6643  0.3174  0.5854
18761TIP3   OH277697   2.469   4.359  14.489  0.5340  0.3351  0.2073
18761TIP3    H177698   2.538   4.314  14.538  0.4976 -0.2578 -0.2752
18761TIP3    H277699   2.508   4.376  14.403  0.2985  0.5832  0.1490
18762TIP3   OH277700   1.685   2.959  13.834 -0.5630 -0.3711 -0.2084
18762TIP3    H177701   1.735   2.915  13.766 -2.0567 -2.0629 -0.2866
18762TIP3    H277702   1.616   2.897  13.858 -0.7876  0.6377  2.0415
18763TIP3   OH277703   2.484   6.358   0.152 -0.1059  0.8482 -0.2764
18763TIP3    H177704   2.542   6.298   0.200 -0.5734  1.7702  1.5325
18763TIP3    H277705   2.402   6.309   0.144  0.2512  0.3415 -0.9901
18764TIP3   OH277706   3.557   0.933  12.643 -0.1066 -0.3081  0.1027
18764TIP3    H177707   3.649   0.926  12.667  0.3145  1.3608 -0.8282
18764TIP3    H277708   3.531   1.020  12.672 -1.0538 -0.3017 -0.6948
18765TIP3   OH277709   1.981   3.592   2.520 -0.5682  0.5416 -0.1224
18765TIP3    H177710   2.073   3.602   2.498 -0.7275 -2.1248 -2.4933
18765TIP3    H277711   1.962   3.667   2.577  3.0331  1.1086  0.5501
18766TIP3   OH277712   1.527   0.520   3.238 -0.2947  0.4895  0.6312
18766TIP3    H177713   1.527   0.473   3.154 -3.4654  1.0844  0.1936
18766TIP3    H277714   1.578   0.463   3.297  1.8579 -0.0355 -1.5624
18767TIP3   OH277715   6.559   1.507  14.396  0.2825  0.7266 -0.6887
18767TIP3    H177716   6.567   1.490  14.302  0.4854 -1.5720 -0.3075
18767TIP3    H277717   6.612   1.439  14.437  0.6517  2.0200  1.1060
18768TIP3   OH277718   5.712   3.191  13.218  0.1446  0.6003 -0.4570
18768TIP3    H177719   5.618   3.208  13.228  0.3518  2.5223 -1.3824
18768TIP3    H277720   5.752   3.231  13.295  0.2702  0.3016 -0.3653
18769TIP3   OH277721   5.107   3.733   5.698  0.1666  0.1598 -0.0584
18769TIP3    H177722   5.050   3.805   5.670 -1.4733 -0.1585  2.2022
18769TIP3    H277723   5.128   3.754   5.789  0.2144 -1.8657  0.4357
18770TIP3   OH277724   3.483   5.705  11.415 -0.0746 -0.6304  0.4109
18770TIP3    H177725   3.457   5.638  11.478  1.9563  0.2525  2.3047
18770TIP3    H277726   3.474   5.788  11.463  2.2867  0.0015 -0.1183
18771TIP3   OH277727   3.872   2.237  13.270 -0.0682  0.4361 -0.0734
18771TIP3    H177728   3.901   2.240  13.179  0.9968 -0.0487  0.2307
18771TIP3    H277729   3.953   2.233  13.321 -0.6505 -1.2108  0.8119
18772TIP3   OH277730   1.399   4.710   6.233  0.1043 -0.5072  0.2633
18772TIP3    H177731   1.471   4.742   6.287  0.1248 -2.0695  1.2307
18772TIP3    H277732   1.348   4.654   6.292 -0.7189 -1.0916 -0.9568
18773TIP3   OH277733   1.612   5.142   2.968  0.3558  0.2516  0.4017
18773TIP3    H177734   1.544   5.075   2.959 -0.0436  0.5171  1.2700
18773TIP3    H277735   1.656   5.120   3.050 -0.7202  1.8347  1.4725
18774TIP3   OH277736   2.427   5.839  13.849  0.0536  0.5627 -0.5210
18774TIP3    H177737   2.406   5.746  13.845  0.3345  0.5063 -0.6964
18774TIP3    H277738   2.443   5.864  13.758  1.8716  0.3450 -0.3017
18775TIP3   OH277739   0.579   0.862  15.397  0.2031  0.4246  0.2330
18775TIP3    H177740   0.607   0.775  15.368 -0.0341 -0.1741  1.7193
18775TIP3    H277741   0.505   0.845  15.456 -0.3137  1.6865 -0.0135
18776TIP3   OH277742   3.805   4.999   6.528  0.1445  0.0040  0.2634
18776TIP3    H177743   3.714   5.000   6.557 -0.2172  0.1236 -0.8334
18776TIP3    H277744   3.831   5.092   6.528  0.8775 -0.1444  2.3388
18777TIP3   OH277745   5.392   2.375   2.907 -0.2275  0.0971  0.0406
18777TIP3    H177746   5.325   2.379   2.839 -1.5830 -0.4505  1.2931
18777TIP3    H277747   5.377   2.452   2.961  1.6173  1.1875 -0.9228
18778TIP3   OH277748   3.281   2.513   4.970 -0.1072 -0.6091  0.1638
18778TIP3    H177749   3.238   2.593   4.999 -0.0836 -0.5966  0.1642
18778TIP3    H277750   3.375   2.531   4.980 -0.0848 -0.4672 -0.2664
18779TIP3   OH277751   1.556   2.639  11.499  0.0640 -0.1475  0.2490
18779TIP3    H177752   1.465   2.632  11.529 -0.1507  2.1815  0.3291
18779TIP3    H277753   1.562   2.577  11.426 -0.5541 -2.9327  2.3547
18780TIP3   OH277754   6.475   3.743  14.793  0.3127  0.1732 -0.0486
18780TIP3    H177755   6.478   3.779  14.704 -0.8348 -0.7689 -0.4968
18780TIP3    H277756   6.560   3.764  14.830  1.7685 -1.5284 -2.2254
18781TIP3   OH277757   2.700   0.298   5.605  0.3734  0.0526 -0.5399
18781TIP3    H177758   2.638   0.343   5.663 -0.6226 -0.9817 -0.7746
18781TIP3    H277759   2.645   0.252   5.542  1.3834 -1.0417 -0.6507
18782TIP3   OH277760   0.231   3.976  12.642 -0.6959 -0.1106  0.5063
18782TIP3    H177761   0.247   4.057  12.594  0.3160  0.2748  1.4489
18782TIP3    H277762   0.184   4.003  12.721 -1.1951 -0.5666  0.3686
18783TIP3   OH277763   6.043   1.185  13.048  0.3499 -0.5256 -0.2305
18783TIP3    H177764   6.104   1.163  13.118 -0.9485 -0.0025  1.0943
18783TIP3    H277765   6.042   1.107  12.992  0.3793 -1.5014  1.0730
18784TIP3   OH277766   4.772   0.088  11.256  0.8782 -0.2344  0.3904
18784TIP3    H177767   4.862   0.100  11.227  0.4707  0.7134 -0.5699
18784TIP3    H277768   4.719   0.125  11.185 -0.2646 -0.6962  0.9721
18785TIP3   OH277769   4.878   1.704  17.433 -0.1854 -0.0543  0.5081
18785TIP3    H177770   4.792   1.694  17.392  0.3890  2.0487 -1.3718
18785TIP3    H277771   4.915   1.616  17.432 -2.0991 -0.9198  0.9493
18786TIP3   OH277772   0.754   1.864   1.912 -0.3024  0.4679  0.6698
18786TIP3    H177773   0.806   1.840   1.835 -1.4970  0.3841 -0.1512
18786TIP3    H277774   0.808   1.926   1.960  1.8628 -1.9088  1.5344
18787TIP3   OH277775   4.794   4.002  12.770  0.2090 -0.5016  0.2794
18787TIP3    H177776   4.755   3.992  12.683  1.3520 -3.1510 -0.0492
18787TIP3    H277777   4.877   3.955  12.765  2.0161  2.2199  1.8605
18788TIP3   OH277778   5.218   2.478   4.610  0.5701 -0.5372  0.1974
18788TIP3    H177779   5.267   2.464   4.691 -0.1403  0.2094  0.7742
18788TIP3    H277780   5.126   2.482   4.638  0.3830  0.5939 -0.5225
18789TIP3   OH277781   6.294   4.188  15.009 -0.8404  0.1379  0.1054
18789TIP3    H177782   6.325   4.099  15.021 -1.1476  0.0307  0.1115
18789TIP3    H277783   6.342   4.239  15.074  1.9621  0.6187 -2.1425
18790TIP3   OH277784   4.878   3.472   1.539  0.4485  0.1753  0.1550
18790TIP3    H177785   4.816   3.453   1.609  0.0595 -0.5640 -0.3865
18790TIP3    H277786   4.865   3.566   1.522 -1.9940 -0.3295 -1.3115
18791TIP3   OH277787   3.902   0.376  17.156 -0.4954 -0.1819 -0.3776
18791TIP3    H177788   3.890   0.424  17.074 -1.3449  0.5194  0.1410
18791TIP3    H277789   3.849   0.423  17.220  0.1783 -0.6951  0.5986
18792TIP3   OH277790   2.097   2.390   3.108 -0.2153 -0.0895 -0.0358
18792TIP3    H177791   2.083   2.391   3.013  0.3402 -0.6452 -0.1334
18792TIP3    H277792   2.127   2.478   3.129 -3.3035  1.0227  0.1206
18793TIP3   OH277793   4.246   5.988  15.101  0.1928 -0.2103 -0.1676
18793TIP3    H177794   4.235   6.015  15.010  0.7923  1.8594  0.3356
18793TIP3    H277795   4.285   5.900  15.095  0.0262 -0.2020 -1.8908
18794TIP3   OH277796   3.529   2.243   4.779  0.3827 -0.4648  0.6370
18794TIP3    H177797   3.561   2.275   4.863 -1.9067 -0.6633  1.6832
18794TIP3    H277798   3.446   2.199   4.801 -0.5120 -0.1285 -1.7767
18795TIP3   OH277799   4.822   0.485  14.884 -0.3847 -0.2228 -0.0704
18795TIP3    H177800   4.899   0.485  14.941 -1.0251  1.8481  0.8657
18795TIP3    H277801   4.829   0.566  14.833  0.0373 -1.8611 -2.8690
18796TIP3   OH277802   0.912   4.519   5.567 -0.3885 -0.1004  0.1193
18796TIP3    H177803   0.984   4.582   5.578 -1.0111  0.4352  1.3161
18796TIP3    H277804   0.897   4.517   5.472  1.6779 -0.7982 -0.2470
18797TIP3   OH277805   0.852   0.090   2.449  0.1572 -0.4305  0.3070
18797TIP3    H177806   0.850   0.162   2.386  1.2032  0.3053  1.0816
18797TIP3    H277807   0.781   0.032   2.422 -0.6047  0.8130 -0.4275
18798TIP3   OH277808   5.421   5.529  16.076  0.0904  0.1236  0.5390
18798TIP3    H177809   5.335   5.530  16.118 -0.6127 -0.9628 -0.7734
18798TIP3    H277810   5.482   5.548  16.147 -1.3242  3.2943  1.0904
18799TIP3   OH277811   4.943   3.124  15.688 -0.0276 -0.1705  0.0398
18799TIP3    H177812   4.878   3.116  15.617 -0.2153  0.1187  0.1745
18799TIP3    H277813   4.928   3.212  15.723 -1.0941 -0.9312  1.5694
18800TIP3   OH277814   6.454   4.319   6.521  0.0102 -0.2470  0.1684
18800TIP3    H177815   6.506   4.299   6.443  0.5611  1.0437  0.1787
18800TIP3    H277816   6.378   4.261   6.514  0.6201 -0.9835 -0.7156
18801TIP3   OH277817   2.259   0.527  16.795  0.0033 -0.0247 -0.2807
18801TIP3    H177818   2.277   0.620  16.780  1.3849 -0.0732  0.9257
18801TIP3    H277819   2.312   0.481  16.730  1.5707 -0.0347  0.9479
18802TIP3   OH277820   6.478   3.558  12.479 -0.3357  0.0113  0.1824
18802TIP3    H177821   6.552   3.601  12.522 -0.0760 -0.7266  0.4957
18802TIP3    H277822   6.404   3.571  12.538  0.4765 -2.8285  2.0125
18803TIP3   OH277823   4.500   3.161  11.788  0.4679  0.3785 -0.8087
18803TIP3    H177824   4.491   3.173  11.882 -0.2813  0.5316 -0.8902
18803TIP3    H277825   4.442   3.227  11.750  0.3715 -0.0165 -1.3617
18804TIP3   OH277826   0.029   0.993  14.743 -0.4790 -0.3731  0.7432
18804TIP3    H177827   0.047   1.083  14.716  0.0823 -0.4369  0.8960
18804TIP3    H277828  -0.021   0.956  14.670 -1.4942  0.3159  1.0592
18805TIP3   OH277829   6.081   1.756  13.109  0.3563 -0.3444  0.2023
18805TIP3    H177830   6.024   1.724  13.039 -0.1602 -0.0752  0.4936
18805TIP3    H277831   6.114   1.676  13.151 -1.5041 -0.5539  1.3946
18806TIP3   OH277832   3.191   1.954   2.382 -0.0049 -0.4537  0.0773
18806TIP3    H177833   3.111   1.907   2.360  0.3625 -0.2523 -1.8635
18806TIP3    H277834   3.172   2.045   2.362  0.9117 -0.4964 -1.0638
18807TIP3   OH277835   3.114   1.380   0.504 -0.3006  0.5952  0.2975
18807TIP3    H177836   3.199   1.344   0.527 -0.4180 -2.2320 -2.9693
18807TIP3    H277837   3.135   1.456   0.449  0.0580  0.4358  0.2123
18808TIP3   OH277838   1.188   3.083  16.223 -0.0240  0.0314 -0.1502
18808TIP3    H177839   1.136   3.149  16.268 -0.0813 -0.0156 -0.1481
18808TIP3    H277840   1.127   3.043  16.161 -0.1164 -0.3486  0.1822
18809TIP3   OH277841   1.051   0.818   6.165 -0.2994  0.1959 -0.4017
18809TIP3    H177842   1.137   0.838   6.129  0.2785  0.9307  1.2827
18809TIP3    H277843   1.052   0.723   6.178  1.6275  0.4709  2.6563
18810TIP3   OH277844   3.768   4.180   5.326  0.0445 -0.7756  0.8121
18810TIP3    H177845   3.759   4.186   5.231  1.3563 -2.4009  0.5413
18810TIP3    H277846   3.697   4.233   5.360 -0.2668  0.1049 -1.0739
18811TIP3   OH277847   0.210   1.425  15.528  0.7836 -0.4701  0.5590
18811TIP3    H177848   0.197   1.480  15.451  1.1556 -1.7970 -0.4924
18811TIP3    H277849   0.182   1.479  15.602 -1.3701  0.1698 -0.6582
18812TIP3   OH277850   1.014   0.338  15.208 -0.5049 -0.0091 -0.0552
18812TIP3    H177851   1.103   0.372  15.197 -0.6036  2.8050  4.9207
18812TIP3    H277852   0.958   0.414  15.193 -1.5537 -0.3204  1.9840
18813TIP3   OH277853   4.388   1.362  13.386  0.4416  0.1750  0.0776
18813TIP3    H177854   4.352   1.438  13.432 -1.7919 -0.8885  0.2023
18813TIP3    H277855   4.380   1.290  13.449  2.4394 -0.2377 -0.0745
18814TIP3   OH277856   0.512   3.678   3.543 -0.0376  0.0374 -0.5874
18814TIP3    H177857   0.578   3.684   3.611 -0.5710 -4.1624  0.6107
18814TIP3    H277858   0.493   3.768   3.518  1.2460  1.7082  3.7509
18815TIP3   OH277859   4.356   6.323  12.349 -0.1431  0.6147  0.2320
18815TIP3    H177860   4.312   6.242  12.324 -0.1120  0.9782 -1.0510
18815TIP3    H277861   4.449   6.302  12.346 -0.0975  0.9057 -0.9460
18816TIP3   OH277862   6.346   4.483   2.443  0.2306  0.8831 -0.0741
18816TIP3    H177863   6.395   4.402   2.455 -2.1676 -0.6473  0.0543
18816TIP3    H277864   6.398   4.549   2.489  1.4215 -0.9100  1.3273
18817TIP3   OH277865   6.075   3.885  10.894  0.1225 -0.0414 -0.0126
18817TIP3    H177866   6.111   3.956  10.841  1.8165 -0.4072  0.5803
18817TIP3    H277867   6.141   3.815  10.888 -0.7232 -0.9339  0.7677
18818TIP3   OH277868   5.609   3.648  13.350  0.0721  0.0543 -0.5015
18818TIP3    H177869   5.657   3.602  13.281 -0.7427 -1.4026 -0.1326
18818TIP3    H277870   5.542   3.698  13.304  2.0069  2.3601 -1.0562
18819TIP3   OH277871   1.042   3.248  16.404 -0.0958  0.5562 -0.2868
18819TIP3    H177872   1.036   3.207  16.491 -1.6281  1.3925  0.0384
18819TIP3    H277873   0.952   3.246  16.371  0.5612 -0.3152 -2.1480
18820TIP3   OH277874   5.167   6.053  15.018  0.5444 -0.2269  0.2116
18820TIP3    H177875   5.151   6.143  15.046  0.0801  0.0242 -0.8084
18820TIP3    H277876   5.092   6.004  15.053  0.5521 -0.1275  0.3695
18821TIP3   OH277877   4.410   3.862  11.468 -0.3098 -0.2757 -0.3403
18821TIP3    H177878   4.492   3.882  11.513 -0.3141  0.1576 -0.5181
18821TIP3    H277879   4.400   3.932  11.403  0.2909 -1.5302 -1.8507
18822TIP3   OH277880   2.217   5.182  13.961 -0.0530 -0.2778 -0.2617
18822TIP3    H177881   2.124   5.175  13.985 -0.6431  1.7572 -1.7224
18822TIP3    H277882   2.232   5.108  13.902 -0.1987 -1.6954  1.3834
18823TIP3   OH277883   3.043   0.750  12.150 -0.4666  0.1658 -0.4678
18823TIP3    H177884   3.130   0.753  12.191 -0.6615  1.5158 -0.0925
18823TIP3    H277885   2.983   0.736  12.223 -0.6237  0.0488 -0.6210
18824TIP3   OH277886   5.869   1.074   6.306  0.1399 -0.1638  0.4161
18824TIP3    H177887   5.776   1.097   6.310  0.1817  1.0837 -2.7181
18824TIP3    H277888   5.869   0.984   6.272  0.0107  0.3722 -1.1004
18825TIP3   OH277889   4.326   6.362  11.842  0.8370 -0.0720  0.3281
18825TIP3    H177890   4.296   6.272  11.853  0.8330 -0.0269  0.6953
18825TIP3    H277891   4.340   6.394  11.931  1.3614  0.1163  0.1811
18826TIP3   OH277892   2.259   4.549   3.848 -0.1720 -0.2676 -0.4269
18826TIP3    H177893   2.307   4.528   3.768  0.9102  0.7101 -0.0627
18826TIP3    H277894   2.262   4.644   3.853  0.9567 -0.3531  1.4625
18827TIP3   OH277895   4.260   2.335   1.802 -0.7321 -0.4226 -0.2470
18827TIP3    H177896   4.265   2.241   1.820 -2.7486 -0.6687 -0.7851
18827TIP3    H277897   4.213   2.372   1.877  1.3095  0.4325  0.6843
18828TIP3   OH277898   3.020   2.224  11.755 -0.0916 -0.0994 -0.0307
18828TIP3    H177899   3.107   2.189  11.773  0.7595  1.7985 -0.2105
18828TIP3    H277900   3.034   2.317  11.739 -2.2475  0.3940  0.5712
18829TIP3   OH277901   4.995   1.402   3.159 -0.3347 -0.5657  0.6315
18829TIP3    H177902   5.035   1.449   3.233  2.2852  0.3073 -1.1886
18829TIP3    H277903   5.000   1.310   3.184  0.6540 -0.3012  1.4860
18830TIP3   OH277904   4.121   4.610   2.262  0.4973 -0.1901 -0.2818
18830TIP3    H177905   4.190   4.617   2.196  0.3106  0.2583 -0.4379
18830TIP3    H277906   4.063   4.684   2.243  0.1817 -0.3408  0.0856
18831TIP3   OH277907   0.961   4.416   0.772  0.4063 -0.2016 -0.2257
18831TIP3    H177908   1.045   4.424   0.818  0.7154  0.2191 -0.8547
18831TIP3    H277909   0.918   4.500   0.787  0.1186 -0.3949  0.0438
18832TIP3   OH277910   2.404   6.170   2.734 -0.5132  0.2806 -0.2499
18832TIP3    H177911   2.342   6.104   2.766  1.5769 -1.1123  1.2450
18832TIP3    H277912   2.397   6.242   2.797  0.2672 -0.4627  0.7347
18833TIP3   OH277913   0.624   0.744  16.837  0.4489  0.1981 -0.4190
18833TIP3    H177914   0.566   0.793  16.778 -0.4103  0.4565  0.6162
18833TIP3    H277915   0.581   0.660  16.850  0.0649  0.5478  0.6929
18834TIP3   OH277916   5.023   3.821   0.552 -0.1233  0.3677 -0.4246
18834TIP3    H177917   4.939   3.839   0.510 -0.9542 -1.6438  0.2465
18834TIP3    H277918   5.046   3.733   0.521 -0.0152 -0.5513  2.0893
18835TIP3   OH277919   5.912   1.401  15.031 -0.1893 -0.8679 -0.0551
18835TIP3    H177920   5.892   1.495  15.029 -0.2862 -0.8858  0.1228
18835TIP3    H277921   5.997   1.396  15.075 -0.8682 -0.9851  1.2821
18836TIP3   OH277922   3.910   6.636   3.271  0.2719 -0.0168 -0.5644
18836TIP3    H177923   3.963   6.618   3.349  0.0340 -1.2918 -0.6745
18836TIP3    H277924   3.923   6.560   3.215 -1.9930 -0.5821 -0.4221
18837TIP3   OH277925   4.107   2.199  16.916 -0.3201  0.0725  0.2708
18837TIP3    H177926   4.052   2.239  16.848  1.1433  0.7617 -0.5429
18837TIP3    H277927   4.135   2.273  16.970  3.2024  0.4418 -1.8071
18838TIP3   OH277928   0.724   0.268  15.962 -0.0973 -0.0310 -0.1853
18838TIP3    H177929   0.636   0.230  15.959 -1.3139  2.3199  1.9502
18838TIP3    H277930   0.736   0.307  15.876 -1.5868  0.4328 -0.2195
18839TIP3   OH277931   4.082   4.767   2.638 -0.3075  0.7928 -0.1188
18839TIP3    H177932   4.041   4.764   2.724  1.7641  0.5422  0.9236
18839TIP3    H277933   4.114   4.857   2.629  0.7586  0.4505  0.0440
18840TIP3   OH277934   0.800   6.698   4.459  0.0828 -0.6388 -0.0036
18840TIP3    H177935   0.752   6.680   4.539  1.6593 -0.2189  1.0877
18840TIP3    H277936   0.781   6.790   4.440 -0.6778 -0.8699 -0.4110
18841TIP3   OH277937   1.623   1.077  13.580  0.2481  0.1729 -0.1549
18841TIP3    H177938   1.713   1.104  13.596 -0.0115  1.3333 -0.5500
18841TIP3    H277939   1.589   1.055  13.667  1.1436 -1.1094 -0.1036
18842TIP3   OH277940   0.240   2.481  16.663 -0.1727  0.2170 -0.2018
18842TIP3    H177941   0.331   2.451  16.662  0.4382  1.9563  0.3046
18842TIP3    H277942   0.189   2.401  16.653  1.4095 -0.7773 -0.7172
18843TIP3   OH277943   1.044   3.230  13.443  0.0855  0.3477 -0.0266
18843TIP3    H177944   1.096   3.151  13.427 -1.3748 -0.5036 -0.7628
18843TIP3    H277945   0.953   3.200  13.441 -0.4903  1.9840  0.1298
18844TIP3   OH277946   5.810   2.949  12.831  0.1236 -0.2942 -0.1934
18844TIP3    H177947   5.813   2.913  12.743  0.4139 -0.6785 -0.0299
18844TIP3    H277948   5.771   2.879  12.884  0.4944 -0.2897  0.0898
18845TIP3   OH277949   1.425   2.289  14.243 -0.1012 -0.5625 -0.0925
18845TIP3    H177950   1.471   2.275  14.161  0.9435 -0.9915  0.5502
18845TIP3    H277951   1.489   2.269  14.311 -0.7820  0.3073  0.8417
18846TIP3   OH277952   1.401   6.099   0.681  0.0552  0.0240  0.1064
18846TIP3    H177953   1.345   6.030   0.646  0.4915 -0.6730  0.7618
18846TIP3    H277954   1.456   6.125   0.607  0.1334 -0.5818 -0.0484
18847TIP3   OH277955   0.861   5.587   2.470 -0.1886 -0.0669  0.0935
18847TIP3    H177956   0.848   5.647   2.397 -0.4669  0.4303  0.5465
18847TIP3    H277957   0.782   5.533   2.471  0.1352 -0.5595 -0.4173
18848TIP3   OH277958   3.419   0.760   0.297  0.0551 -0.2078  0.6352
18848TIP3    H177959   3.388   0.670   0.281 -0.0553 -0.1211  0.3458
18848TIP3    H277960   3.352   0.799   0.353 -0.2010 -0.1200  0.2710
18849TIP3   OH277961   6.602   2.293   1.483 -0.2335  0.0530 -0.2673
18849TIP3    H177962   6.663   2.272   1.413 -1.1542 -0.7421 -0.8610
18849TIP3    H277963   6.537   2.222   1.481 -0.5364  0.2525  1.0945
18850TIP3   OH277964   5.862   2.652   5.495 -0.2430  0.2123 -0.2627
18850TIP3    H177965   5.828   2.633   5.407  0.8827 -1.3428 -0.4229
18850TIP3    H277966   5.811   2.726   5.526 -2.2114 -0.6338 -1.3321
18851TIP3   OH277967   0.239   1.532   1.206 -0.5245 -0.1669  0.5293
18851TIP3    H177968   0.294   1.507   1.279  0.9282  3.6004  0.9434
18851TIP3    H277969   0.290   1.510   1.128 -0.0368  0.0335  0.7934
18852TIP3   OH277970   2.804   3.118   1.916 -0.6178 -0.3019 -0.5869
18852TIP3    H177971   2.772   3.035   1.950  1.4134 -0.4702  1.1483
18852TIP3    H277972   2.838   3.097   1.829 -0.0716 -1.3380 -0.1417
18853TIP3   OH277973   5.026   5.886   5.340 -0.5836  0.6054 -0.4237
18853TIP3    H177974   5.081   5.958   5.372  1.0345 -1.0333  0.7194
18853TIP3    H277975   5.013   5.830   5.416 -1.1883 -0.6894 -1.4399
18854TIP3   OH277976   4.009   4.354   0.537 -0.1912  0.4152  0.2786
18854TIP3    H177977   4.093   4.309   0.530  0.6053  1.5350  2.0232
18854TIP3    H277978   4.028   4.445   0.518 -1.1225  0.6167  0.2374
18855TIP3   OH277979   6.640   5.063   0.972  0.3229 -0.0372  0.0355
18855TIP3    H177980   6.717   5.040   0.921 -0.3131 -2.3855 -0.0027
18855TIP3    H277981   6.665   5.143   1.019  2.3257 -0.0611 -0.8841
18856TIP3   OH277982   5.843   0.118  14.081 -0.1023 -0.1113  0.0068
18856TIP3    H177983   5.886   0.033  14.090 -0.5315 -0.3279  0.0309
18856TIP3    H277984   5.902   0.168  14.025 -0.7053 -1.0300 -1.5212
18857TIP3   OH277985   0.832   2.310  16.391  0.0749 -0.2130  0.2025
18857TIP3    H177986   0.922   2.283  16.408  0.9527  2.2892 -0.1008
18857TIP3    H277987   0.811   2.370  16.463 -1.2377 -0.5293  0.1005
18858TIP3   OH277988   6.283   2.819  15.146 -0.4540  0.1271  0.1309
18858TIP3    H177989   6.196   2.835  15.183 -1.2578 -1.5840 -0.8832
18858TIP3    H277990   6.271   2.830  15.052  0.2859 -0.6752 -0.0682
18859TIP3   OH277991   6.727   0.892   0.259  0.0965 -0.3274 -0.5056
18859TIP3    H177992   6.639   0.926   0.246  0.1024  0.4953  1.2212
18859TIP3    H277993   6.761   0.875   0.171 -1.2296  0.7821 -1.2556
18860TIP3   OH277994   2.535   3.890   3.782 -0.2689  0.1715  0.5708
18860TIP3    H177995   2.494   3.968   3.743  2.1898  0.6180 -1.3718
18860TIP3    H277996   2.487   3.817   3.745  0.4722  0.6850 -1.5464
18861TIP3   OH277997   4.812   5.980  14.145 -0.3427 -0.2906 -0.6386
18861TIP3    H177998   4.887   5.935  14.105  1.0648  0.4382  1.0514
18861TIP3    H277999   4.824   5.967  14.239 -2.4470 -0.2688 -0.3267
18862TIP3   OH278000   1.093   2.112   0.354  0.1238 -0.0309  0.6155
18862TIP3    H178001   1.063   2.169   0.424 -0.3774 -0.6144  0.8906
18862TIP3    H278002   1.038   2.135   0.279 -0.1367 -0.2123  0.7510
18863TIP3   OH278003   4.609   2.210  15.272 -0.1396 -0.2294  0.7305
18863TIP3    H178004   4.533   2.177  15.224  0.0983  0.0911  0.1109
18863TIP3    H278005   4.666   2.133  15.283  0.7480  0.0630 -1.3500
18864TIP3   OH278006   4.779   5.442   5.132  0.2594  0.1211 -0.1375
18864TIP3    H178007   4.715   5.398   5.189  0.7499 -0.8193 -0.2843
18864TIP3    H278008   4.863   5.400   5.153  0.8881  1.5056  0.2321
18865TIP3   OH278009   5.945   3.961  14.277  0.4348 -0.0856  0.3629
18865TIP3    H178010   5.968   3.949  14.185  0.1564  1.7547  0.0237
18865TIP3    H278011   5.855   3.993  14.275 -0.3523 -2.0725  1.4174
18866TIP3   OH278012   4.825   0.989  17.281  0.1201  0.3041  0.4760
18866TIP3    H178013   4.872   1.013  17.201  1.8029  0.1773  1.3863
18866TIP3    H278014   4.849   0.898  17.296  0.1576  0.4539  1.3497
18867TIP3   OH278015   6.433   6.715   4.121  0.8761  0.2209 -0.2370
18867TIP3    H178016   6.472   6.705   4.034 -2.5321 -0.0430 -1.9013
18867TIP3    H278017   6.363   6.650   4.123 -0.8065  1.9613  1.6783
18868TIP3   OH278018   6.561   2.141   0.639  0.7827  0.0856 -0.2984
18868TIP3    H178019   6.580   2.125   0.731  0.3416 -0.9980 -0.3859
18868TIP3    H278020   6.629   2.094   0.591  1.3354  1.0949 -0.5353
18869TIP3   OH278021   3.940   4.528  11.384  0.0545  0.4403 -0.3612
18869TIP3    H178022   3.861   4.495  11.426  2.1045 -1.7353  2.2231
18869TIP3    H278023   3.970   4.599  11.441  0.3930  0.7261 -0.8830
18870TIP3   OH278024   4.229   4.120   1.906 -0.3463  0.6967 -0.3649
18870TIP3    H178025   4.259   4.037   1.869 -0.4654 -0.7429  2.4836
18870TIP3    H278026   4.251   4.185   1.840 -0.1079 -1.5513 -2.6548
18871TIP3   OH278027   1.243   0.267  14.087  0.5501 -0.4567  0.0469
18871TIP3    H178028   1.152   0.282  14.114  0.8209 -1.0535  1.3845
18871TIP3    H278029   1.273   0.352  14.055 -0.7613 -0.4793 -1.3514
18872TIP3   OH278030   1.299   1.441  15.738 -0.0093 -0.4269  0.2731
18872TIP3    H178031   1.228   1.384  15.711  0.2907 -0.8981  0.4694
18872TIP3    H278032   1.369   1.382  15.765  1.3576 -0.0084 -2.1408
18873TIP3   OH278033   3.187   3.119   1.580  0.5621  0.2187 -0.0964
18873TIP3    H178034   3.219   3.058   1.514  0.7298 -0.3178  0.4776
18873TIP3    H278035   3.250   3.113   1.652  0.3476  0.7514  0.1485
18874TIP3   OH278036   3.398   3.634  15.627  0.3346 -0.3180  0.2104
18874TIP3    H178037   3.482   3.600  15.658  1.0914  1.5601  0.3470
18874TIP3    H278038   3.402   3.626  15.532  1.2080  0.8592  0.1244
18875TIP3   OH278039   5.566   0.459  11.004 -0.1868 -0.1309  0.0311
18875TIP3    H178040   5.517   0.422  10.930  0.9839 -2.0174  0.1418
18875TIP3    H278041   5.577   0.386  11.065  0.6210  0.8857  1.1455
18876TIP3   OH278042   4.272   2.579   3.621  0.2903  0.0597 -0.1672
18876TIP3    H178043   4.293   2.665   3.585  0.3473 -0.1336 -0.6109
18876TIP3    H278044   4.333   2.567   3.694  0.5378  0.2371 -0.3431
18877TIP3   OH278045   4.943   3.533  17.378  0.0875 -0.2350 -0.0010
18877TIP3    H178046   4.974   3.597  17.442  1.5329 -1.0181  0.1300
18877TIP3    H278047   4.995   3.550  17.299  0.3944 -1.1197 -0.0094
18878TIP3   OH278048   3.757   4.821   6.025  0.1732  0.3912  0.1744
18878TIP3    H178049   3.787   4.849   5.939 -0.1301  2.3753  0.6546
18878TIP3    H278050   3.809   4.873   6.087 -1.0207  0.5205  1.1223
18879TIP3   OH278051   6.649   2.690  11.837  0.6423 -0.4179  0.1196
18879TIP3    H178052   6.709   2.637  11.890  2.0673 -0.3036 -1.3018
18879TIP3    H278053   6.704   2.761  11.803 -0.6039  0.4200 -0.2157
18880TIP3   OH278054   3.254   1.011  14.486 -0.4884 -0.6220  0.2862
18880TIP3    H178055   3.339   0.978  14.516 -0.1181  0.7542  0.8082
18880TIP3    H278056   3.190   0.962  14.538  0.0137 -1.1156  0.4509
18881TIP3   OH278057   3.229   5.406   3.639 -0.4589 -0.4649  0.9552
18881TIP3    H178058   3.214   5.409   3.545 -0.2929 -1.2115  0.9049
18881TIP3    H278059   3.160   5.349   3.674  0.0855 -1.0106  1.1552
18882TIP3   OH278060   4.319   3.265  10.996  0.0253 -0.2748  0.7847
18882TIP3    H178061   4.338   3.173  10.976 -1.4121  0.0333 -2.7348
18882TIP3    H278062   4.238   3.262  11.047 -2.0183 -1.0543 -2.2055
18883TIP3   OH278063   4.640   1.223  13.939  1.1739  0.4042 -0.5323
18883TIP3    H178064   4.590   1.146  13.965  0.7034  1.4823  2.0271
18883TIP3    H278065   4.586   1.264  13.871 -1.1856  1.1209  1.6128
18884TIP3   OH278066   6.459   6.181   0.237  0.1924 -0.0370 -0.2225
18884TIP3    H178067   6.509   6.230   0.172 -1.9578  1.3285 -0.9411
18884TIP3    H278068   6.447   6.094   0.197  1.0593 -0.0476 -0.4863
18885TIP3   OH278069   1.773   6.695  15.375  0.6839 -0.3858  0.1089
18885TIP3    H178070   1.698   6.667  15.427  1.1523 -3.3052 -0.6244
18885TIP3    H278071   1.849   6.657  15.418  1.0591 -3.3108 -2.7494
18886TIP3   OH278072   1.566   4.123   4.571 -0.4529 -0.2972  0.9438
18886TIP3    H178073   1.513   4.202   4.579 -0.3382 -0.1737  0.4764
18886TIP3    H278074   1.640   4.149   4.516  0.5766 -0.2175  2.3148
18887TIP3   OH278075   3.584   0.083   0.900 -0.1702 -0.3127 -0.7201
18887TIP3    H178076   3.659   0.140   0.918 -1.2144  0.8355  0.1786
18887TIP3    H278077   3.556   0.052   0.986 -1.2924  0.0534 -0.9298
18888TIP3   OH278078   4.551   5.812  12.082  0.0972 -0.5095  0.2574
18888TIP3    H178079   4.577   5.806  11.990  0.3234 -2.1328  0.3995
18888TIP3    H278080   4.550   5.906  12.100  1.0414 -0.1969 -1.1169
18889TIP3   OH278081   5.976   1.682  15.326  0.0867  0.0299  0.9713
18889TIP3    H178082   6.059   1.664  15.282  0.0619 -2.7009  1.8938
18889TIP3    H278083   5.910   1.648  15.266 -0.3155  0.8823  0.9081
18890TIP3   OH278084   2.399   6.322  11.703 -0.0662 -0.3569  0.1724
18890TIP3    H178085   2.317   6.333  11.751 -0.1266  0.3434 -0.0883
18890TIP3    H278086   2.428   6.411  11.685  1.6856 -0.5269  1.8337
18891TIP3   OH278087   1.085   0.332   4.933  0.6780  0.0703  0.0501
18891TIP3    H178088   0.989   0.329   4.937  0.7283 -0.7431  1.7333
18891TIP3    H278089   1.105   0.411   4.883 -0.8634 -0.3368 -1.2770
18892TIP3   OH278090   3.724   5.096  13.756 -0.3590  0.0494 -0.1522
18892TIP3    H178091   3.795   5.037  13.732  0.1270  0.3792  0.4405
18892TIP3    H278092   3.659   5.087  13.686 -0.5188 -1.5443  0.1825
18893TIP3   OH278093   4.729   3.392  13.463  0.2649  0.2293 -0.2064
18893TIP3    H178094   4.711   3.327  13.395  0.6571 -0.3521  0.2419
18893TIP3    H278095   4.779   3.460  13.418 -0.1089  0.2022 -0.6673
18894TIP3   OH278096   1.944   6.726   3.412 -0.4915 -0.1315  0.0285
18894TIP3    H178097   1.934   6.732   3.317  0.1942  1.2048  0.0176
18894TIP3    H278098   2.024   6.675   3.424 -0.2032  0.2782 -0.1326
18895TIP3   OH278099   0.765   5.813   6.061 -0.5062 -0.5177  0.2749
18895TIP3    H178100   0.807   5.854   5.986  1.2018 -1.4583  0.6570
18895TIP3    H278101   0.691   5.869   6.082  0.1667  0.8413 -0.8735
18896TIP3   OH278102   5.658   1.625  13.950  0.5419  0.0360  0.1339
18896TIP3    H178103   5.609   1.696  13.990 -0.1356 -0.1848 -0.2740
18896TIP3    H278104   5.636   1.548  14.003 -0.1888 -0.2149 -0.5142
18897TIP3   OH278105   3.750   4.111  15.990  0.3126 -0.1721  1.2983
18897TIP3    H178106   3.706   4.097  15.907  0.8401 -1.0668  1.1498
18897TIP3    H278107   3.723   4.036  16.044 -1.0820  1.0699  2.4180
18898TIP3   OH278108   0.498   2.165   3.894  0.0192  0.1643 -0.1655
18898TIP3    H178109   0.533   2.176   3.805  0.9135 -0.4961  0.0960
18898TIP3    H278110   0.513   2.250   3.936 -0.4814  0.5064 -0.6546
18899TIP3   OH278111   5.696   3.475   2.672 -0.3262  0.6578  0.5960
18899TIP3    H178112   5.678   3.495   2.581  0.3589 -1.5785 -0.0968
18899TIP3    H278113   5.624   3.515   2.721 -0.9656  1.4676 -0.9478
18900TIP3   OH278114   0.750   6.502  16.456  0.3269 -0.0220 -0.1091
18900TIP3    H178115   0.676   6.447  16.431  0.1613  0.3600 -0.4583
18900TIP3    H278116   0.711   6.577  16.500  0.5445 -0.1039  0.2280
18901TIP3   OH278117   3.540   0.015  11.690 -0.0997  0.3500 -0.5811
18901TIP3    H178118   3.630  -0.016  11.685  0.7513  2.6308 -0.8826
18901TIP3    H278119   3.508   0.014  11.600  0.0240  0.5618 -0.6287
18902TIP3   OH278120   1.677   4.992  13.984 -0.6550 -0.1810 -0.2650
18902TIP3    H178121   1.772   4.997  13.994 -0.6624 -1.9257  1.2433
18902TIP3    H278122   1.643   5.011  14.071 -1.6353 -0.3732 -0.5950
18903TIP3   OH278123   2.233   2.653  14.487 -0.0567 -0.5102 -0.2144
18903TIP3    H178124   2.197   2.687  14.569 -1.8694 -1.8783 -0.3853
18903TIP3    H278125   2.239   2.559  14.500  2.2827 -0.4696 -0.7072
18904TIP3   OH278126   6.542   0.338   1.821 -0.2288  0.4738  0.0812
18904TIP3    H178127   6.598   0.300   1.754 -1.7732  1.0253 -1.5884
18904TIP3    H278128   6.595   0.407   1.860  0.9206 -0.2816 -0.1106
18905TIP3   OH278129   5.659   3.891   0.299  0.0180 -0.1430  0.1479
18905TIP3    H178130   5.589   3.885   0.365  0.9003  2.1580  1.3991
18905TIP3    H278131   5.740   3.896   0.350  1.0883 -2.0550 -1.2614
18906TIP3   OH278132   0.293   3.037  17.196  0.2595  0.4245 -0.1200
18906TIP3    H178133   0.203   3.009  17.179  0.0001  1.0219  0.2285
18906TIP3    H278134   0.314   2.999  17.281  1.1495 -1.5923 -1.1541
18907TIP3   OH278135   2.987   2.772   1.125  0.6423  0.5433  0.2493
18907TIP3    H178136   3.056   2.758   1.059  0.6818 -0.1342  0.4294
18907TIP3    H278137   3.022   2.733   1.205  0.1284  0.3721  0.3948
18908TIP3   OH278138   6.496   4.746   1.956  0.4981  0.4374  0.9102
18908TIP3    H178139   6.582   4.738   1.996 -0.1276 -1.1171  2.0026
18908TIP3    H278140   6.436   4.703   2.017 -0.9492  0.7963 -0.1938
18909TIP3   OH278141   6.231   0.492  12.236 -0.0573  0.5822  0.1653
18909TIP3    H178142   6.166   0.562  12.247 -1.0874 -0.4218  0.6802
18909TIP3    H278143   6.260   0.501  12.146  0.8607  2.5203  0.5952
18910TIP3   OH278144   5.466   6.255  13.692  0.1216 -0.0701  0.1514
18910TIP3    H178145   5.441   6.264  13.600 -2.8361  0.0723  0.8708
18910TIP3    H278146   5.546   6.308  13.700  0.3715  0.0628 -2.2490
18911TIP3   OH278147   1.394   2.589  14.539  0.0060  0.4619 -0.4425
18911TIP3    H178148   1.317   2.578  14.484  0.4164 -0.0028 -0.9307
18911TIP3    H278149   1.372   2.546  14.621 -0.6308  1.2109 -0.2064
18912TIP3   OH278150   6.008   3.691  16.051 -0.1415  0.0219  0.3321
18912TIP3    H178151   6.006   3.760  16.117 -1.3339  1.0583 -0.7101
18912TIP3    H278152   5.916   3.664  16.042  0.1059 -0.6383 -0.3446
18913TIP3   OH278153   2.779   2.702   5.997  0.0217  0.0370  0.4035
18913TIP3    H178154   2.702   2.667   6.043 -0.3680 -1.0910 -1.0263
18913TIP3    H278155   2.837   2.731   6.067 -2.0862  1.8370  1.5242
18914TIP3   OH278156   0.351   4.302  13.814 -0.2872  0.0628 -0.3932
18914TIP3    H178157   0.267   4.259  13.802  0.1809 -0.4309 -2.1246
18914TIP3    H278158   0.364   4.354  13.735  1.0721  0.0820 -0.1928
18915TIP3   OH278159   6.294   3.626   5.508 -0.0331 -0.0256 -0.3048
18915TIP3    H178160   6.362   3.653   5.570  0.1705  0.8747 -0.9050
18915TIP3    H278161   6.217   3.611   5.563 -0.6920  3.5194 -0.0061
18916TIP3   OH278162   2.654   2.618   0.435  0.0635 -0.2022 -0.0047
18916TIP3    H178163   2.646   2.552   0.504 -1.9472 -0.3307 -0.3010
18916TIP3    H278164   2.610   2.695   0.470 -0.7720 -0.1937 -1.0236
18917TIP3   OH278165   1.527   6.608  12.562 -0.6424  0.1505  0.3244
18917TIP3    H178166   1.513   6.570  12.649  0.2763 -0.7144  0.1109
18917TIP3    H278167   1.576   6.542  12.514  0.3126  1.2762 -0.3233
18918TIP3   OH278168   1.637   1.730  15.187  0.5101  0.0818  0.2370
18918TIP3    H178169   1.548   1.744  15.219  0.3750 -0.7136  0.2351
18918TIP3    H278170   1.686   1.806  15.218  0.0537  0.0447  1.0686
18919TIP3   OH278171   4.893   5.350  17.292  0.7766  0.1442 -0.2173
18919TIP3    H178172   4.983   5.323  17.276  1.0400  0.9606 -0.1467
18919TIP3    H278173   4.899   5.442  17.317  0.1188 -0.3151  1.8220
18920TIP3   OH278174   6.624   4.869   3.009 -0.3305  0.3026 -0.2908
18920TIP3    H178175   6.620   4.826   3.094  0.2530 -0.0226 -0.4199
18920TIP3    H278176   6.567   4.817   2.952  0.5937 -0.5020 -0.5207
18921TIP3   OH278177   0.563   2.773   2.452  0.1354  0.2056  0.3049
18921TIP3    H178178   0.616   2.694   2.463  0.4473  0.0768 -1.6663
18921TIP3    H278179   0.547   2.777   2.358 -1.9540  1.1702  0.6547
18922TIP3   OH278180   0.847   4.328  11.520  0.1256  0.1726  0.0631
18922TIP3    H178181   0.866   4.411  11.476  0.2242 -0.0425 -0.3072
18922TIP3    H278182   0.751   4.326  11.525  0.1510  1.6178  2.6390
18923TIP3   OH278183   1.561   0.224   3.554  0.1076 -0.6144 -0.0935
18923TIP3    H178184   1.540   0.152   3.495 -0.8972 -0.5497  0.1613
18923TIP3    H278185   1.552   0.187   3.642 -0.5502 -0.1522  0.0422
18924TIP3   OH278186   0.040   1.201  15.489 -0.0138 -0.1723  0.4215
18924TIP3    H178187   0.064   1.122  15.537 -1.4158 -2.2431 -2.0530
18924TIP3    H278188   0.110   1.263  15.508  0.6698 -1.6320  3.1819
18925TIP3   OH278189   0.444   4.002  13.558 -0.0230 -0.2743 -0.2540
18925TIP3    H178190   0.536   4.029  13.550 -0.0029 -0.1627  0.3282
18925TIP3    H278191   0.401   4.039  13.481  0.6862 -1.4683 -1.2699
18926TIP3   OH278192   0.148   6.069  14.598  0.1565  0.1005 -0.3155
18926TIP3    H178193   0.237   6.059  14.563  0.2957  0.1438  0.0167
18926TIP3    H278194   0.126   5.981  14.631  0.1969  0.1615 -0.1233
18927TIP3   OH278195   2.863   4.548  17.118  0.2932  0.4498 -0.0899
18927TIP3    H178196   2.803   4.543  17.192  0.2555 -2.2960 -0.2013
18927TIP3    H278197   2.930   4.612  17.145 -0.0894  0.0165  2.0276
18928TIP3   OH278198   2.640   5.684   4.166  0.4897  0.1202  0.3616
18928TIP3    H178199   2.634   5.669   4.071  0.0849  1.4994  0.1523
18928TIP3    H278200   2.728   5.720   4.178  1.3980 -2.1127  0.8403
18929TIP3   OH278201   4.950   2.965   6.526  0.3999  0.3242 -0.1227
18929TIP3    H178202   4.977   2.974   6.434 -0.8690  0.6044 -0.4898
18929TIP3    H278203   4.860   2.998   6.527  0.2755 -0.0287  1.1577
18930TIP3   OH278204   4.632   4.497  16.816 -0.0951 -0.3374 -0.4339
18930TIP3    H178205   4.657   4.566  16.877  1.7194 -0.6089 -0.8205
18930TIP3    H278206   4.643   4.536  16.729  0.2638 -0.8759 -0.6374
18931TIP3   OH278207   0.767   1.905  15.417  0.3742  0.1773  0.1712
18931TIP3    H178208   0.822   1.963  15.471 -1.4014  2.6101 -0.4818
18931TIP3    H278209   0.701   1.871  15.478  0.4613  0.0991  0.2225
18932TIP3   OH278210   0.945   1.421   5.727  0.3513  0.0285  0.1520
18932TIP3    H178211   0.919   1.510   5.702  1.1021  0.1217 -0.3301
18932TIP3    H278212   0.877   1.393   5.789  0.1551  0.9661  0.3799
18933TIP3   OH278213   0.396   5.164   4.810 -0.0368  0.4570  0.1930
18933TIP3    H178214   0.333   5.112   4.860 -1.5055  1.3087 -0.7309
18933TIP3    H278215   0.366   5.254   4.819 -0.3420  0.6504 -2.1752
18934TIP3   OH278216   1.698   5.321  13.448  0.3456 -0.3053  0.4113
18934TIP3    H178217   1.645   5.366  13.383 -1.2311 -1.7420  0.6259
18934TIP3    H278218   1.683   5.369  13.529  0.4590  0.0917  0.2002
18935TIP3   OH278219   5.652   6.262   3.054 -0.2351 -0.0876  0.3090
18935TIP3    H178220   5.647   6.350   3.092 -0.3663  0.6219 -1.2831
18935TIP3    H278221   5.632   6.204   3.127  2.2820  1.0291  2.0368
18936TIP3   OH278222   2.772   1.895  11.412  0.4579 -0.0933 -0.5009
18936TIP3    H178223   2.696   1.946  11.441  0.0958 -0.8563 -0.0878
18936TIP3    H278224   2.845   1.957  11.415 -0.0192  0.4643 -0.2407
18937TIP3   OH278225   3.354   0.210   4.954 -0.3247 -0.1713 -0.6952
18937TIP3    H178226   3.394   0.153   4.888 -0.8803 -0.2682 -0.9513
18937TIP3    H278227   3.276   0.162   4.983 -0.7755  0.4406 -0.8870
18938TIP3   OH278228   4.552   1.801   2.139  0.3896  0.7343 -0.1802
18938TIP3    H178229   4.591   1.883   2.109  0.0292  1.7454  1.9321
18938TIP3    H278230   4.478   1.787   2.080  2.3551  0.0936 -2.6809
18939TIP3   OH278231   3.370   2.224  16.002 -0.2171 -0.5921 -0.1493
18939TIP3    H178232   3.389   2.170  15.926  0.2279 -0.0258 -0.4488
18939TIP3    H278233   3.280   2.253  15.989  0.0908  0.0975 -0.8444
18940TIP3   OH278234   4.648   4.000  16.197 -0.0633  0.4033 -0.1256
18940TIP3    H178235   4.662   3.906  16.184  2.7010  0.5170  1.3554
18940TIP3    H278236   4.582   4.005  16.265 -1.1273 -0.4046 -1.0570
18941TIP3   OH278237   5.716   1.337  14.725  0.3217 -0.2626  0.5167
18941TIP3    H178238   5.801   1.373  14.701  0.7734 -2.5745 -1.7922
18941TIP3    H278239   5.653   1.391  14.678  0.7263 -0.3328 -0.1121
18942TIP3   OH278240   4.223   5.236  15.935  0.4341  0.3452  0.4656
18942TIP3    H178241   4.311   5.198  15.933 -0.3941 -2.2609 -4.5142
18942TIP3    H278242   4.233   5.323  15.897  0.9240 -0.0224 -0.2826
18943TIP3   OH278243   1.068   1.473   5.065 -0.0201  0.6787  0.6686
18943TIP3    H178244   1.042   1.503   5.152 -0.6919  0.7295  0.4528
18943TIP3    H278245   1.141   1.529   5.041  0.4314  0.4062  1.3644
18944TIP3   OH278246   3.202   1.500  10.912 -0.6472 -0.4278  0.0977
18944TIP3    H178247   3.265   1.525  10.979 -0.2825  0.4178 -0.5357
18944TIP3    H278248   3.132   1.565  10.919 -0.2569  0.1185 -0.7942
18945TIP3   OH278249   2.090   2.098  13.735 -0.0939  0.1797  0.1597
18945TIP3    H178250   2.167   2.044  13.721 -1.2603 -1.3017 -0.8549
18945TIP3    H278251   2.077   2.097  13.830  0.0606 -1.1264  0.1795
18946TIP3   OH278252   1.913   6.750   4.619  0.0037  0.0860  0.4313
18946TIP3    H178253   1.958   6.675   4.582 -0.3804  0.2798 -0.4529
18946TIP3    H278254   1.844   6.771   4.556  0.1563  1.2285  0.6164
18947TIP3   OH278255   4.393   0.963  12.092  0.0216  0.2169  0.4168
18947TIP3    H178256   4.348   0.996  12.013 -2.5378 -1.3691  1.0843
18947TIP3    H278257   4.415   0.873  12.071 -0.4668 -0.1475  1.3899
18948TIP3   OH278258   5.566   1.160  14.471 -0.4302  0.1352 -0.2951
18948TIP3    H178259   5.607   1.194  14.550  1.5554 -1.1029 -0.7392
18948TIP3    H278260   5.514   1.085  14.501 -0.6777  0.4238 -0.0016
18949TIP3   OH278261   5.514   0.792  16.324 -0.9442 -0.8108 -0.1740
18949TIP3    H178262   5.540   0.863  16.265 -0.0901 -1.5191 -0.6765
18949TIP3    H278263   5.461   0.835  16.391  2.1996  0.9954  1.4319
18950TIP3   OH278264   1.742   6.339  16.327  0.0797  0.4890 -0.1633
18950TIP3    H178265   1.665   6.282  16.335 -1.3517  2.5417  1.9346
18950TIP3    H278266   1.708   6.420  16.289  1.0072  1.6502  1.3598
18951TIP3   OH278267   5.352   6.223   3.680  0.3902 -0.2419  0.2205
18951TIP3    H178268   5.375   6.130   3.684 -3.0730 -1.2230  0.4709
18951TIP3    H278269   5.341   6.241   3.587  0.6667 -0.1796  0.1987
18952TIP3   OH278270   6.149   1.809  13.416  0.1636  0.6922  0.2010
18952TIP3    H178271   6.141   1.859  13.497 -2.5892  1.2259 -0.2953
18952TIP3    H278272   6.229   1.841  13.376  0.6161  1.7214  1.8399
18953TIP3   OH278273   0.671   5.052  11.975 -0.0173  0.4109 -0.9951
18953TIP3    H178274   0.708   5.140  11.983  1.3507 -0.1932 -0.5364
18953TIP3    H278275   0.685   5.028  11.884  1.9648 -0.3165 -0.5486
18954TIP3   OH278276   3.852   5.716   3.365  0.5132  0.3456 -0.1559
18954TIP3    H178277   3.878   5.807   3.375  2.5092 -0.2281  0.2377
18954TIP3    H278278   3.877   5.675   3.448 -1.7962 -0.2782  0.2962
18955TIP3   OH278279   0.043   0.827   6.583 -0.1415  0.6217 -0.2479
18955TIP3    H178280   0.113   0.774   6.622 -0.0727 -0.0447 -1.2394
18955TIP3    H278281   0.050   0.912   6.627  1.8932  0.8692 -0.9092
18956TIP3   OH278282   2.520   4.948   3.454  0.1041  0.2272 -0.1658
18956TIP3    H178283   2.484   4.919   3.538  2.0156 -2.4893 -0.1477
18956TIP3    H278284   2.516   4.870   3.398  3.6716  0.3671 -0.8544
18957TIP3   OH278285   6.430   3.801   2.593 -0.1253  0.1554 -0.3666
18957TIP3    H178286   6.469   3.727   2.639 -1.9243 -0.8778 -0.3798
18957TIP3    H278287   6.461   3.792   2.503 -0.6765 -0.8971 -0.4764
18958TIP3   OH278288   6.206   6.672   5.517  0.2115  0.2791 -0.6508
18958TIP3    H178289   6.249   6.703   5.597  0.5307 -2.4217  0.3429
18958TIP3    H278290   6.113   6.681   5.535  0.2800 -0.3327  0.0945
18959TIP3   OH278291   4.654   4.767  16.172 -0.3495  0.1117  0.3796
18959TIP3    H178292   4.739   4.803  16.145  0.3018 -0.9391  0.9840
18959TIP3    H278293   4.608   4.752  16.089 -0.2199  1.3024  0.0729
18960TIP3   OH278294   2.763   0.927   6.536  0.1877 -0.7985 -0.6513
18960TIP3    H178295   2.773   0.928   6.631 -0.5784 -1.4375 -0.5574
18960TIP3    H278296   2.686   0.982   6.520  0.1880 -0.8654 -0.8827
18961TIP3   OH278297   0.869   2.956   0.929  0.2498  0.6365 -0.9351
18961TIP3    H178298   0.808   2.900   0.976  0.4763  2.5741  1.9464
18961TIP3    H278299   0.817   2.997   0.860 -0.4091 -1.3700 -1.7146
18962TIP3   OH278300   3.483   3.374  11.427  0.4537  0.0297  0.0571
18962TIP3    H178301   3.482   3.301  11.488  1.3300  0.2047  0.2957
18962TIP3    H278302   3.551   3.352  11.363 -0.3761 -0.1017 -0.8037
18963TIP3   OH278303   2.144   6.525  16.323 -0.0660 -0.2000 -0.1788
18963TIP3    H178304   2.193   6.602  16.295  0.8962 -0.4286  0.7998
18963TIP3    H278305   2.069   6.560  16.372  0.9408  0.1359  1.1930
18964TIP3   OH278306   4.863   6.384  12.930  0.0468  0.1059  0.3547
18964TIP3    H178307   4.867   6.476  12.906  2.3725 -0.3785 -1.4769
18964TIP3    H278308   4.908   6.379  13.014 -1.8689  0.8411  1.4957
18965TIP3   OH278309   6.662   0.521   0.308 -0.1253  0.2432 -0.5963
18965TIP3    H178310   6.643   0.580   0.381  1.5945  1.9169 -1.4392
18965TIP3    H278311   6.587   0.531   0.249 -0.9990 -0.2892  0.3915
18966TIP3   OH278312   5.716   0.543  17.409 -0.2113 -0.6054 -0.3042
18966TIP3    H178313   5.733   0.522  17.317  0.7337 -0.8628 -0.0764
18966TIP3    H278314   5.763   0.625  17.424 -1.2879  0.0395 -0.3372
18967TIP3   OH278315   0.996   4.249   5.621 -0.4120  0.3654 -0.1482
18967TIP3    H178316   0.958   4.335   5.604 -0.2642  0.2343 -1.2320
18967TIP3    H278317   0.920   4.190   5.624 -0.7003  0.7530  2.4496
18968TIP3   OH278318   0.609   5.174  14.942  0.1612 -0.4117 -0.4821
18968TIP3    H178319   0.520   5.205  14.922 -0.0469 -0.6800 -0.0018
18968TIP3    H278320   0.596   5.083  14.971  0.4995 -0.2099  0.3262
18969TIP3   OH278321   3.110   1.143   1.007  0.6871  0.0110  0.5828
18969TIP3    H178322   3.189   1.189   1.037  1.8639 -0.5111 -1.5587
18969TIP3    H278323   3.090   1.083   1.078  2.8935 -0.6231  0.7623
18970TIP3   OH278324   5.761   2.492   4.812  0.2108 -0.1774 -0.2126
18970TIP3    H178325   5.682   2.528   4.773  1.3094  2.3643 -0.3178
18970TIP3    H278326   5.832   2.529   4.760  1.5149 -1.5290  0.5272
18971TIP3   OH278327   0.503   6.599  13.783  0.0416 -0.2753 -0.0238
18971TIP3    H178328   0.564   6.560  13.720  0.1520  0.0528 -0.1205
18971TIP3    H278329   0.517   6.550  13.864 -0.2099 -0.8083 -0.2925
18972TIP3   OH278330   3.511   1.957   1.209  0.3099 -0.0626  0.2309
18972TIP3    H178331   3.453   2.033   1.208  0.5083  0.1781  2.3400
18972TIP3    H278332   3.529   1.941   1.302 -1.3889 -3.9555  0.1087
18973TIP3   OH278333   4.763   4.492  15.822 -0.5765 -0.1218  0.2980
18973TIP3    H178334   4.681   4.497  15.871  0.9908 -1.4074  3.3829
18973TIP3    H278335   4.826   4.539  15.876  1.1887 -1.1811 -0.7348
18974TIP3   OH278336   3.407   5.595   0.823  0.0287 -0.1972  0.1785
18974TIP3    H178337   3.496   5.629   0.833  0.8212 -2.1180  0.0280
18974TIP3    H278338   3.416   5.500   0.827 -1.8190 -0.5243 -1.4277
18975TIP3   OH278339   6.617   2.206  12.130 -0.0291 -0.4468 -0.4164
18975TIP3    H178340   6.616   2.223  12.036 -1.5800  1.8473 -0.0738
18975TIP3    H278341   6.524   2.208  12.155  0.4002 -0.2373  1.2500
18976TIP3   OH278342   3.427   5.612   2.065 -0.0133 -0.2652  0.2452
18976TIP3    H178343   3.408   5.519   2.048 -0.1288 -0.2358  0.2101
18976TIP3    H278344   3.341   5.653   2.073  0.0364 -0.1272  0.0761
18977TIP3   OH278345   6.112   5.583   2.652 -0.1616  0.3264  0.5430
18977TIP3    H178346   6.046   5.560   2.718  0.7112 -1.4156  0.8481
18977TIP3    H278347   6.080   5.665   2.614 -1.4425  0.5860  2.0984
18978TIP3   OH278348   6.091   5.130  10.560 -0.2732 -0.3114  0.0470
18978TIP3    H178349   6.089   5.104  10.651  0.3357 -0.3383  0.0579
18978TIP3    H278350   6.000   5.126  10.531 -0.5233  0.0810  0.7599
18979TIP3   OH278351   4.958   2.860  15.757  0.4541  0.7665 -0.2391
18979TIP3    H178352   5.050   2.835  15.764  0.2712  0.2677  0.5279
18979TIP3    H278353   4.958   2.955  15.767  0.6738  0.5612  2.4185
18980TIP3   OH278354   2.643   3.497  17.009  0.1032 -0.1444  0.3843
18980TIP3    H178355   2.706   3.568  17.021 -0.9330  0.9963 -0.7108
18980TIP3    H278356   2.647   3.478  16.915 -0.6165 -0.6164  0.4468
18981TIP3   OH278357   3.637   1.282  17.129  0.0013 -0.3720  0.1620
18981TIP3    H178358   3.601   1.358  17.082 -0.8926 -1.1719 -0.4755
18981TIP3    H278359   3.726   1.273  17.095 -0.0521  0.0980 -0.1094
18982TIP3   OH278360   2.243   4.688  13.776 -0.0813  0.4513 -0.3043
18982TIP3    H178361   2.171   4.651  13.725 -1.9820  3.2848  0.0382
18982TIP3    H278362   2.231   4.652  13.864  1.5618 -2.3360 -1.1226
18983TIP3   OH278363   3.500   0.628  17.056  0.4105  0.5456  0.0431
18983TIP3    H178364   3.457   0.659  17.135 -0.5983 -1.0704  0.1788
18983TIP3    H278365   3.429   0.615  16.993  0.6683 -1.8156  0.1384
18984TIP3   OH278366   2.702   1.087   0.412 -0.4220  0.1804 -0.6695
18984TIP3    H178367   2.797   1.082   0.424 -0.4136  0.3968 -0.6485
18984TIP3    H278368   2.677   0.998   0.387 -0.1535  0.2254 -1.1066
18985TIP3   OH278369   0.999   5.309  15.567 -1.1692  0.0529  0.0133
18985TIP3    H178370   0.906   5.331  15.578 -1.8287 -2.6864  0.5053
18985TIP3    H278371   1.045   5.376  15.617 -2.9612  0.6840  0.8997
18986TIP3   OH278372   0.471   2.465   4.559 -0.3550  0.3751 -0.1434
18986TIP3    H178373   0.539   2.527   4.585  1.9301 -0.6495 -3.0655
18986TIP3    H278374   0.405   2.520   4.516 -0.2812  1.1468  0.6879
18987TIP3   OH278375   6.039   2.940  17.161 -0.2306  0.2379 -0.3101
18987TIP3    H178376   5.944   2.925  17.164 -0.3510  0.9898 -0.0545
18987TIP3    H278377   6.077   2.855  17.183 -0.8619  0.1046  0.3178
18988TIP3   OH278378   1.529   6.565   3.215 -0.0427  0.1088  0.5549
18988TIP3    H178379   1.603   6.614   3.180 -1.7108  1.8444 -0.7463
18988TIP3    H278380   1.526   6.484   3.164 -0.4228  1.1033 -1.0717
18989TIP3   OH278381   3.736   2.959   1.895 -0.3324 -0.5729 -0.2800
18989TIP3    H178382   3.720   3.054   1.899  0.4625 -0.4016 -1.0341
18989TIP3    H278383   3.831   2.951   1.895 -0.3983 -1.3872 -0.0960
18990TIP3   OH278384   1.758   1.325  16.061 -0.0790 -0.2913  0.3020
18990TIP3    H178385   1.849   1.312  16.089 -0.1594 -1.5717  0.0151
18990TIP3    H278386   1.760   1.314  15.966 -0.9142 -2.9677  0.5122
18991TIP3   OH278387   6.477   1.732   5.212  0.7598  0.5432 -0.4891
18991TIP3    H178388   6.458   1.672   5.140 -0.3108  0.1979  0.0560
18991TIP3    H278389   6.392   1.771   5.233  1.1024  0.8120  0.4306
18992TIP3   OH278390   4.876   3.611   3.269  0.1630 -0.2667 -0.1989
18992TIP3    H178391   4.860   3.547   3.200  0.1434  0.1448 -0.5815
18992TIP3    H278392   4.965   3.593   3.299 -0.4309 -1.5599  0.8660
18993TIP3   OH278393   4.269   1.155   4.282  0.1431 -0.1027  0.4006
18993TIP3    H178394   4.305   1.088   4.223  0.4015  0.4341 -0.0533
18993TIP3    H278395   4.175   1.140   4.280  0.3424 -2.3659  2.6027
18994TIP3   OH278396   2.321   6.285  16.760  0.5042  0.8308 -0.0911
18994TIP3    H178397   2.346   6.236  16.682 -1.3147  0.3735 -0.4380
18994TIP3    H278398   2.267   6.357  16.727  0.5346  1.2069  0.6608
18995TIP3   OH278399   3.034   4.391   5.302  0.1416  0.3958 -0.0685
18995TIP3    H178400   3.014   4.314   5.355 -0.1745 -0.0764 -0.8611
18995TIP3    H278401   2.988   4.376   5.220  1.0123  0.8871 -0.6582
18996TIP3   OH278402   4.360   0.844  14.472 -0.8968  0.2569  0.0288
18996TIP3    H178403   4.338   0.819  14.383  0.2528  1.0512 -0.4972
18996TIP3    H278404   4.379   0.761  14.516 -1.0827 -0.1053 -0.5580
18997TIP3   OH278405   3.265   5.441   5.657 -0.3168  0.2754  0.3259
18997TIP3    H178406   3.326   5.404   5.722  0.9858  0.0831 -0.9628
18997TIP3    H278407   3.222   5.365   5.619 -1.6902  0.4274  1.4863
18998TIP3   OH278408   0.348   0.953   4.707 -0.1896 -0.5932  0.4012
18998TIP3    H178409   0.285   0.915   4.645 -1.3597  0.7438  0.7190
18998TIP3    H278410   0.360   0.885   4.773 -2.9437 -0.1834  1.4544
18999TIP3   OH278411   2.644   6.458   5.639 -0.3174  0.6497  0.5053
18999TIP3    H178412   2.557   6.422   5.650  0.8482 -3.3523 -1.4181
18999TIP3    H278413   2.702   6.395   5.681  1.7695  2.1157 -0.0125
19000TIP3   OH278414   2.009   5.023   1.566  0.4448  0.1508  0.3805
19000TIP3    H178415   1.996   4.986   1.654 -1.5340 -1.3945 -0.4894
19000TIP3    H278416   2.049   5.109   1.582 -1.6065  0.7653  2.9104
19001TIP3   OH278417   0.360   5.339  12.536  0.0981  0.3653 -0.0252
19001TIP3    H178418   0.273   5.299  12.537 -0.3002  1.2027  0.0945
19001TIP3    H278419   0.409   5.292  12.603  0.0957 -0.8724 -0.8665
19002TIP3   OH278420   1.465   0.294  16.197 -0.2669  0.3691 -0.0260
19002TIP3    H178421   1.460   0.308  16.103  1.5608 -0.5388 -0.2942
19002TIP3    H278422   1.548   0.249  16.211 -1.0504 -0.6206  1.8942
19003TIP3   OH278423   5.613   3.001  12.210  0.2946 -0.4964  0.6299
19003TIP3    H178424   5.640   3.027  12.122 -1.4869  0.4754  0.3196
19003TIP3    H278425   5.637   3.075  12.265 -1.0103  0.0847  0.4633
19004TIP3   OH278426   5.720   0.374  14.146  0.0157  0.3791 -0.3103
19004TIP3    H178427   5.805   0.411  14.171  0.7102 -0.6950 -0.9996
19004TIP3    H278428   5.732   0.279  14.152 -1.4718  0.2068  0.6147
19005TIP3   OH278429   3.018   5.567   6.841  0.5701 -0.5353 -0.2931
19005TIP3    H178430   2.988   5.552   6.751 -0.2751  2.6250 -0.6631
19005TIP3    H278431   2.938   5.573   6.893  0.5147  3.5043 -0.5052
19006TIP3   OH278432   5.579   1.887   4.598 -0.0972  0.4406 -0.2351
19006TIP3    H178433   5.632   1.846   4.530  0.5150  2.1407 -0.8284
19006TIP3    H278434   5.642   1.926   4.659 -0.5223 -2.8070  2.5999
19007TIP3   OH278435   5.260   2.334   5.235 -0.0221 -0.0430 -0.2008
19007TIP3    H178436   5.184   2.284   5.264 -0.0311  0.3607  0.4895
19007TIP3    H278437   5.318   2.268   5.197 -0.7401 -0.3390 -0.8011
19008TIP3   OH278438   1.818   6.516  13.870  0.1241  0.1816  0.7035
19008TIP3    H178439   1.845   6.482  13.785 -0.0801  0.4215  0.5413
19008TIP3    H278440   1.900   6.541  13.913  0.4011 -1.5868  1.3099
19009TIP3   OH278441   1.309   5.356  13.299 -0.0234  0.2612 -0.1408
19009TIP3    H178442   1.272   5.372  13.387  2.6920  0.1274  1.1272
19009TIP3    H278443   1.290   5.264  13.282  1.3372 -0.3445  1.3583
19010TIP3   OH278444   6.613   2.065   2.078 -0.0624  0.1023  0.0841
19010TIP3    H178445   6.579   2.077   1.990  2.1187 -1.0402 -1.0112
19010TIP3    H278446   6.567   1.988   2.112  0.0195 -0.2610 -0.6071
19011TIP3   OH278447   0.200   1.858   4.934 -0.0987  1.1341 -0.6426
19011TIP3    H178448   0.191   1.954   4.937  1.3266  1.3167 -1.3077
19011TIP3    H278449   0.291   1.842   4.958 -0.8635 -0.2355  1.6332
19012TIP3   OH278450   5.051   4.430   3.054 -0.2549 -0.4026 -0.3995
19012TIP3    H178451   5.066   4.374   2.978  2.0540  0.9507 -1.0213
19012TIP3    H278452   5.017   4.512   3.018  1.4235  0.4727 -0.1166
19013TIP3   OH278453   0.648   5.589   4.498 -0.3758  0.2653  1.1411
19013TIP3    H178454   0.703   5.524   4.452 -1.0097  1.1742 -1.0247
19013TIP3    H278455   0.580   5.537   4.540  0.8248 -0.6923  1.9689
19014TIP3   OH278456   0.170   2.234   1.406 -0.7834 -0.1603  0.0481
19014TIP3    H178457   0.109   2.189   1.348  1.3747 -2.1261 -0.8449
19014TIP3    H278458   0.191   2.169   1.474  0.7699  0.2154 -0.0294
19015TIP3   OH278459   0.420   2.982   4.667 -0.6564 -0.0102  0.0320
19015TIP3    H178460   0.394   2.964   4.576 -2.0043  0.2821  0.3337
19015TIP3    H278461   0.509   2.949   4.673 -1.3695 -2.3197 -0.7438
19016TIP3   OH278462   4.416   2.835   2.695  0.0972 -0.7110  0.2651
19016TIP3    H178463   4.338   2.788   2.665  1.2954 -2.1738 -0.7143
19016TIP3    H278464   4.425   2.811   2.787 -1.7604  1.2119  1.0623
19017TIP3   OH278465   0.414   2.162  15.038 -0.0598  0.0040  0.6280
19017TIP3    H178466   0.404   2.152  14.943  1.1470  1.0408  0.3596
19017TIP3    H278467   0.506   2.140  15.055  0.1989  1.4591  1.2916
19018TIP3   OH278468   5.166   3.105  12.634  0.1578  0.1475  0.4513
19018TIP3    H178469   5.233   3.040  12.654  0.2028  0.4132  1.1843
19018TIP3    H278470   5.214   3.186  12.618  0.1604 -0.1511 -1.2466
19019TIP3   OH278471   5.492   3.730  11.879  0.0582  0.4550  0.5460
19019TIP3    H178472   5.554   3.727  11.807  0.4810 -1.0582  0.9228
19019TIP3    H278473   5.547   3.721  11.958 -0.4721  1.1348  1.0026
19020TIP3   OH278474   2.677   0.809   3.699  0.1640  0.1861  0.4595
19020TIP3    H178475   2.647   0.824   3.609  0.8062 -1.6477 -0.1163
19020TIP3    H278476   2.605   0.840   3.754 -0.2008  1.4450 -0.6710
19021TIP3   OH278477   5.572   1.105  15.584 -0.1167  0.1802 -0.4386
19021TIP3    H178478   5.567   1.201  15.583  1.8728  0.3582  0.9199
19021TIP3    H278479   5.560   1.081  15.676  3.2177 -0.4896 -0.0308
19022TIP3   OH278480   0.531   6.349   5.063  0.2100  0.6556 -0.2211
19022TIP3    H178481   0.479   6.426   5.088 -0.5179  0.0267  0.2405
19022TIP3    H278482   0.588   6.333   5.138 -1.3512 -0.6973  0.7343
19023TIP3   OH278483   1.458   1.147  11.933  0.0252  0.9641 -0.5656
19023TIP3    H178484   1.507   1.204  11.992 -0.8556  1.2939 -0.1258
19023TIP3    H278485   1.483   1.059  11.958  0.3069  1.1233 -0.2757
19024TIP3   OH278486   1.347   0.731   0.842  0.5808 -0.0532 -0.0679
19024TIP3    H178487   1.279   0.666   0.827 -1.9380  1.9358  1.7522
19024TIP3    H278488   1.393   0.702   0.921 -0.3632  0.1941  0.5877
19025TIP3   OH278489   4.949   4.007  11.127 -0.5444 -0.0701  0.5316
19025TIP3    H178490   5.005   4.036  11.055  0.9570 -0.7410  1.3935
19025TIP3    H278491   4.896   3.937  11.089 -0.8694  0.6087 -0.3132
19026TIP3   OH278492   4.768   4.381   2.499 -0.3925  0.2541  0.3608
19026TIP3    H178493   4.674   4.398   2.500 -0.4579  0.5672 -2.8276
19026TIP3    H278494   4.780   4.315   2.431  1.4824 -1.8204  2.5245
19027TIP3   OH278495   1.361   3.313   5.644 -0.4627 -0.1580 -0.3731
19027TIP3    H178496   1.299   3.241   5.659 -0.7720 -0.1778 -1.5628
19027TIP3    H278497   1.447   3.273   5.654 -0.6306 -0.7569 -1.1614
19028TIP3   OH278498   5.294   1.991  12.646 -0.3860  0.1914 -0.0249
19028TIP3    H178499   5.204   1.958  12.644 -1.2833  1.9669  3.2341
19028TIP3    H278500   5.317   1.992  12.739  2.3462  1.5146 -0.6198
19029TIP3   OH278501   3.159   3.676  14.821 -0.4050 -0.3752 -0.1639
19029TIP3    H178502   3.135   3.583  14.815 -0.0400 -0.4789 -0.0244
19029TIP3    H278503   3.090   3.721  14.772 -0.0011 -0.8200 -1.1709
19030TIP3   OH278504   1.577   5.322  15.963 -0.6090  0.0739 -0.0678
19030TIP3    H178505   1.497   5.346  16.011  1.2728  0.5607  3.1904
19030TIP3    H278506   1.620   5.406  15.947 -0.0955 -0.2751 -0.5236
19031TIP3   OH278507   6.596   0.884   3.376 -0.1275 -0.1851 -0.1784
19031TIP3    H178508   6.584   0.854   3.286 -0.9642  2.0746 -0.8701
19031TIP3    H278509   6.688   0.864   3.396 -0.2185 -1.7131 -1.1009
19032TIP3   OH278510   4.236   5.268   4.859 -0.0965 -0.4318  0.1562
19032TIP3    H178511   4.215   5.357   4.889  0.0461 -0.7448  1.2486
19032TIP3    H278512   4.181   5.256   4.781  0.4679  0.8862 -0.4846
19033TIP3   OH278513   5.319   4.202   4.691 -0.3959 -0.7676 -0.3051
19033TIP3    H178514   5.323   4.285   4.738  1.9346 -0.2276 -1.3044
19033TIP3    H278515   5.251   4.215   4.624 -1.6971 -0.5385  1.0263
19034TIP3   OH278516   5.408   4.839  15.252  0.0665  0.1419 -0.2033
19034TIP3    H178517   5.323   4.883  15.246  0.8410  1.4854 -2.1852
19034TIP3    H278518   5.398   4.760  15.199 -0.1291 -0.0506  0.1149
19035TIP3   OH278519   1.934   3.632  15.646  0.2910  0.0474  0.0873
19035TIP3    H178520   1.956   3.540  15.630 -1.3233 -0.2842 -0.4528
19035TIP3    H278521   2.011   3.668  15.691  0.7986 -1.6525  0.6600
19036TIP3   OH278522   5.432   1.951   6.186  0.5739 -0.1231  0.5996
19036TIP3    H178523   5.520   1.921   6.209  0.9743  1.5049  1.3640
19036TIP3    H278524   5.446   2.027   6.130 -0.3192  0.4172  1.0745
19037TIP3   OH278525   5.602   6.057  13.474 -0.4602  0.7740 -0.5984
19037TIP3    H178526   5.522   6.051  13.422  0.5098  0.8597 -2.1676
19037TIP3    H278527   5.661   5.992  13.436  0.2057  0.6447  0.5823
19038TIP3   OH278528   4.863   1.505  16.135 -0.2159  0.2488  0.0445
19038TIP3    H178529   4.931   1.438  16.150 -2.3879 -2.4456 -1.3597
19038TIP3    H278530   4.842   1.536  16.223  1.8653  0.2104  0.6267
19039TIP3   OH278531   4.404   3.792  14.619  0.3764 -0.2718 -0.0811
19039TIP3    H178532   4.328   3.835  14.582  0.5906 -1.0266 -1.4667
19039TIP3    H278533   4.449   3.753  14.544  0.5635 -2.2866  1.0027
19040TIP3   OH278534   4.526   5.104  15.050  0.3164 -0.4659  0.1577
19040TIP3    H178535   4.493   5.015  15.035 -1.7923  0.2818  0.0108
19040TIP3    H278536   4.564   5.129  14.966  1.6552 -1.4814  0.4289
19041TIP3   OH278537   2.791   1.981  16.437 -0.2415 -0.0028  0.2677
19041TIP3    H178538   2.821   2.072  16.441 -0.7702  0.1342  1.8787
19041TIP3    H278539   2.696   1.987  16.444 -0.1768 -0.7403  3.7941
19042TIP3   OH278540   1.299   2.749   2.844  0.1121  0.0675  0.0558
19042TIP3    H178541   1.376   2.709   2.803  0.5767  2.0486 -1.1583
19042TIP3    H278542   1.227   2.690   2.822  0.8852 -0.5550 -0.9446
19043TIP3   OH278543   1.245   0.242  13.066  0.3342  0.1193  0.0386
19043TIP3    H178544   1.207   0.313  13.014  0.2204  0.0629  0.0435
19043TIP3    H278545   1.260   0.172  13.003 -1.5767 -0.6555  0.3933
19044TIP3   OH278546   2.723   1.483  14.749 -0.7088  0.0994 -0.2824
19044TIP3    H178547   2.801   1.537  14.732  0.4861 -1.2191  0.7764
19044TIP3    H278548   2.746   1.396  14.715 -2.3832  0.0564 -1.4452
19045TIP3   OH278549   3.320   2.696   6.485  0.4863 -0.8071 -0.2905
19045TIP3    H178550   3.304   2.717   6.577 -1.0646  0.7412 -0.8581
19045TIP3    H278551   3.404   2.736   6.465 -0.2970  1.0056 -0.1375
19046TIP3   OH278552   6.699   5.955  10.896  0.2741  0.4159  0.1576
19046TIP3    H178553   6.766   6.021  10.915  0.8595 -0.3142  0.7244
19046TIP3    H278554   6.618   5.991  10.932  0.4020  1.2116 -0.3323
19047TIP3   OH278555   1.772   5.800  11.498  0.1691 -0.9066  0.3600
19047TIP3    H178556   1.727   5.885  11.503 -0.1382 -1.1464  2.8452
19047TIP3    H278557   1.760   5.772  11.407 -0.5080  1.2665 -0.2979
19048TIP3   OH278558   1.839   3.751   1.863  0.5735 -0.1774  0.1150
19048TIP3    H178559   1.744   3.743   1.866  0.3864  1.6307 -0.1282
19048TIP3    H278560   1.870   3.689   1.930 -0.5524 -3.0509 -1.8552
19049TIP3   OH278561   2.086   6.440   4.869  0.4573  0.2352  0.1445
19049TIP3    H178562   2.072   6.512   4.930 -0.7686 -0.7637  1.1096
19049TIP3    H278563   2.125   6.370   4.922 -2.3580 -1.3361  0.3544
19050TIP3   OH278564   2.364   6.020   6.027 -0.2754  0.6806 -0.2542
19050TIP3    H178565   2.382   5.959   5.956 -0.1057 -0.3419  0.6308
19050TIP3    H278566   2.296   6.078   5.993 -2.1053 -1.4239 -0.3781
19051TIP3   OH278567   2.460   3.962  15.291 -0.0819  0.9399 -0.1826
19051TIP3    H178568   2.517   3.969  15.368 -0.3834 -0.8639  0.2694
19051TIP3    H278569   2.478   4.040  15.240  4.3558 -0.3646 -1.0769
19052TIP3   OH278570   4.278   3.230   4.406 -0.3437 -0.0707  0.5969
19052TIP3    H178571   4.335   3.252   4.480  2.3010  0.0533 -1.3193
19052TIP3    H278572   4.223   3.307   4.394  0.3513  0.5771  1.4193
19053TIP3   OH278573   0.723   4.445  13.048  0.3467 -1.1094 -0.3201
19053TIP3    H178574   0.653   4.380  13.037  1.4500 -2.1954 -1.1651
19053TIP3    H278575   0.802   4.393  13.061  0.9882  0.1022  0.8129
19054TIP3   OH278576   3.874   3.802  14.608 -0.1731 -0.2729  0.1121
19054TIP3    H178577   3.814   3.874  14.626 -0.2817 -0.5214  0.7665
19054TIP3    H278578   3.917   3.784  14.692 -1.0906 -1.8246  0.2992
19055TIP3   OH278579   2.395   6.262   0.487  0.2296  0.6109 -0.3400
19055TIP3    H178580   2.369   6.213   0.565  1.0271  0.4565 -0.1693
19055TIP3    H278581   2.404   6.196   0.419 -0.3669  0.7341 -0.5490
19056TIP3   OH278582   1.659   1.641   5.256  0.1708 -0.1751 -0.5050
19056TIP3    H178583   1.628   1.681   5.175 -1.7207 -0.0117  0.2585
19056TIP3    H278584   1.653   1.547   5.240 -1.9559 -0.1741  0.0187
19057TIP3   OH278585   2.461   4.743  15.169 -0.3920 -0.1236  0.6920
19057TIP3    H178586   2.477   4.763  15.077  2.4595 -2.3380  0.5525
19057TIP3    H278587   2.498   4.818  15.216 -1.7781  0.9741  0.0926
19058TIP3   OH278588   3.811   4.192  11.510  0.1795 -0.4554  0.1681
19058TIP3    H178589   3.718   4.171  11.498  0.3665 -0.7912 -0.7231
19058TIP3    H278590   3.858   4.119  11.471  0.8334 -0.4630  0.9401
19059TIP3   OH278591   4.067   1.822   2.612 -0.4523 -0.0615  0.1727
19059TIP3    H178592   3.998   1.771   2.655 -0.7071  0.2981  0.1930
19059TIP3    H278593   4.058   1.801   2.519 -0.3409 -0.3083  0.2154
19060TIP3   OH278594   5.795   6.273   4.241  0.5454 -0.4576  0.4211
19060TIP3    H178595   5.789   6.219   4.162 -1.1552 -0.7747  0.7388
19060TIP3    H278596   5.875   6.325   4.228 -0.3709  0.4902 -2.1730
19061TIP3   OH278597   5.141   3.982   1.604 -0.9445  0.3981 -0.1225
19061TIP3    H178598   5.168   3.957   1.516 -0.6524 -0.2178  0.1348
19061TIP3    H278599   5.146   3.900   1.655  0.3672  1.0334  0.8326
19062TIP3   OH278600   5.058   0.746   3.324 -0.1927 -0.3412  0.0073
19062TIP3    H178601   4.963   0.744   3.332 -0.1899  0.2132  0.2512
19062TIP3    H278602   5.083   0.655   3.308 -0.9133 -0.2549 -1.8439
19063TIP3   OH278603   0.710   1.446  15.920  0.1168 -0.1366 -0.2718
19063TIP3    H178604   0.740   1.536  15.937 -1.4076  0.4213 -0.3823
19063TIP3    H278605   0.625   1.440  15.963 -0.2353 -1.2242 -1.0598
19064TIP3   OH278606   5.598   0.305  15.441  0.0230  1.1054  0.1961
19064TIP3    H178607   5.535   0.232  15.439 -1.2523  2.1366  0.9551
19064TIP3    H278608   5.674   0.269  15.486 -0.7914  0.3693  1.0488
19065TIP3   OH278609   4.375   4.060   1.033 -0.5472 -0.1338  0.1876
19065TIP3    H178610   4.454   4.006   1.027  0.3714  1.2509 -0.6444
19065TIP3    H278611   4.407   4.145   1.065 -1.9469 -0.0295  1.4123
19066TIP3   OH278612   3.862   1.043   0.781  0.0786  0.1849 -0.4045
19066TIP3    H178613   3.804   1.106   0.739  0.2882  0.9096  0.3634
19066TIP3    H278614   3.937   1.035   0.723 -0.8894 -0.9632 -1.5453
19067TIP3   OH278615   0.105   4.997  12.123 -0.4201 -0.1596 -0.1933
19067TIP3    H178616   0.120   5.090  12.107 -1.5665 -0.0335 -0.6316
19067TIP3    H278617   0.011   4.984  12.107 -0.5325 -1.1519  1.0508
19068TIP3   OH278618   4.228   3.293  13.534  0.1900 -0.3109 -0.7440
19068TIP3    H178619   4.285   3.360  13.496 -0.1157  0.5293  0.2199
19068TIP3    H278620   4.160   3.279  13.468  0.0974  0.5499 -0.8480
19069TIP3   OH278621   3.390   3.099   5.538 -0.0944 -0.4832  0.3559
19069TIP3    H178622   3.421   3.165   5.601 -1.9480  0.5327  0.3037
19069TIP3    H278623   3.296   3.115   5.532 -0.2460 -1.7232 -1.3628
19070TIP3   OH278624   4.422   1.215  13.761 -0.1799 -0.2451  0.2800
19070TIP3    H178625   4.380   1.182  13.681  2.1452 -0.7298 -0.8023
19070TIP3    H278626   4.376   1.170  13.832 -0.1424 -2.3398 -0.9416
19071TIP3   OH278627   1.765   4.712  14.304  0.3390  0.3608  0.0282
19071TIP3    H178628   1.858   4.735  14.314  0.6560 -1.3115  1.6408
19071TIP3    H278629   1.752   4.642  14.368 -2.0949  0.6694 -0.0555
19072TIP3   OH278630   3.395   2.573  15.329 -0.1934 -0.7559  0.2838
19072TIP3    H178631   3.349   2.609  15.253 -1.7471 -1.5970  0.7737
19072TIP3    H278632   3.441   2.496  15.295 -0.1954 -0.6397  0.0197
19073TIP3   OH278633   6.364   1.499   2.878 -0.4648  0.3002  0.7018
19073TIP3    H178634   6.360   1.410   2.915  0.6730  0.9932  2.6279
19073TIP3    H278635   6.273   1.527   2.873 -0.8249 -0.8696  0.2873
19074TIP3   OH278636   6.587   3.449  14.976  0.6362 -0.0886 -0.3306
19074TIP3    H178637   6.616   3.401  15.054  1.1586 -0.9822 -1.0583
19074TIP3    H278638   6.496   3.472  14.996  0.8845  0.0586  0.7091
19075TIP3   OH278639   0.862   0.667   2.093  0.1807  0.2596 -0.0180
19075TIP3    H178640   0.868   0.602   2.164  1.5701  0.8283  0.4162
19075TIP3    H278641   0.941   0.654   2.041 -0.1938  0.7118 -0.7169
19076TIP3   OH278642   3.659   2.465   1.244 -0.1543 -0.2069  0.3319
19076TIP3    H178643   3.686   2.539   1.299 -1.6814 -0.6134  1.7202
19076TIP3    H278644   3.564   2.461   1.256 -0.1768 -1.9953 -0.2250
19077TIP3   OH278645   5.113   4.540   6.313 -0.2470  0.1811  0.0312
19077TIP3    H178646   5.107   4.623   6.360 -1.5491  0.8758 -1.3054
19077TIP3    H278647   5.023   4.516   6.294  0.2322 -0.1024 -2.0626
19078TIP3   OH278648   4.110   5.993   4.021 -0.5488 -0.3141  0.2769
19078TIP3    H178649   4.070   5.934   4.085  0.6379 -0.1279  1.2392
19078TIP3    H278650   4.189   5.947   3.992 -1.2310 -0.5239 -1.3151
19079TIP3   OH278651   3.980   3.937  13.192 -0.7127 -0.2239  0.0439
19079TIP3    H178652   3.919   3.997  13.148  0.1508  0.7273  0.1210
19079TIP3    H278653   4.066   3.975  13.176 -0.3048 -0.3461  1.8068
19080TIP3   OH278654   1.216   2.510   1.857 -0.1427  0.0699  0.3643
19080TIP3    H178655   1.186   2.587   1.906 -2.7205 -0.1824 -0.6875
19080TIP3    H278656   1.246   2.449   1.925 -0.9851  0.8054  1.4389
19081TIP3   OH278657   3.835   0.887   1.718 -0.3828 -0.0336  0.1469
19081TIP3    H178658   3.754   0.893   1.769 -1.2025 -0.2019 -1.1083
19081TIP3    H278659   3.893   0.833   1.772 -2.2357 -2.7123 -0.3150
19082TIP3   OH278660   1.903   1.311  14.689  0.4059 -0.2373 -0.6214
19082TIP3    H178661   1.914   1.391  14.637 -0.8981 -1.8232 -3.5560
19082TIP3    H278662   1.992   1.283  14.709  0.9120  2.3515  1.3753
19083TIP3   OH278663   1.318   4.567   1.260 -0.9465  0.1357  0.2380
19083TIP3    H178664   1.387   4.549   1.324 -0.8648  1.3689  0.5402
19083TIP3    H278665   1.357   4.546   1.175  0.0123  1.3000  0.3556
19084TIP3   OH278666   6.089   5.688  12.553  0.5819  0.4639 -0.7588
19084TIP3    H178667   6.027   5.648  12.614  1.4590  0.3482  0.0771
19084TIP3    H278668   6.037   5.706  12.474 -0.3932 -0.0647 -0.2532
19085TIP3   OH278669   5.692   1.668   0.755  0.6149 -0.2777  0.1179
19085TIP3    H178670   5.636   1.654   0.832  0.5957 -0.8010  0.0163
19085TIP3    H278671   5.641   1.631   0.682  0.3600  0.7754 -0.2497
19086TIP3   OH278672   4.710   4.716   2.395  0.2299 -0.1901 -0.1990
19086TIP3    H178673   4.804   4.696   2.396  0.4863  0.9221 -0.7003
19086TIP3    H278674   4.690   4.741   2.485  0.0869 -1.7602  0.2424
19087TIP3   OH278675   4.291   0.392  15.163  0.6186  0.4664 -0.1413
19087TIP3    H178676   4.232   0.414  15.236  1.9346  1.5233  0.6520
19087TIP3    H278677   4.377   0.421  15.193  1.0767  1.6393 -2.4268
19088TIP3   OH278678   2.697   6.501   4.306  0.1406  0.3570 -0.6215
19088TIP3    H178679   2.613   6.477   4.345  0.1669 -0.7740 -1.2140
19088TIP3    H278680   2.683   6.491   4.212  0.5926  1.3517 -0.8039
19089TIP3   OH278681   0.195   1.757  10.988 -0.3669  0.2926 -0.5410
19089TIP3    H178682   0.161   1.683  10.938  0.6342  0.0551 -0.8893
19089TIP3    H278683   0.215   1.824  10.922 -3.4040  1.8104 -0.0657
19090TIP3   OH278684   2.194   2.326  15.575 -0.2047  0.0812 -0.1113
19090TIP3    H178685   2.132   2.383  15.531  0.1830  1.7015  1.3154
19090TIP3    H278686   2.233   2.381  15.643  1.2661 -1.4851  0.3912
19091TIP3   OH278687   0.308   4.206   4.949  0.2473 -0.0578 -0.6511
19091TIP3    H178688   0.283   4.298   4.948  0.7277  0.0777 -0.5676
19091TIP3    H278689   0.279   4.174   5.035 -1.0215 -0.3090 -1.1468
19092TIP3   OH278690   5.482   2.669  15.914  0.6214 -0.2809 -0.1999
19092TIP3    H178691   5.448   2.755  15.891  2.1318  0.8114  1.3339
19092TIP3    H278692   5.567   2.664  15.869  1.2804 -0.2303  0.9743
19093TIP3   OH278693   5.186   5.083   5.630  0.0046 -0.2661 -0.2176
19093TIP3    H178694   5.277   5.112   5.637 -0.4272  0.7815  2.2951
19093TIP3    H278695   5.181   5.009   5.690 -0.7254 -0.5547 -0.6272
19094TIP3   OH278696   6.043   0.099   0.616  0.3962  0.4139  0.0221
19094TIP3    H178697   6.007   0.147   0.541 -1.0307  1.4314  1.3025
19094TIP3    H278698   6.133   0.078   0.590 -0.0051  0.8511 -1.9058
19095TIP3   OH278699   1.040   1.072   0.668  0.1336  0.2875 -0.1382
19095TIP3    H178700   1.126   1.113   0.668  0.0064  0.5860  0.8002
19095TIP3    H278701   0.990   1.119   0.601 -0.4143  2.6080  1.7588
19096TIP3   OH278702   4.060   3.396  13.332  0.4426 -0.3372 -0.1057
19096TIP3    H178703   3.972   3.400  13.295  1.0326 -0.9189 -1.6762
19096TIP3    H278704   4.116   3.373  13.258  1.8728 -0.3603  0.9349
19097TIP3   OH278705   0.474   5.728  12.142  0.3224 -0.1647 -0.5267
19097TIP3    H178706   0.553   5.773  12.110  0.8417 -0.6856 -0.0135
19097TIP3    H278707   0.499   5.693  12.228 -0.6245  0.0630 -0.1464
19098TIP3   OH278708   5.350   6.277  12.661 -0.3457 -0.3305 -0.5055
19098TIP3    H178709   5.400   6.311  12.736  2.8968  0.2233 -2.7470
19098TIP3    H278710   5.264   6.319  12.669  0.8849  2.1079  1.2584
19099TIP3   OH278711   2.145   1.931  14.533  0.4207  0.4389 -0.8899
19099TIP3    H178712   2.084   1.964  14.599  0.1566 -0.6691 -0.5657
19099TIP3    H278713   2.229   1.925  14.578  0.8634  2.1892 -1.3985
19100TIP3   OH278714   4.843   0.292  12.785 -0.1367 -0.0940 -0.8762
19100TIP3    H178715   4.781   0.338  12.727 -1.9106 -0.5893  0.5342
19100TIP3    H278716   4.788   0.259  12.857  1.6395 -1.4328 -0.0739
19101TIP3   OH278717   1.711   5.212   6.001  0.4134 -0.1908  0.1341
19101TIP3    H178718   1.719   5.169   5.916 -2.1350  3.2686 -2.1154
19101TIP3    H278719   1.770   5.287   5.995 -0.3911  0.5413  1.0705
19102TIP3   OH278720   6.697   3.658  11.078 -0.2334 -0.3004 -0.3947
19102TIP3    H178721   6.635   3.593  11.044 -0.5107 -0.3450  0.1899
19102TIP3    H278722   6.657   3.742  11.058 -0.6498 -0.3311  0.2639
19103TIP3   OH278723   2.938   5.371   1.035 -0.4161 -0.3811  0.3566
19103TIP3    H178724   2.917   5.384   1.127 -0.0266  1.5933  0.2088
19103TIP3    H278725   2.981   5.452   1.008 -1.5412 -0.4319 -1.8436
19104TIP3   OH278726   4.750   2.709  12.859 -0.7435  0.1529  0.3042
19104TIP3    H178727   4.806   2.787  12.861 -0.4719 -0.0518  1.1964
19104TIP3    H278728   4.787   2.655  12.789  0.2026  0.0099  0.9024
19105TIP3   OH278729   5.755   4.833   0.588 -0.5362  0.0285 -0.0263
19105TIP3    H178730   5.786   4.866   0.504  0.1724 -1.0132 -0.1847
19105TIP3    H278731   5.670   4.875   0.600  0.2506  1.7953 -0.2801
19106TIP3   OH278732   3.052   3.985   3.242  0.1173 -0.2149  0.3523
19106TIP3    H178733   3.073   4.076   3.220 -0.4253 -0.2312 -0.2816
19106TIP3    H278734   3.096   3.969   3.325 -0.5359  0.9196  0.9282
19107TIP3   OH278735   5.645   1.304   2.427  0.4030 -0.4146 -0.4042
19107TIP3    H178736   5.636   1.314   2.332 -2.2803 -2.0922 -0.4441
19107TIP3    H278737   5.702   1.228   2.439  0.3287 -0.5129 -0.6835
19108TIP3   OH278738   0.129   1.160   3.337 -0.7407  0.4702  0.3671
19108TIP3    H178739   0.151   1.157   3.430 -0.3722 -1.4186  0.2605
19108TIP3    H278740   0.033   1.162   3.335 -0.7366  1.5153  0.7778
19109TIP3   OH278741   5.236   0.446   1.638 -0.1076 -0.0766  0.3677
19109TIP3    H178742   5.310   0.451   1.698  1.3313  0.9849 -1.3814
19109TIP3    H278743   5.232   0.354   1.612 -0.6743 -0.5212  1.9333
19110TIP3   OH278744   2.068   5.499  14.619  0.0057 -0.1431 -0.8902
19110TIP3    H178745   2.088   5.552  14.696 -0.0851 -2.7617  1.0260
19110TIP3    H278746   2.117   5.542  14.548  1.8774  1.1213  1.0291
19111TIP3   OH278747   1.976   3.149  11.579 -0.4318  0.0363  1.0293
19111TIP3    H178748   2.006   3.070  11.535 -1.0725  1.4002 -2.1702
19111TIP3    H278749   1.905   3.119  11.636  1.2811 -2.0233  2.2140
19112TIP3   OH278750   2.049   2.642   3.433  0.1819  0.2335 -0.4058
19112TIP3    H178751   1.958   2.622   3.411  0.3168  0.5464 -1.2972
19112TIP3    H278752   2.043   2.706   3.503 -0.2640 -1.4112  1.1303
19113TIP3   OH278753   5.917   4.222   5.308 -0.8720  0.3524  0.5462
19113TIP3    H178754   5.875   4.308   5.307 -0.2253  0.6763  0.7798
19113TIP3    H278755   6.010   4.241   5.298 -0.8241 -0.3866 -0.5740
19114TIP3   OH278756   6.619   4.818  11.117  0.5566  0.3551 -0.3154
19114TIP3    H178757   6.576   4.900  11.140 -2.2411 -1.0401 -0.2064
19114TIP3    H278758   6.570   4.785  11.042  1.4298 -1.3549 -0.1843
19115TIP3   OH278759   1.867   1.941  13.629  0.0704 -0.0846 -0.2518
19115TIP3    H178760   1.935   1.989  13.677  0.6431 -0.0903 -1.0249
19115TIP3    H278761   1.846   1.998  13.555  0.5085 -0.8639 -0.9892
19116TIP3   OH278762   0.699   6.155  17.286 -0.2764  0.3212 -0.3243
19116TIP3    H178763   0.739   6.225  17.233 -0.1651  1.0189  0.6492
19116TIP3    H278764   0.681   6.197  17.370  2.7272 -1.6001  1.4641
19117TIP3   OH278765   1.822   4.794   2.038  0.4558  0.1126  0.5171
19117TIP3    H178766   1.903   4.836   2.009 -0.3891  1.0545 -0.5361
19117TIP3    H278767   1.767   4.866   2.069 -0.1345 -0.4768  0.8744
19118TIP3   OH278768   3.203   2.818  13.392 -0.5441  0.3851  0.1963
19118TIP3    H178769   3.171   2.841  13.305  0.7965  1.3772 -0.0588
19118TIP3    H278770   3.155   2.875  13.452 -0.7561  0.3924  0.0198
19119TIP3   OH278771   6.076   1.752  11.845 -0.5287 -0.1084 -0.0080
19119TIP3    H178772   6.076   1.837  11.890 -0.3028 -0.3614  0.4715
19119TIP3    H278773   6.129   1.767  11.767  0.2422 -0.0347  0.5176
19120TIP3   OH278774   5.441   3.818  14.212 -0.4084 -0.1012 -0.1138
19120TIP3    H178775   5.406   3.775  14.134  1.0523  0.5045 -1.1480
19120TIP3    H278776   5.440   3.750  14.279 -2.0503 -0.5216 -0.5367
19121TIP3   OH278777   0.439   0.090   5.915 -0.0278 -0.5493 -0.0250
19121TIP3    H178778   0.482   0.137   5.843 -0.6999  0.6768  0.3384
19121TIP3    H278779   0.453   0.146   5.992 -1.4390 -0.5765  0.2862
19122TIP3   OH278780   1.037   6.555   5.411  0.0894 -0.1337  0.4807
19122TIP3    H178781   1.058   6.640   5.449  0.2835 -0.0753  0.2486
19122TIP3    H278782   1.085   6.554   5.328 -3.9072  1.6432 -2.1543
19123TIP3   OH278783   5.073   6.101   4.640 -0.1295  0.4485 -0.4394
19123TIP3    H178784   5.113   6.018   4.614 -1.3097  0.1771 -1.5110
19123TIP3    H278785   5.131   6.168   4.604  2.5077  0.2634  2.9503
19124TIP3   OH278786   6.044   2.073  16.258  0.4693  0.0123  0.7289
19124TIP3    H178787   5.998   2.133  16.198  0.3005 -1.7147 -0.9838
19124TIP3    H278788   5.978   2.047  16.322 -0.2049 -0.3539 -0.0985
19125TIP3   OH278789   5.506   5.945  15.234  0.1463 -0.2129  0.2976
19125TIP3    H178790   5.576   6.009  15.220  0.7839 -0.7442  0.9693
19125TIP3    H278791   5.542   5.863  15.202 -0.7350 -0.2227 -0.7217
19126TIP3   OH278792   4.641   6.570   1.101  0.3602  0.6426  0.8830
19126TIP3    H178793   4.604   6.582   1.014  2.0408 -1.0174 -0.1531
19126TIP3    H278794   4.630   6.654   1.145 -0.0996  1.6581 -1.1076
19127TIP3   OH278795   5.659   6.584   5.500 -0.9341  0.2566 -0.1086
19127TIP3    H178796   5.610   6.657   5.539 -0.7578  0.2738  0.0847
19127TIP3    H278797   5.614   6.506   5.530 -0.6541  0.2625  0.3305
19128TIP3   OH278798   6.405   6.522   3.010 -1.0775 -0.0812  0.1323
19128TIP3    H178799   6.488   6.558   3.042 -1.2546 -0.4888  1.0850
19128TIP3    H278800   6.368   6.592   2.956  0.9673 -0.7269 -2.3335
19129TIP3   OH278801   0.991   4.351  16.256  0.0323  0.0159 -0.2857
19129TIP3    H178802   0.909   4.301  16.246 -0.0270 -0.3498  1.5967
19129TIP3    H278803   0.967   4.440  16.231 -0.7355 -0.2344 -0.4894
19130TIP3   OH278804   5.307   2.048   0.584 -0.4375  0.2960  0.5284
19130TIP3    H178805   5.290   2.125   0.638 -0.7619 -0.3200  1.3332
19130TIP3    H278806   5.298   2.079   0.494 -0.4885  1.2100  0.8397
19131TIP3   OH278807   5.102   6.001   6.618 -0.4585 -0.1480 -0.5686
19131TIP3    H178808   5.106   5.906   6.604  0.6093 -0.0752 -0.8102
19131TIP3    H278809   5.180   6.021   6.669 -0.1942  0.7354 -1.2932
19132TIP3   OH278810   6.193   5.618   0.476 -0.2663 -0.0822 -0.0975
19132TIP3    H178811   6.178   5.569   0.557  4.5104 -2.0466 -0.1032
19132TIP3    H278812   6.200   5.710   0.504 -1.1031 -0.4046  1.2510
19133TIP3   OH278813   0.136   3.766  11.795  0.6583  0.0466  0.2416
19133TIP3    H178814   0.142   3.679  11.834  0.2219 -1.8656 -3.4956
19133TIP3    H278815   0.042   3.786  11.795  0.6067 -0.1930 -0.2793
19134TIP3   OH278816   3.476   3.742   1.894 -0.5010  0.3423  0.3045
19134TIP3    H178817   3.511   3.824   1.859  1.7429 -1.1198 -1.1249
19134TIP3    H278818   3.395   3.768   1.938 -0.2491  3.2048 -0.6873
19135TIP3   OH278819   6.649   6.615  15.461  0.7724 -0.2655  0.4848
19135TIP3    H178820   6.670   6.533  15.417  2.6073  0.8738 -0.9313
19135TIP3    H278821   6.554   6.615  15.469  0.6080 -1.7576 -1.0100
19136TIP3   OH278822   1.080   6.417   3.529  0.4877 -0.2085  0.5485
19136TIP3    H178823   1.049   6.357   3.461 -1.3324 -0.3752  1.4786
19136TIP3    H278824   1.034   6.499   3.512 -0.7254 -0.5225  2.0970
19137TIP3   OH278825   4.843   4.827   5.906  0.5067 -0.5767 -0.0154
19137TIP3    H178826   4.754   4.795   5.887 -0.1185  0.7120  0.6277
19137TIP3    H278827   4.875   4.858   5.821  0.2798 -0.8710 -0.2146
19138TIP3   OH278828   5.013   0.293  11.004 -0.2799  0.7129 -0.6357
19138TIP3    H178829   4.928   0.288  10.960 -0.9874 -0.7526  0.8245
19138TIP3    H278830   5.028   0.206  11.039  2.5792  0.4803 -2.1191
19139TIP3   OH278831   0.379   4.396   2.120 -0.2686 -0.4898  0.0079
19139TIP3    H178832   0.315   4.458   2.085 -0.7961 -1.3119 -0.5305
19139TIP3    H278833   0.429   4.447   2.184  0.4001  0.9347 -1.5728
19140TIP3   OH278834   4.349   6.488  16.443  0.4387  0.1696  0.6075
19140TIP3    H178835   4.369   6.408  16.491  1.4130  0.0249  0.0057
19140TIP3    H278836   4.431   6.537  16.443  0.0160  0.8911  0.4515
19141TIP3   OH278837   3.944   4.188   6.134 -0.4349  0.0027  0.6076
19141TIP3    H178838   4.031   4.151   6.146  0.1757  1.4832  1.0769
19141TIP3    H278839   3.940   4.212   6.042  0.3430  1.4702  0.9220
19142TIP3   OH278840   5.922   4.527   4.122 -0.6035 -0.2757  0.2104
19142TIP3    H178841   5.827   4.531   4.116 -0.6634 -1.0203  0.6128
19142TIP3    H278842   5.939   4.500   4.212 -0.0307 -0.9286 -0.0910
19143TIP3   OH278843   3.404   0.948  16.251 -0.2122 -0.8529  0.6266
19143TIP3    H178844   3.353   0.908  16.180  0.6838 -2.6391  0.9219
19143TIP3    H278845   3.486   0.974  16.209  0.9314 -3.2534  1.1945
19144TIP3   OH278846   4.423   2.191   0.559  0.0082 -0.1674 -0.4253
19144TIP3    H178847   4.369   2.266   0.582  0.9896  0.3552  0.2881
19144TIP3    H278848   4.510   2.213   0.594  1.1080 -0.2473 -2.8576
19145TIP3   OH278849   5.423   5.592  14.288  0.2811  0.7528 -0.1841
19145TIP3    H178850   5.461   5.545  14.363  3.1105 -0.6157 -2.2596
19145TIP3    H278851   5.346   5.541  14.264  1.1499 -0.7019 -0.0578
19146TIP3   OH278852   0.035   3.697  17.383 -0.2107  0.5091  0.2535
19146TIP3    H178853   0.007   3.616  17.428  0.1689 -0.6706 -1.5313
19146TIP3    H278854  -0.034   3.760  17.403 -2.0230 -1.1030 -0.6208
19147TIP3   OH278855   5.584   1.211  13.849  0.1971  0.0278 -0.5189
19147TIP3    H178856   5.656   1.248  13.900 -0.7351  1.3327 -0.1181
19147TIP3    H278857   5.619   1.129  13.815  0.4409 -1.7464  3.4327
19148TIP3   OH278858   5.232   1.622  16.888  0.1566  0.1480 -0.0338
19148TIP3    H178859   5.315   1.585  16.859 -0.4328 -1.2637 -0.0401
19148TIP3    H278860   5.234   1.616  16.983  0.0680  0.0945 -0.0346
19149TIP3   OH278861   0.585   3.325   4.753  0.1582 -0.2452  0.1859
19149TIP3    H178862   0.573   3.416   4.725 -0.2650 -0.0657  0.9218
19149TIP3    H278863   0.676   3.306   4.734  0.0495  0.0855 -0.6820
19150TIP3   OH278864   5.120   2.840   1.625  0.1145  0.9070  0.4521
19150TIP3    H178865   5.215   2.855   1.621  0.5075 -1.0816  1.2097
19150TIP3    H278866   5.111   2.744   1.622 -1.8100  1.0127  1.5687
19151TIP3   OH278867   6.193   2.166   1.850 -0.8366  0.2462 -0.4108
19151TIP3    H178868   6.229   2.188   1.765  0.2764 -1.2151 -0.3580
19151TIP3    H278869   6.268   2.135   1.901 -2.0763 -3.1280 -0.3804
19152TIP3   OH278870   4.457   2.256  12.377 -0.3595 -0.5110 -0.2512
19152TIP3    H178871   4.461   2.325  12.311 -1.4238  0.0066  0.2064
19152TIP3    H278872   4.366   2.257  12.408 -0.2182 -1.6391  0.2761
19153TIP3   OH278873   0.317   5.032   4.027  0.4866 -0.3854  0.1306
19153TIP3    H178874   0.386   5.085   4.066  1.3991  0.0619 -1.9300
19153TIP3    H278875   0.362   4.957   3.990  0.0054  0.1335 -1.6447
19154TIP3   OH278876   1.456   5.802   1.988  0.5935 -0.2948  0.0424
19154TIP3    H178877   1.508   5.756   1.922 -1.2264 -1.0041 -0.9612
19154TIP3    H278878   1.479   5.759   2.070 -0.8685 -2.9747 -0.8206
19155TIP3   OH278879   0.780   0.711   5.262 -0.4422  0.1227  0.0573
19155TIP3    H178880   0.829   0.785   5.297  0.0911  0.4519 -1.3092
19155TIP3    H278881   0.803   0.709   5.169 -0.1763 -1.9548  0.1151
19156TIP3   OH278882   1.394   3.542  13.855 -0.0429  0.6488 -0.0330
19156TIP3    H178883   1.482   3.573  13.876 -0.4426  1.7364  0.0781
19156TIP3    H278884   1.379   3.470  13.917  0.4045  1.0824  0.5977
19157TIP3   OH278885   0.590   6.687  16.958 -0.1455  0.0632 -0.5621
19157TIP3    H178886   0.495   6.683  16.964 -0.2998  2.1852 -0.8229
19157TIP3    H278887   0.607   6.754  16.892  1.5389  0.0007 -0.2389
19158TIP3   OH278888   0.879   5.608   5.549  0.2325 -0.3391 -0.1690
19158TIP3    H178889   0.817   5.681   5.536 -0.4732 -0.9185 -0.1141
19158TIP3    H278890   0.872   5.588   5.642 -0.1055 -0.9459 -0.3248
19159TIP3   OH278891   5.958   4.076   2.345  0.1349  0.5413 -0.2652
19159TIP3    H178892   5.980   4.157   2.299  0.3446  0.5784 -0.0984
19159TIP3    H278893   6.016   4.010   2.307  0.2508  0.5547 -0.1108
19160TIP3   OH278894   4.676   6.738   1.917  0.9244  0.1726  0.1055
19160TIP3    H178895   4.613   6.804   1.891  0.8606  0.1624  0.2324
19160TIP3    H278896   4.665   6.730   2.012  1.2068  0.2635  0.1453
19161TIP3   OH278897   0.911   0.324  11.472  0.6489 -0.3497  0.0559
19161TIP3    H178898   0.989   0.373  11.447 -0.5290 -0.2314 -4.0862
19161TIP3    H278899   0.864   0.382  11.532  1.1178  2.0668 -1.7672
19162TIP3   OH278900   5.316   6.190  11.457 -0.4437  0.6759 -0.0032
19162TIP3    H178901   5.379   6.139  11.508  1.2786  2.0244 -0.6537
19162TIP3    H278902   5.356   6.198  11.371 -1.3472  1.8709 -0.3367
19163TIP3   OH278903   0.738   5.744  17.145  0.1880  0.4101 -0.2227
19163TIP3    H178904   0.718   5.805  17.074  0.8071  0.2480 -0.5329
19163TIP3    H278905   0.809   5.786  17.193  0.1762  0.2337 -0.0503
19164TIP3   OH278906   5.938   5.819   1.656  0.0141 -0.1719  0.0849
19164TIP3    H178907   5.910   5.887   1.717 -1.0348 -1.6179  1.2947
19164TIP3    H278908   6.033   5.812   1.669 -0.0903  0.0481  1.0497
19165TIP3   OH278909   0.929   1.294  15.880 -0.3517 -0.6550  0.1588
19165TIP3    H178910   0.901   1.229  15.944 -0.1295 -1.9407 -1.0149
19165TIP3    H278911   0.866   1.366  15.889  0.2787 -0.3281  2.4978
19166TIP3   OH278912   6.385   4.974  16.151  0.1345 -0.7294 -0.2537
19166TIP3    H178913   6.449   4.934  16.209  0.4732  0.7490  0.4486
19166TIP3    H278914   6.423   5.060  16.130 -1.1419 -0.2434 -0.6535
19167TIP3   OH278915   6.646   1.697   1.303 -0.0547 -0.3396  0.1976
19167TIP3    H178916   6.717   1.704   1.367 -0.1675  1.3594  0.1807
19167TIP3    H278917   6.668   1.619   1.252  0.7593 -0.9391  1.4151
19168TIP3   OH278918   6.456   5.557   2.667  0.2578  0.3148 -0.2815
19168TIP3    H178919   6.492   5.628   2.614 -0.2902  0.2948 -0.6944
19168TIP3    H278920   6.366   5.547   2.635  0.7699 -1.5349 -1.2287
19169TIP3   OH278921   5.918   2.998  12.369  0.3347 -0.6184 -0.3360
19169TIP3    H178922   5.954   2.962  12.288 -0.2319 -2.3498  0.1370
19169TIP3    H278923   5.834   2.954  12.380 -1.1079  1.9368 -0.4130
19170TIP3   OH278924   1.603   4.316  13.429 -0.7628  0.2119 -0.3897
19170TIP3    H178925   1.624   4.233  13.386 -1.8568 -0.6164  0.6054
19170TIP3    H278926   1.671   4.376  13.399 -0.4410 -0.8015 -1.8227
19171TIP3   OH278927   2.846   3.384   0.217 -0.3129  0.2321  0.1462
19171TIP3    H178928   2.928   3.425   0.245  0.2648 -0.1127 -0.9661
19171TIP3    H278929   2.870   3.292   0.201 -0.3807  0.5886 -2.2712
19172TIP3   OH278930   0.630   3.335   5.436  0.1602 -0.2558 -0.8304
19172TIP3    H178931   0.541   3.369   5.446  1.0809  2.5371 -1.3853
19172TIP3    H278932   0.623   3.270   5.366 -1.6616 -1.1732  0.1191
19173TIP3   OH278933   5.388   6.729   4.857  0.0549 -0.3523 -0.6356
19173TIP3    H178934   5.308   6.779   4.843  0.1396 -0.1489 -0.3983
19173TIP3    H278935   5.459   6.787   4.830  0.2711  0.3097  1.2248
19174TIP3   OH278936   2.048   0.532   6.126 -0.5546  0.0149 -0.1152
19174TIP3    H178937   2.057   0.623   6.153 -0.2631 -0.4631  1.4770
19174TIP3    H278938   2.013   0.537   6.037  1.8753  1.7178 -1.0713
19175TIP3   OH278939   4.640   1.326   4.988 -0.5173  0.1606 -0.1396
19175TIP3    H178940   4.594   1.380   4.924  2.5433  1.2145 -1.6972
19175TIP3    H278941   4.580   1.254   5.007 -2.3790  0.8912 -2.6622
19176TIP3   OH278942   1.148   4.872  13.100  0.2609  0.6520  0.4024
19176TIP3    H178943   1.175   4.869  13.009 -0.4190  0.6662  0.1937
19176TIP3    H278944   1.195   4.799  13.142 -1.3392 -0.9671 -0.5019
19177TIP3   OH278945   3.587   5.510   6.233 -0.3614  0.2193 -0.8735
19177TIP3    H178946   3.662   5.569   6.247  0.3735 -0.9076  0.1060
19177TIP3    H278947   3.568   5.475   6.320 -0.7167 -1.0735 -1.4602
19178TIP3   OH278948   5.418   5.685   2.195 -0.3084  0.6539  0.1959
19178TIP3    H178949   5.443   5.654   2.107  0.3086 -0.5266  0.7693
19178TIP3    H278950   5.327   5.714   2.185 -0.1218  0.8987 -0.9243
19179TIP3   OH278951   3.608   1.756   2.131 -0.3656  0.0201  0.4234
19179TIP3    H178952   3.624   1.841   2.173  1.0899 -0.0495  0.0690
19179TIP3    H278953   3.626   1.772   2.038 -0.9245 -0.4804  0.2215
19180TIP3   OH278954   0.036   2.190   3.124 -0.6410  0.3095 -0.2176
19180TIP3    H178955   0.094   2.179   3.049 -0.2689  0.4513  0.0453
19180TIP3    H278956  -0.052   2.189   3.087 -0.4468  0.7696 -0.7032
19181TIP3   OH278957   3.159   4.010   5.810 -0.2735 -0.4033 -0.2746
19181TIP3    H178958   3.201   4.068   5.874 -2.8412  0.9449  0.3093
19181TIP3    H278959   3.228   3.948   5.785  2.0563  1.6920  0.5303
19182TIP3   OH278960   1.584   5.954   5.720 -0.1533  0.2125  0.0184
19182TIP3    H178961   1.498   5.920   5.745 -0.5853  1.4250  0.2304
19182TIP3    H278962   1.565   6.028   5.663  0.7021  1.8210  1.7555
19183TIP3   OH278963   4.311   6.148  13.674 -0.0339  0.0585 -0.4818
19183TIP3    H178964   4.397   6.189  13.666 -0.2243  1.4657  2.8933
19183TIP3    H278965   4.321   6.063  13.631  3.3400 -0.1733  0.4686
19184TIP3   OH278966   2.413   2.945  11.873  0.2498 -0.0011 -0.0069
19184TIP3    H178967   2.412   2.853  11.846  0.1523 -0.2884  0.9459
19184TIP3    H278968   2.343   2.985  11.822  0.6901 -0.3247 -0.8757
19185TIP3   OH278969   5.565   3.163  14.265  0.2380  0.0054 -0.5884
19185TIP3    H178970   5.561   3.115  14.348  0.6632 -0.2545 -0.7116
19185TIP3    H278971   5.524   3.104  14.202 -2.0446  1.0770 -0.1928
19186TIP3   OH278972   1.484   6.030  14.489  0.4169  0.2360 -0.1117
19186TIP3    H178973   1.422   5.965  14.456  1.5922 -0.7575 -0.4280
19186TIP3    H278974   1.525   6.068  14.411 -0.1524  1.2813  0.0740
19187TIP3   OH278975   6.280   5.138  15.105  0.2519  0.1091  0.3742
19187TIP3    H178976   6.285   5.119  15.012  3.9984  1.0033  0.2061
19187TIP3    H278977   6.302   5.056  15.148 -1.4776 -0.3039  0.5244
19188TIP3   OH278978   3.175   5.187   1.296 -0.0486  0.0167 -0.1069
19188TIP3    H178979   3.085   5.216   1.284  0.1423  0.4743 -0.4771
19188TIP3    H278980   3.199   5.146   1.213  0.5152  1.0960 -0.4936
19189TIP3   OH278981   5.032   2.722   2.381  0.0651 -0.7479  0.0996
19189TIP3    H178982   5.101   2.716   2.315 -0.7658 -1.3068 -0.7264
19189TIP3    H278983   4.992   2.807   2.366  0.3837 -0.5367  0.4101
19190TIP3   OH278984   6.720   2.081   4.901  0.0246 -0.1897 -0.2940
19190TIP3    H178985   6.724   2.142   4.828 -0.2098  1.4310  1.0022
19190TIP3    H278986   6.803   2.094   4.947 -1.1077  1.1111  1.4698
19191TIP3   OH278987   5.885   4.738   1.807 -0.6237 -0.3044 -0.3142
19191TIP3    H178988   5.804   4.690   1.789 -0.6689 -0.6787  0.7850
19191TIP3    H278989   5.913   4.772   1.722 -0.8328 -1.8947 -1.0481
19192TIP3   OH278990   1.213   2.013   6.361 -0.2095 -0.1812 -0.0384
19192TIP3    H178991   1.292   2.006   6.415  0.2565 -0.2425 -0.7150
19192TIP3    H278992   1.159   1.938   6.387  0.4714 -0.8014 -0.3913
19193TIP3   OH278993   3.881   2.642   4.597  0.2417  0.1560 -0.1846
19193TIP3    H178994   3.962   2.684   4.624  1.9500 -2.3218 -1.1650
19193TIP3    H278995   3.829   2.636   4.677  0.4023  2.8762  0.2268
19194TIP3   OH278996   4.011   4.830   4.003 -0.1758 -0.1075  0.0091
19194TIP3    H178997   4.087   4.882   3.976 -0.3788 -0.0227 -0.4094
19194TIP3    H278998   4.019   4.749   3.953  0.2219 -0.5499  0.7704
19195TIP3   OH278999   2.647   2.872   2.221 -0.4149 -0.1888  0.2682
19195TIP3    H179000   2.721   2.812   2.209  0.0084  0.5018 -0.7053
19195TIP3    H279001   2.606   2.877   2.134 -0.8559  0.3916  0.5057
19196TIP3   OH279002   2.939   3.883   2.364  0.0765 -0.1935 -0.1881
19196TIP3    H179003   2.896   3.964   2.337 -1.4658 -0.3370  1.6038
19196TIP3    H279004   2.876   3.841   2.424  0.4289 -3.1677 -1.6871
19197TIP3   OH279005   1.473   0.215  11.935  0.3929 -0.1061  0.7698
19197TIP3    H179006   1.435   0.174  11.857  0.1894  0.2039  0.7047
19197TIP3    H279007   1.539   0.275  11.900 -0.4902  0.8786  0.7706
19198TIP3   OH279008   1.154   6.108   2.906  0.6710  0.5031  0.1949
19198TIP3    H179009   1.237   6.065   2.885 -0.5727 -2.2718  0.4120
19198TIP3    H279010   1.100   6.093   2.828 -0.5040 -0.2911  1.1318
19199TIP3   OH279011   0.869   0.859  10.907  0.1263  0.1978 -0.1149
19199TIP3    H179012   0.815   0.799  10.957  2.4341 -0.5554  1.6311
19199TIP3    H279013   0.843   0.844  10.816 -1.6816 -0.9943  0.5403
19200TIP3   OH279014   1.224   6.733  15.754 -0.3178  0.5161 -0.2274
19200TIP3    H179015   1.181   6.778  15.681  2.8928  2.3348 -1.2469
19200TIP3    H279016   1.209   6.640  15.737 -1.1744  0.9549 -2.2346
19201TIP3   OH279017   5.299   5.833  11.682  0.6102  0.0586 -0.3576
19201TIP3    H179018   5.354   5.791  11.748  1.4281  1.4160 -0.1442
19201TIP3    H279019   5.342   5.813  11.599  0.5855 -0.1259 -0.3277
19202TIP3   OH279020   5.847   5.073  11.457 -0.2085  0.4166 -0.1311
19202TIP3    H179021   5.865   5.012  11.386 -1.9488 -0.8135  0.4291
19202TIP3    H279022   5.907   5.046  11.527  0.3725  0.5910 -0.5584
19203TIP3   OH279023   5.582   3.639  10.408  0.0759 -0.1627  0.6995
19203TIP3    H179024   5.605   3.580  10.480  0.8427 -0.8851 -0.1238
19203TIP3    H279025   5.582   3.726  10.448  0.4930 -0.5526  1.5740
19204TIP3   OH279026   6.237   0.983  14.756  0.2365  0.5289 -0.3686
19204TIP3    H179027   6.145   0.988  14.728  0.1253 -0.1340 -0.1362
19204TIP3    H279028   6.286   1.016  14.681 -0.1746  0.6631 -0.5845
19205TIP3   OH279029   1.075   4.248  12.692 -0.4483  0.6567 -0.2036
19205TIP3    H179030   1.043   4.255  12.602 -1.4153  0.4222  0.1075
19205TIP3    H279031   1.170   4.240  12.683 -0.7146 -3.6639 -1.4730
19206TIP3   OH279032   1.910   3.499   4.982 -0.2011  0.3352  0.1082
19206TIP3    H179033   1.993   3.451   4.985 -1.5100 -2.4303 -2.5177
19206TIP3    H279034   1.852   3.451   5.041 -0.6438  0.6529 -0.0622
19207TIP3   OH279035   2.721   4.599   2.577  0.3059 -0.2126  0.5891
19207TIP3    H179036   2.696   4.526   2.632  1.4021 -1.0166  0.0629
19207TIP3    H279037   2.639   4.632   2.541 -0.0850 -2.5166 -0.8046
19208TIP3   OH279038   6.257   1.744  11.637 -0.5748 -0.0186  0.6026
19208TIP3    H179039   6.352   1.728  11.632 -0.4917 -0.1214  1.9722
19208TIP3    H279040   6.240   1.810  11.570  0.3186 -0.6148 -0.2361
19209TIP3   OH279041   2.495   4.734  16.536  0.4415  0.1107  0.6217
19209TIP3    H179042   2.501   4.757  16.443 -0.2420  0.6993  0.7175
19209TIP3    H279043   2.430   4.663  16.539  1.4306 -0.8377  0.5088
19210TIP3   OH279044   3.109   1.264   6.015  0.6487 -0.7743 -0.4568
19210TIP3    H179045   3.138   1.222   5.934  0.1218 -0.2923 -0.9049
19210TIP3    H279046   3.028   1.219   6.038  0.4574 -0.4830 -0.5518
19211TIP3   OH279047   3.877   4.264   5.864 -0.3961  0.2521 -0.4697
19211TIP3    H179048   3.961   4.304   5.841 -0.6568  1.5472  0.6888
19211TIP3    H279049   3.811   4.319   5.821 -0.7868  1.5149  1.6212
19212TIP3   OH279050   5.664   5.859   1.859  0.1930 -0.2483 -0.5280
19212TIP3    H179051   5.740   5.899   1.900  0.7430 -1.4627 -0.3216
19212TIP3    H279052   5.694   5.836   1.770  0.2672 -1.2541 -0.2543
19213TIP3   OH279053   0.252   1.790   1.403 -0.4375  0.1856 -0.0144
19213TIP3    H179054   0.254   1.737   1.323 -1.4291 -0.3419  0.3027
19213TIP3    H279055   0.345   1.800   1.426 -0.2163 -1.8360  0.1917
19214TIP3   OH279056   4.395   1.713   2.352 -0.6380 -0.7334  1.0008
19214TIP3    H179057   4.356   1.800   2.362 -1.2464 -1.1065  2.1272
19214TIP3    H279058   4.468   1.726   2.292  0.2532  0.8871  2.3268
19215TIP3   OH279059   4.715   4.184   6.249 -0.2134  0.3040 -0.0492
19215TIP3    H179060   4.689   4.255   6.190  0.3644  0.4081 -0.1848
19215TIP3    H279061   4.649   4.184   6.318 -1.2856 -0.2406 -1.0370
19216TIP3   OH279062   6.532   0.185   2.147 -0.2723 -0.7095  0.5516
19216TIP3    H179063   6.556   0.093   2.158 -1.2886 -0.9897  0.4549
19216TIP3    H279064   6.616   0.230   2.135  0.2667 -1.5523  1.0750
19217TIP3   OH279065   1.846   6.018   5.764  0.1797 -0.1060 -0.5617
19217TIP3    H179066   1.752   5.999   5.765  0.2623 -0.6063  1.1051
19217TIP3    H279067   1.881   5.972   5.841  1.7804  0.1382 -1.0972
19218TIP3   OH279068   0.040   4.789   5.627  0.7076  1.1156 -0.6806
19218TIP3    H179069   0.016   4.873   5.665 -1.0206  0.9426 -1.3075
19218TIP3    H279070  -0.043   4.742   5.617  1.2251  0.6171 -3.3469
19219TIP3   OH279071   0.189   1.069  14.974  0.1148  0.2307 -0.4527
19219TIP3    H179072   0.156   1.035  14.891  1.2841  0.9462 -1.2398
19219TIP3    H279073   0.112   1.105  15.017 -0.4472  0.2181 -1.4192
19220TIP3   OH279074   4.252   0.084   1.226 -0.1631 -0.0456 -0.4744
19220TIP3    H179075   4.174   0.031   1.213  0.3629 -1.1128  0.5461
19220TIP3    H279076   4.234   0.136   1.304  0.5897 -1.2104  0.5085
19221TIP3   OH279077   3.004   4.919   5.463  0.1082  0.0931  0.2727
19221TIP3    H179078   3.057   4.967   5.400  2.3144  2.5548  3.6639
19221TIP3    H279079   3.036   4.829   5.458  0.8300  0.4057 -1.3829
19222TIP3   OH279080   1.157   1.283   6.137 -0.5241  0.5616  0.2241
19222TIP3    H179081   1.109   1.289   6.220 -1.1255 -1.9283  0.1237
19222TIP3    H279082   1.164   1.189   6.120 -0.0259  1.0010 -2.3496
19223TIP3   OH279083   2.302   5.005   5.770 -0.3444 -0.2753 -0.2850
19223TIP3    H179084   2.222   5.001   5.718  0.9477 -0.0527 -2.4262
19223TIP3    H279085   2.370   5.028   5.707  1.3545 -0.0345  1.5348
19224TIP3   OH279086   3.664   6.383   3.010 -0.4447  0.3596 -0.0675
19224TIP3    H179087   3.598   6.406   3.075 -1.7033 -1.2298 -0.7114
19224TIP3    H279088   3.625   6.311   2.960  0.7198  1.1020 -2.1907
19225TIP3   OH279089   0.898   6.727  12.237  0.5591 -0.0676 -0.3938
19225TIP3    H179090   0.809   6.731  12.203  1.4102  1.3656 -2.6828
19225TIP3    H279091   0.901   6.644  12.285 -1.8960 -0.2953 -0.4947
19226TIP3   OH279092   0.211   6.553   1.957  0.4772  0.3655  0.5278
19226TIP3    H179093   0.199   6.480   2.017 -2.4569 -0.1972 -0.5719
19226TIP3    H279094   0.248   6.514   1.877  1.0979  0.5290  0.7233
19227TIP3   OH279095   0.422   0.429   5.549 -0.1255  0.2035  0.6714
19227TIP3    H179096   0.333   0.427   5.583 -0.8099 -0.1291 -1.0337
19227TIP3    H279097   0.411   0.442   5.455  1.6839  1.6757  0.6027
19228TIP3   OH279098   2.216   3.735   3.984 -1.0612  0.0701  0.1682
19228TIP3    H179099   2.249   3.646   3.998  0.3422  0.2194 -1.6862
19228TIP3    H279100   2.123   3.724   3.966 -1.3769 -0.7620  2.1323
19229TIP3   OH279101   0.776   5.802   3.612  0.4881  0.3143  1.1071
19229TIP3    H179102   0.808   5.741   3.678 -0.8141 -0.5456  0.9964
19229TIP3    H279103   0.737   5.873   3.662  1.2629  0.6536  1.2422
19230TIP3   OH279104   5.728   2.427  14.744  0.0967  0.1104 -0.0387
19230TIP3    H179105   5.681   2.485  14.804 -1.5113 -0.4356 -0.7264
19230TIP3    H279106   5.759   2.355  14.800 -1.8865 -0.6932  0.1077
19231TIP3   OH279107   4.026   2.378  11.395  0.1144 -0.2921  0.0350
19231TIP3    H179108   3.953   2.418  11.442 -0.1852  1.7145 -1.9685
19231TIP3    H279109   4.103   2.397  11.449 -0.5577 -0.5874  1.1162
19232TIP3   OH279110   4.851   1.233  16.559  0.0221  0.1570 -0.4792
19232TIP3    H179111   4.765   1.272  16.573 -0.1755 -0.1350 -0.8637
19232TIP3    H279112   4.834   1.155  16.506  0.3878 -0.5666  0.4232
19233TIP3   OH279113   1.940   4.868   6.764 -0.3261 -1.0501 -0.3241
19233TIP3    H179114   2.002   4.895   6.696  0.7950 -2.3556  0.1132
19233TIP3    H279115   1.950   4.773   6.767 -1.2422 -1.1195  0.8325
19234TIP3   OH279116   1.596   0.033   0.298  0.7798  0.0105  0.1543
19234TIP3    H179117   1.503   0.020   0.310  1.0193 -1.2293  0.7706
19234TIP3    H279118   1.615  -0.007   0.213  1.1496 -2.0145  1.1260
19235TIP3   OH279119   4.849   1.794   3.348  0.2162  0.0823  0.6890
19235TIP3    H179120   4.826   1.862   3.285 -0.5210 -1.1285 -0.4055
19235TIP3    H279121   4.786   1.724   3.331  1.6451 -1.3369  1.0080
19236TIP3   OH279122   4.808   5.962  13.537  0.2534  0.1616 -0.1668
19236TIP3    H179123   4.859   6.033  13.578 -0.6521  0.2806  0.7850
19236TIP3    H279124   4.853   5.882  13.564  0.0629  0.2765  0.5171
19237TIP3   OH279125   2.819   4.997  11.617 -0.4080  0.7479  0.2803
19237TIP3    H179126   2.853   5.063  11.557 -2.1692  1.9494  0.5457
19237TIP3    H279127   2.746   4.957  11.571 -0.3815  0.1172  0.7677
19238TIP3   OH279128   5.596   0.540   5.086 -0.1769 -0.3697  0.5429
19238TIP3    H179129   5.588   0.455   5.042 -0.5122 -0.2139  0.3018
19238TIP3    H279130   5.623   0.600   5.017  0.7647 -0.4186  0.8606
19239TIP3   OH279131   6.119   4.971   5.644  0.0631 -0.1420  0.5140
19239TIP3    H179132   6.030   4.965   5.611 -0.1725  1.2354  0.8211
19239TIP3    H279133   6.125   5.060   5.681  2.0669  0.4591 -1.0384
19240TIP3   OH279134   1.456   0.807   4.435  0.0193 -0.6286  0.1210
19240TIP3    H179135   1.498   0.724   4.455 -0.5363 -0.6475  1.3146
19240TIP3    H279136   1.479   0.825   4.344 -0.4153 -2.4183 -0.3773
19241TIP3   OH279137   3.259   1.390  17.180 -0.1976 -0.2942  0.3169
19241TIP3    H179138   3.167   1.363  17.187 -0.4253  0.1216 -0.9292
19241TIP3    H279139   3.274   1.401  17.086  1.4062 -1.2778  0.4224
19242TIP3   OH279140   0.860   1.354   2.204 -0.0384  1.1213  0.0126
19242TIP3    H179141   0.844   1.440   2.243 -0.0178  1.6018 -1.0003
19242TIP3    H279142   0.826   1.361   2.115  1.6506  0.7046 -0.7209
19243TIP3   OH279143   3.808   6.584  17.359  0.3219  0.5502 -0.3447
19243TIP3    H179144   3.881   6.567  17.419 -1.3801  1.9368  2.3023
19243TIP3    H279145   3.752   6.506  17.367 -0.8739  1.5446  1.4751
19244TIP3   OH279146   6.256   2.878  13.775  0.2512  0.0402 -0.6453
19244TIP3    H179147   6.238   2.965  13.812  0.4117  0.1546 -0.8297
19244TIP3    H279148   6.177   2.828  13.792  0.5388 -0.0910  0.3663
19245TIP3   OH279149   2.525   0.485  13.925 -0.1135 -0.2569  0.3784
19245TIP3    H179150   2.560   0.521  14.008  0.2654  0.3557 -0.0360
19245TIP3    H279151   2.601   0.481  13.867 -0.0841 -1.9965  0.4725
19246TIP3   OH279152   3.655   3.870   6.314 -0.0377 -0.3709  0.5291
19246TIP3    H179153   3.736   3.919   6.331  1.5343 -3.2150  1.8889
19246TIP3    H279154   3.608   3.875   6.397 -0.3598 -0.3369  0.3434
19247TIP3   OH279155   2.280   0.313   0.538 -0.5209 -0.3165  0.2443
19247TIP3    H179156   2.210   0.280   0.595 -0.6667  0.6801  0.6784
19247TIP3    H279157   2.237   0.329   0.454  0.2458 -4.3669 -1.1245
19248TIP3   OH279158   6.291   4.582  10.581 -0.0808  0.1265  0.3750
19248TIP3    H179159   6.383   4.587  10.554 -0.2922 -0.4939 -0.4621
19248TIP3    H279160   6.284   4.499  10.628 -0.1325  0.3577  0.7854
19249TIP3   OH279161   2.849   5.796  12.829  0.0359 -0.1796  0.1164
19249TIP3    H179162   2.771   5.740  12.835 -0.9287  1.0020 -0.8396
19249TIP3    H279163   2.828   5.872  12.884 -0.0013  0.6965 -1.0709
19250TIP3   OH279164   2.618   4.342  14.253 -0.1544 -0.0312 -0.1708
19250TIP3    H179165   2.688   4.396  14.218 -0.4230  0.9320  0.7134
19250TIP3    H279166   2.606   4.272  14.189  2.3116 -0.8236  0.1506
19251TIP3   OH279167   2.482   2.099  11.811 -0.2411 -0.2477  0.5631
19251TIP3    H179168   2.488   2.104  11.907 -1.4270 -0.9719  0.6947
19251TIP3    H279169   2.571   2.117  11.781  0.0854  0.3146  1.7818
19252TIP3   OH279170   2.106   2.416   1.624 -0.7933 -0.0765 -0.3846
19252TIP3    H179171   2.148   2.496   1.592  0.4102 -0.4998  0.1036
19252TIP3    H279172   2.084   2.435   1.715  0.0752 -0.5129 -0.0769
19253TIP3   OH279173   0.811   1.393  13.558  0.4155  0.1370  0.1634
19253TIP3    H179174   0.888   1.435  13.520  2.9803 -1.5527  2.9922
19253TIP3    H279175   0.819   1.301  13.533 -3.2974  0.4761 -3.1815
19254TIP3   OH279176   1.890   5.398   5.973  0.2118  0.4976 -0.6115
19254TIP3    H179177   1.834   5.474   5.960 -0.3593  0.2258  0.1489
19254TIP3    H279178   1.971   5.419   5.927 -0.4526  0.9630 -1.5983
19255TIP3   OH279179   2.894   3.053   2.234  0.1195  0.3183  0.1186
19255TIP3    H179180   2.887   3.125   2.297  0.4853 -0.1979  0.7622
19255TIP3    H279181   2.803   3.034   2.209 -0.0124  0.6657  0.3253
19256TIP3   OH279182   4.069   6.072  11.732  0.0473 -0.0339 -0.3395
19256TIP3    H179183   4.063   6.106  11.643  0.5542 -0.1672 -0.4272
19256TIP3    H279184   3.979   6.050  11.755 -0.1041  0.1230 -0.7690
19257TIP3   OH279185   1.150   5.389  16.314 -0.2679  0.0692  0.4380
19257TIP3    H179186   1.215   5.376  16.383  1.5692  1.3510 -0.9571
19257TIP3    H279187   1.083   5.444  16.354  0.8105  0.8692  1.1925
19258TIP3   OH279188   2.063   2.702   4.421  0.9227 -0.0409  0.0697
19258TIP3    H179189   2.141   2.748   4.390  0.7423 -0.7392 -1.5193
19258TIP3    H279190   2.084   2.610   4.410 -0.3670 -0.2285 -1.0655
19259TIP3   OH279191   3.544   5.093   6.652  0.4924  0.6301 -0.5711
19259TIP3    H179192   3.456   5.131   6.650  0.3181  0.4956  1.6679
19259TIP3    H279193   3.599   5.161   6.690  0.3666 -0.8251  2.5534
19260TIP3   OH279194   5.634   6.475  14.703  0.1859 -1.0853  0.1559
19260TIP3    H179195   5.589   6.507  14.625 -0.4493 -0.0040  0.9450
19260TIP3    H279196   5.572   6.414  14.744  0.3840 -1.3883  0.0145
19261TIP3   OH279197   3.376   4.606   1.260 -0.6327 -0.3752  0.2550
19261TIP3    H179198   3.328   4.596   1.178  0.0814 -1.8431 -0.0044
19261TIP3    H279199   3.322   4.666   1.312 -0.3703  1.8185 -1.8193
19262TIP3   OH279200   4.298   2.633  11.700 -0.0721 -0.0712 -0.4696
19262TIP3    H179201   4.277   2.595  11.785 -0.7235 -1.3298 -1.1714
19262TIP3    H279202   4.394   2.637  11.699  0.0060 -1.4327 -0.2434
19263TIP3   OH279203   2.268   1.019   3.197  0.0893  0.1399  0.0617
19263TIP3    H179204   2.302   1.101   3.161 -1.3557  0.6220 -0.2745
19263TIP3    H279205   2.192   1.045   3.248 -0.1841 -0.9614  0.2455
19264TIP3   OH279206   4.231   1.752  14.136  0.7234  0.4723  0.6574
19264TIP3    H179207   4.227   1.812  14.062 -1.8615 -0.3221  0.0571
19264TIP3    H279208   4.256   1.808  14.210  0.9728  1.7501 -0.3526
19265TIP3   OH279209   1.736   1.162   1.272 -0.8258  0.0792 -0.2301
19265TIP3    H179210   1.759   1.220   1.345  2.3724 -1.5106  0.1759
19265TIP3    H279211   1.742   1.218   1.194  0.7949  0.6842  0.2839
19266TIP3   OH279212   4.898   4.141   2.333  0.0820 -0.2693  0.4058
19266TIP3    H179213   4.814   4.096   2.326  0.1070 -0.4053  0.9555
19266TIP3    H279214   4.933   4.140   2.243  0.6748 -2.4989  0.6153
19267TIP3   OH279215   3.196   4.559  17.209 -0.0663  0.3078 -0.0217
19267TIP3    H179216   3.142   4.637  17.193 -0.2930  0.1851  0.1542
19267TIP3    H279217   3.178   4.535  17.299 -1.3815 -1.0162 -0.6075
19268TIP3   OH279218   2.244   4.443   4.556 -0.3412 -0.2739  0.5249
19268TIP3    H179219   2.245   4.347   4.562  1.0421 -0.3184  0.0527
19268TIP3    H279220   2.280   4.472   4.640 -0.6669 -0.1718  0.6291
19269TIP3   OH279221   5.314   6.137   4.397  0.2548  0.6291  0.5068
19269TIP3    H179222   5.400   6.097   4.386  0.7829  1.8638 -0.0989
19269TIP3    H279223   5.254   6.080   4.350  0.4821 -1.0019  2.0717
19270TIP3   OH279224   0.042   2.882   4.410 -0.2510  0.3571 -0.0075
19270TIP3    H179225  -0.006   2.865   4.330 -0.1121 -0.5182  0.0754
19270TIP3    H279226  -0.001   2.827   4.476  0.6521 -0.2018  0.1341
19271TIP3   OH279227   0.437   3.798  13.274 -0.1901  0.6329 -0.2196
19271TIP3    H179228   0.493   3.758  13.340  0.2134 -0.4186 -1.1629
19271TIP3    H279229   0.496   3.856  13.225 -0.6887  2.1490  0.8931
19272TIP3   OH279230   0.463   1.536  16.032 -0.6705 -0.0397  0.2113
19272TIP3    H179231   0.449   1.540  16.126 -0.9135  0.3857  0.1648
19272TIP3    H279232   0.422   1.617  15.999  1.4656  1.0227 -0.0065
19273TIP3   OH279233   6.089   3.161   3.372  0.2500 -0.4586  0.2646
19273TIP3    H179234   6.113   3.112   3.451  0.5606 -0.6742  0.0408
19273TIP3    H279235   6.160   3.225   3.362  1.0813 -1.4813 -0.7306
19274TIP3   OH279236   0.234   2.902   6.695  0.0991 -0.6467  0.2155
19274TIP3    H179237   0.146   2.933   6.719 -0.6282 -1.3838 -1.3561
19274TIP3    H279238   0.260   2.959   6.623  1.0255 -0.3123  0.7888
19275TIP3   OH279239   3.701   4.904   5.412  0.2308  0.4345 -0.2871
19275TIP3    H179240   3.634   4.964   5.379  1.1920  1.4423 -0.4772
19275TIP3    H279241   3.759   4.960   5.465  0.8292 -0.4430  0.0016
19276TIP3   OH279242   3.820   0.677   3.668  0.4893  0.1811  0.2597
19276TIP3    H179243   3.821   0.618   3.593 -0.1583  1.0870 -0.4856
19276TIP3    H279244   3.727   0.689   3.687  0.5671 -2.6365  3.3569
19277TIP3   OH279245   0.440   0.419   0.182  0.3863 -0.3070  0.4199
19277TIP3    H179246   0.366   0.429   0.123  0.9310  0.7465 -0.1100
19277TIP3    H279247   0.509   0.381   0.128  1.3490  1.9462 -0.0784
19278TIP3   OH279248   4.681   0.294   1.562 -0.0837  0.1795 -0.3854
19278TIP3    H179249   4.688   0.289   1.658 -1.0829 -0.7579 -0.3403
19278TIP3    H279250   4.736   0.222   1.531  0.7331  0.8593 -0.5633
19279TIP3   OH279251   0.707   3.721  11.316 -0.8381  0.5587  0.1865
19279TIP3    H179252   0.660   3.766  11.245  1.2970  0.8880 -1.0837
19279TIP3    H279253   0.748   3.646  11.274  1.4944  1.4425  0.7716
19280TIP3   OH279254   4.251   2.039  13.167 -0.2449 -0.2994 -0.2907
19280TIP3    H179255   4.309   2.112  13.147 -1.0143 -0.0194 -1.6158
19280TIP3    H279256   4.221   2.008  13.081 -2.6420  0.0543  0.3459
19281TIP3   OH279257   5.920   5.902  15.285 -0.0022  0.3244 -0.4196
19281TIP3    H179258   5.871   5.926  15.364  1.3212  1.5033  0.0819
19281TIP3    H279259   5.992   5.847  15.317  1.8563  2.6037 -0.4236
19282TIP3   OH279260   1.238   2.761   5.884 -0.1461 -0.0361  0.4827
19282TIP3    H179261   1.201   2.769   5.796 -1.7651 -0.4610  1.0801
19282TIP3    H279262   1.182   2.696   5.927  0.0768  0.7890  2.0827
19283TIP3   OH279263   4.153   1.097  13.120  0.1153  0.3756  0.2042
19283TIP3    H179264   4.121   1.011  13.092 -2.1557  1.2832 -0.2001
19283TIP3    H279265   4.229   1.077  13.174  0.0965 -1.8430 -0.4733
19284TIP3   OH279266   2.339   5.126   1.757 -0.4313 -0.3578  0.4033
19284TIP3    H179267   2.309   5.092   1.673 -0.0687  0.1537  0.0575
19284TIP3    H279268   2.293   5.210   1.767  1.9260  1.2247 -0.8751
19285TIP3   OH279269   5.775   4.013  15.364  0.2975 -0.5170  0.0150
19285TIP3    H179270   5.721   4.081  15.324 -0.3891 -1.2329 -0.3124
19285TIP3    H279271   5.726   3.986  15.442 -0.3716 -1.9018 -0.8503
19286TIP3   OH279272   4.570   5.754   3.855 -0.3910  0.5849 -0.3629
19286TIP3    H179273   4.492   5.808   3.869 -1.3446 -1.2113  1.8990
19286TIP3    H279274   4.571   5.693   3.929  1.1388 -1.8643 -2.2340
19287TIP3   OH279275   4.049   0.529   5.279 -0.3688  0.6225 -0.2285
19287TIP3    H179276   4.069   0.602   5.221  1.4822 -0.5682 -1.2077
19287TIP3    H279277   3.955   0.516   5.271 -0.8090  3.0703  0.2539
19288TIP3   OH279278   6.600   4.316  11.530  0.0063 -0.0345  0.4476
19288TIP3    H179279   6.574   4.288  11.443  0.4395  1.8426 -0.3394
19288TIP3    H279280   6.690   4.284  11.541  0.3817  0.7276 -0.3018
19289TIP3   OH279281   4.429   5.385  16.334  0.1866  0.1599 -0.0008
19289TIP3    H179282   4.456   5.464  16.380 -0.4171  0.2776  0.1557
19289TIP3    H279283   4.477   5.388  16.251 -1.7652  2.0645 -1.1694
19290TIP3   OH279284   4.766   6.203  15.602  0.5133  0.3460  0.3248
19290TIP3    H179285   4.705   6.145  15.646 -0.4927 -0.5636 -2.0985
19290TIP3    H279286   4.852   6.165  15.619  0.0707 -0.5124  0.7079
19291TIP3   OH279287   4.449   5.335   5.244 -0.4036  0.2435 -0.3461
19291TIP3    H179288   4.535   5.334   5.286  0.6595 -0.7501 -2.3928
19291TIP3    H279289   4.438   5.425   5.212 -0.3398  0.4902  0.3249
19292TIP3   OH279290   3.567   5.388  15.701  0.2156  0.1457 -0.1658
19292TIP3    H179291   3.574   5.401  15.795  1.8367  1.0744 -0.3740
19292TIP3    H279292   3.603   5.300  15.686  0.1023  0.0602  0.0588
19293TIP3   OH279293   4.477   0.514   5.610 -0.1423 -0.4500  0.5469
19293TIP3    H179294   4.386   0.535   5.591  0.5779  1.9276 -0.7861
19293TIP3    H279295   4.517   0.503   5.524  1.1027 -0.0892  1.0580
19294TIP3   OH279296   4.693   1.390   0.962  0.6837  0.3426 -0.6099
19294TIP3    H179297   4.703   1.481   0.989 -2.5719  0.7672 -0.4015
19294TIP3    H279298   4.738   1.386   0.877  1.4942  1.9244 -0.3083
19295TIP3   OH279299   4.274   5.369   5.524  0.2925 -0.1341 -0.5377
19295TIP3    H179300   4.304   5.385   5.434 -1.6053 -1.7078 -1.5362
19295TIP3    H279301   4.352   5.336   5.570  1.3446  0.8859 -1.5173
19296TIP3   OH279302   3.458   5.934   2.410 -0.2759 -0.0559  0.3642
19296TIP3    H179303   3.376   5.965   2.370  0.0381 -0.1941 -0.4176
19296TIP3    H279304   3.439   5.928   2.503 -0.7767  1.1315  0.3540
19297TIP3   OH279305   1.547   1.797   1.586 -0.4371  0.2813 -0.1448
19297TIP3    H179306   1.590   1.843   1.659 -0.0475  1.0780 -0.8653
19297TIP3    H279307   1.467   1.762   1.625  0.9275 -1.4535  1.2976
19298TIP3   OH279308   3.761   1.834   5.883 -0.7330  0.2095  0.2114
19298TIP3    H179309   3.852   1.839   5.912 -0.2384  1.5096 -1.4167
19298TIP3    H279310   3.756   1.750   5.837  0.3227  1.0850 -1.6457
19299TIP3   OH279311   1.026   5.796  15.463 -0.4422 -0.3123 -0.1481
19299TIP3    H179312   1.055   5.735  15.531  0.2769  0.5046  0.2805
19299TIP3    H279313   0.956   5.847  15.505  2.2003  2.5133  1.1954
19300TIP3   OH279314   2.917   4.145   1.885  0.2577  0.1491  0.0471
19300TIP3    H179315   2.849   4.084   1.914  2.4916 -1.2708  2.8082
19300TIP3    H279316   2.953   4.106   1.806 -0.2395 -0.5993  0.1822
19301TIP3   OH279317   3.588   2.620   1.774  0.0332 -0.1471  0.0161
19301TIP3    H179318   3.571   2.526   1.778 -0.3849 -0.1262 -0.9247
19301TIP3    H279319   3.602   2.646   1.865 -3.2953 -0.4730  0.7417
19302TIP3   OH279320   2.772   1.650   1.526  0.8992  0.0729 -0.1977
19302TIP3    H179321   2.737   1.608   1.448  0.8518  0.3050 -0.2998
19302TIP3    H279322   2.696   1.660   1.584  1.0105 -0.4847  0.0510
19303TIP3   OH279323   6.437   2.753   0.766  0.3084 -0.0816  0.4591
19303TIP3    H179324   6.489   2.799   0.700  0.6592  0.2114  0.9218
19303TIP3    H279325   6.367   2.710   0.717  1.1550 -0.7239 -0.2127
19304TIP3   OH279326   2.360   3.154   5.216  0.1441 -0.3015  0.7355
19304TIP3    H179327   2.363   3.246   5.241  1.4187 -0.3231  0.7602
19304TIP3    H279328   2.401   3.108   5.289 -0.2416 -0.8585  0.6088
19305TIP3   OH279329   2.020   2.862   1.546 -0.3556 -0.6412 -0.2474
19305TIP3    H179330   1.991   2.928   1.482 -1.4235 -1.3511 -0.5164
19305TIP3    H279331   2.114   2.877   1.554 -0.7310  1.7377  0.6379
19306TIP3   OH279332   4.035   0.314  13.519  0.0897 -0.3645  0.5246
19306TIP3    H179333   4.012   0.234  13.472  0.2465 -0.0571 -0.0870
19306TIP3    H279334   3.960   0.330  13.577  0.9788 -2.1266  2.2783
19307TIP3   OH279335   3.588   1.232  16.820  0.1588  0.6071  0.0976
19307TIP3    H179336   3.673   1.192  16.839  0.3894  1.1459  0.2115
19307TIP3    H279337   3.602   1.281  16.739  0.2555  1.5512  0.6607
19308TIP3   OH279338   1.654   6.268  16.842  0.1524  0.2354 -0.3486
19308TIP3    H179339   1.730   6.259  16.784  0.1495  0.2621 -0.3569
19308TIP3    H279340   1.579   6.252  16.785  0.1174  0.8603 -0.4866
19309TIP3   OH279341   1.054   2.158   4.375 -1.0047  0.3440  0.2327
19309TIP3    H179342   1.135   2.199   4.343  0.3313 -0.1845  2.6797
19309TIP3    H279343   1.069   2.064   4.365 -1.9033  0.2624 -0.5097
19310TIP3   OH279344   5.858   0.845   0.664 -0.1580 -0.0932 -0.0581
19310TIP3    H179345   5.868   0.750   0.663  1.7491  0.0572  0.5610
19310TIP3    H279346   5.773   0.859   0.706  0.2271 -1.5174  1.3158
19311TIP3   OH279347   3.143   2.082  16.205 -0.3175 -0.2070 -0.3246
19311TIP3    H179348   3.176   2.150  16.147 -0.0195 -0.2341 -0.1900
19311TIP3    H279349   3.221   2.048  16.249 -0.3966 -1.0444 -0.8240
19312TIP3   OH279350   3.242   2.248   1.753 -0.3225  0.1255 -0.4040
19312TIP3    H179351   3.259   2.341   1.739  1.1954  0.3814  2.3715
19312TIP3    H279352   3.328   2.212   1.775 -1.0240 -1.7825 -0.6483
19313TIP3   OH279353   6.337   5.168   0.936 -0.1820 -0.2033  0.0945
19313TIP3    H179354   6.328   5.243   0.877  0.1167  0.0665  0.3856
19313TIP3    H279355   6.422   5.129   0.911  0.8502  1.0046  1.5601
19314TIP3   OH279356   4.258   5.079  16.507 -0.2103  0.4468  0.1280
19314TIP3    H179357   4.300   5.126  16.579  0.8207 -1.9511  1.1677
19314TIP3    H279358   4.324   5.077  16.437  0.2799 -0.6294  0.6070
19315TIP3   OH279359   0.617   6.306   0.064  0.3918  0.3312 -0.4539
19315TIP3    H179360   0.655   6.299   0.152 -0.4418 -0.2898 -0.1339
19315TIP3    H279361   0.553   6.377   0.072  0.4555  0.4043 -0.6085
19316TIP3   OH279362   0.587   4.842  14.999  0.1479 -0.0690 -0.2800
19316TIP3    H179363   0.587   4.804  15.087  0.8908  2.3876  0.8869
19316TIP3    H279364   0.498   4.874  14.987  0.0476 -0.4005 -0.4116
19317TIP3   OH279365   0.085   3.902  15.130 -0.6582 -0.3252  0.1682
19317TIP3    H179366   0.019   3.954  15.176 -1.1792 -2.8435  2.6278
19317TIP3    H279367   0.051   3.893  15.041 -2.6730  0.0617  0.8360
19318TIP3   OH279368   6.391   5.600  15.158  0.5039  0.0805  0.0576
19318TIP3    H179369   6.328   5.650  15.210  0.2642  0.3055 -0.4402
19318TIP3    H279370   6.403   5.652  15.079  0.6729 -0.3810 -0.2232
19319TIP3   OH279371   4.224   2.191  11.699  0.6990 -0.0213  0.1580
19319TIP3    H179372   4.130   2.207  11.702  0.7287  0.0446  0.9077
19319TIP3    H279373   4.248   2.207  11.607 -0.1364 -0.7369 -0.1991
19320TIP3   OH279374   5.785   2.693   0.255  0.2193  0.9914 -0.4475
19320TIP3    H179375   5.754   2.782   0.234 -2.6141  0.3193  0.4265
19320TIP3    H279376   5.709   2.637   0.238  0.7512 -0.7992  2.4282
19321TIP3   OH279377   1.426   3.729   5.924  0.5056 -0.3514 -0.2969
19321TIP3    H179378   1.377   3.810   5.937  1.0697  0.1325 -1.1326
19321TIP3    H279379   1.515   3.758   5.901  0.2879 -1.1528 -2.3745
19322TIP3   OH279380   4.261   4.660   6.098 -0.0708 -0.3852  0.1278
19322TIP3    H179381   4.195   4.729   6.095  2.2967  2.0570 -0.0335
19322TIP3    H279382   4.277   4.638   6.007  0.5585  0.3205  0.0596
19323TIP3   OH279383   3.583   4.886   3.051  0.6036  0.1643 -0.4590
19323TIP3    H179384   3.547   4.802   3.079  0.6427 -0.1520 -1.3357
19323TIP3    H279385   3.528   4.951   3.095  1.0016 -0.3026  0.7769
19324TIP3   OH279386   5.524   4.973   0.653 -0.2608 -0.0164 -0.1481
19324TIP3    H179387   5.480   4.936   0.730 -1.0431 -0.2205 -0.6729
19324TIP3    H279388   5.485   5.060   0.643  1.1179  0.7142  0.7130
19325TIP3   OH279389   1.144   1.081   1.678  0.0918  0.1593 -0.2871
19325TIP3    H179390   1.156   1.042   1.591  0.4003 -2.1197  0.7281
19325TIP3    H279391   1.128   1.174   1.660 -0.9710 -0.4363 -2.8394
19326TIP3   OH279392   5.645   6.140  11.965 -0.1285 -0.0693 -0.3784
19326TIP3    H179393   5.570   6.096  11.926  0.0325 -1.1859  0.5068
19326TIP3    H279394   5.688   6.183  11.892 -0.6950 -0.8177 -1.1781
19327TIP3   OH279395   3.890   3.059  17.325 -0.1300  0.8109 -0.3487
19327TIP3    H179396   3.925   2.973  17.350  1.5022  1.6063  0.1962
19327TIP3    H279397   3.948   3.122  17.367 -0.2814  2.1995 -2.1244
19328TIP3   OH279398   5.196   4.645   0.344  0.6284 -0.3454 -0.5495
19328TIP3    H179399   5.283   4.655   0.382 -0.1504  0.9675  1.0019
19328TIP3    H279400   5.179   4.728   0.300 -1.0501  0.7373  1.9158
19329TIP3   OH279401   4.717   3.032   5.362  0.1880 -0.2793  0.7298
19329TIP3    H179402   4.668   3.069   5.435 -0.3363 -0.8675  0.6887
19329TIP3    H279403   4.808   3.058   5.377  0.1350 -0.6622  1.7608
19330TIP3   OH279404   0.977   2.966  16.065  0.3319 -0.1864 -0.2051
19330TIP3    H179405   0.925   2.988  15.988  0.6561 -0.5014 -0.5230
19330TIP3    H279406   0.913   2.947  16.134 -0.0650 -2.5950 -1.1301
19331TIP3   OH279407   5.670   5.158  15.795 -0.0990  0.1156 -0.8178
19331TIP3    H179408   5.661   5.131  15.886 -1.6232 -0.3413 -1.0681
19331TIP3    H279409   5.645   5.251  15.795 -4.9688 -0.9304 -1.3674
19332TIP3   OH279410   0.094   3.251   0.878 -0.3447 -0.8390 -0.0142
19332TIP3    H179411   0.102   3.307   0.801 -1.1876  1.2773  1.3311
19332TIP3    H279412   0.174   3.266   0.927 -1.6130  1.2764  1.5735
19333TIP3   OH279413   4.785   6.528  13.331 -0.2841  0.3086  0.1807
19333TIP3    H179414   4.739   6.470  13.270  2.0903 -0.1249 -1.3573
19333TIP3    H279415   4.719   6.590  13.360 -2.0192 -0.8047 -1.1835
19334TIP3   OH279416   1.571   0.800   1.682 -0.8228 -0.3302  0.6065
19334TIP3    H179417   1.598   0.842   1.763 -2.1045  1.2524  0.2772
19334TIP3    H279418   1.648   0.806   1.625 -0.7932  1.1112  0.7659
19335TIP3   OH279419   4.036   4.512   3.093  0.5684 -0.0937 -0.2923
19335TIP3    H179420   4.101   4.582   3.090  0.6908 -0.2188 -0.5804
19335TIP3    H279421   4.086   4.434   3.120  0.4420 -0.0821 -0.0158
19336TIP3   OH279422   5.928   0.498   5.563 -0.2433  0.7352  0.2705
19336TIP3    H179423   5.994   0.562   5.537 -0.5424  0.8029 -0.3332
19336TIP3    H279424   5.872   0.488   5.486 -0.5788  0.2254  0.5728
19337TIP3   OH279425   2.795   0.685  14.455 -0.0231  0.0861  0.2920
19337TIP3    H179426   2.721   0.743  14.437 -0.6589 -1.0417 -0.9403
19337TIP3    H279427   2.810   0.639  14.372  2.0989  0.3001  0.4998
19338TIP3   OH279428   3.207   3.917  11.984  0.4806 -0.0179 -0.5371
19338TIP3    H179429   3.263   3.935  12.060 -0.9685  1.4355  0.2364
19338TIP3    H279430   3.133   3.869  12.020  0.2371 -0.1458 -1.2026
19339TIP3   OH279431   5.446   4.913   5.686  0.3351  0.1301 -0.0756
19339TIP3    H179432   5.448   4.979   5.756 -0.4051 -0.1770  0.2551
19339TIP3    H279433   5.365   4.864   5.702  0.1213  0.0947 -1.1941
19340TIP3   OH279434   5.370   3.433  10.379  0.2516 -0.7238 -0.7452
19340TIP3    H179435   5.424   3.509  10.403  1.5340 -1.9412  0.4174
19340TIP3    H279436   5.281   3.458  10.403  0.6263  0.4595 -0.5191
19341TIP3   OH279437   6.343   5.722  16.572 -0.5066  0.0650 -0.5615
19341TIP3    H179438   6.411   5.754  16.513 -0.8155 -0.4123 -1.1873
19341TIP3    H279439   6.263   5.766  16.543 -1.0986 -1.7935 -1.9456
19342TIP3   OH279440   6.341   4.520   6.159 -0.0933 -0.4911 -0.2606
19342TIP3    H179441   6.340   4.609   6.126  1.5986 -0.1131  0.5497
19342TIP3    H279442   6.348   4.530   6.254  1.0368 -1.4579 -0.2174
19343TIP3   OH279443   5.114   2.558  11.829 -1.0321  0.1120  0.1201
19343TIP3    H179444   5.182   2.491  11.841 -0.5432  0.6480  0.3808
19343TIP3    H279445   5.152   2.637  11.866 -1.5861  0.5525 -0.2443
19344TIP3   OH279446   3.898   5.315   2.644 -0.1136  0.0803 -0.4808
19344TIP3    H179447   3.993   5.307   2.643 -0.2319 -1.5760 -0.4496
19344TIP3    H279448   3.878   5.352   2.730  0.4630 -0.1158 -0.2589
19345TIP3   OH279449   4.590   5.759   3.409 -0.3529  0.2012  1.6299
19345TIP3    H179450   4.651   5.760   3.483  0.6459 -1.0809  0.8637
19345TIP3    H279451   4.534   5.684   3.426 -0.0347 -0.1765  1.0274
19346TIP3   OH279452   6.546   0.394   3.116 -0.1215  0.1456  0.2727
19346TIP3    H179453   6.587   0.480   3.121  1.3584 -0.5885  1.5691
19346TIP3    H279454   6.572   0.361   3.030  0.0255  0.6547  0.1156
19347TIP3   OH279455   0.582   6.362   5.632 -0.1370  0.1974 -0.5634
19347TIP3    H179456   0.612   6.336   5.544 -1.6964  0.6371 -1.2545
19347TIP3    H279457   0.489   6.340   5.633 -1.3473  4.5254 -0.7908
19348TIP3   OH279458   0.391   3.292  17.282  0.3042 -0.3159  0.3063
19348TIP3    H179459   0.318   3.353  17.296  0.6076  0.4946 -1.3264
19348TIP3    H279460   0.353   3.222  17.229  0.4565 -0.4485  0.3719
19349TIP3   OH279461   6.286   6.385   3.258  0.1834 -0.2528 -0.3332
19349TIP3    H179462   6.348   6.313   3.245  0.2011 -0.5164  1.1100
19349TIP3    H279463   6.338   6.453   3.302 -0.7758 -0.9421  2.0288
19350TIP3   OH279464   6.467   3.186  16.425  0.1226 -0.0197 -0.1829
19350TIP3    H179465   6.421   3.249  16.370 -0.1006 -0.3130 -0.3340
19350TIP3    H279466   6.400   3.154  16.486 -0.5397 -2.2756 -1.9645
19351TIP3   OH279467   2.240   2.520  11.310  0.1962  0.2262 -0.1229
19351TIP3    H179468   2.201   2.437  11.336 -1.9494  1.1185 -0.2780
19351TIP3    H279469   2.323   2.524  11.358 -0.8914 -0.8010  1.9813
19352TIP3   OH279470   1.015   5.071  14.901 -0.0651 -1.3805 -0.1921
19352TIP3    H179471   1.075   5.035  14.835  0.6441 -2.1675  0.8360
19352TIP3    H279472   0.943   5.109  14.851  1.1874 -0.6030 -1.4678
19353TIP3   OH279473   5.920   5.595   4.495  0.1884  0.6257 -0.5464
19353TIP3    H179474   5.875   5.595   4.579  0.3730 -0.7335 -0.4328
19353TIP3    H279475   5.958   5.683   4.489 -0.8300  1.1460  0.2253
19354TIP3   OH279476   5.343   1.066   2.220 -0.0378 -0.3004  0.0860
19354TIP3    H179477   5.300   1.080   2.305  0.0854 -1.8166  0.4373
19354TIP3    H279478   5.271   1.067   2.157 -0.5751 -2.1998  0.5946
19355TIP3   OH279479   4.647   3.662   0.026 -0.4825 -0.4839  0.1555
19355TIP3    H179480   4.586   3.681  -0.045  0.2038 -0.5307 -0.4622
19355TIP3    H279481   4.592   3.626   0.097 -1.0654 -1.2816 -0.6795
19356TIP3   OH279482   0.558   0.294  14.823 -0.9823 -0.2661  0.0083
19356TIP3    H179483   0.578   0.220  14.880 -1.2324 -0.2283  0.1461
19356TIP3    H279484   0.505   0.257  14.752  0.4467 -0.5781 -0.9516
19357TIP3   OH279485   6.155   4.666   2.581  0.0077  0.6960 -0.2863
19357TIP3    H179486   6.183   4.604   2.514 -2.1610  0.6233 -1.2198
19357TIP3    H279487   6.176   4.623   2.664  0.8231 -0.1569 -0.9196
19358TIP3   OH279488   5.870   0.900   0.290  0.8431 -0.6939 -0.3403
19358TIP3    H179489   5.811   0.835   0.330  0.2153 -0.0309 -0.1651
19358TIP3    H279490   5.854   0.890   0.195 -1.9429  1.5798 -0.2466
19359TIP3   OH279491   3.926   1.611   1.601 -0.4739 -0.6223 -0.2224
19359TIP3    H179492   3.846   1.575   1.563 -1.4801  0.1682  1.0484
19359TIP3    H279493   3.925   1.581   1.692  1.3101 -1.5878 -0.4746
19360TIP3   OH279494   2.923   6.017   2.780  0.2476  0.4700  0.1159
19360TIP3    H179495   2.912   5.993   2.872  0.2145  1.6639  0.4388
19360TIP3    H279496   2.846   6.070   2.759  1.5970  2.5850  0.2366
19361TIP3   OH279497   5.172   0.101   5.226 -0.2199  0.5871 -0.2289
19361TIP3    H179498   5.155   0.016   5.267 -1.1454  1.4572  1.3094
19361TIP3    H279499   5.215   0.152   5.295  0.0867  1.4447 -1.0402
19362TIP3   OH279500   6.388   6.592   5.797 -0.0131 -0.6405  0.2867
19362TIP3    H179501   6.295   6.616   5.802  0.4265  1.0896  0.7805
19362TIP3    H279502   6.412   6.573   5.888  0.1666 -0.8915  0.1867
19363TIP3   OH279503   5.259   3.385  14.486 -0.1249  0.2275 -0.3350
19363TIP3    H179504   5.327   3.416  14.427  0.5545 -1.1929 -0.3351
19363TIP3    H279505   5.279   3.292  14.500 -0.0405  0.5593  2.3815
19364TIP3   OH279506   0.042   2.653   1.216 -0.3360  0.0414  0.3667
19364TIP3    H179507   0.137   2.655   1.223 -0.3914  0.3951  1.0447
19364TIP3    H279508   0.025   2.594   1.142  0.4116  0.1670  0.0845
19365TIP3   OH279509   0.425   2.244   1.569 -0.2980  0.5413  0.0059
19365TIP3    H179510   0.465   2.157   1.567  1.1288  1.0883 -3.7917
19365TIP3    H279511   0.330   2.227   1.572 -0.0283 -0.9645  2.3268
19366TIP3   OH279512   1.618   6.604   5.137 -0.5406  0.2373  0.0709
19366TIP3    H179513   1.541   6.661   5.144 -1.6603 -1.3580  1.9018
19366TIP3    H279514   1.585   6.526   5.093  0.2901 -0.0834  0.0116
19367TIP3   OH279515   6.196   0.747   3.022  0.3987 -0.2573  0.2374
19367TIP3    H179516   6.149   0.685   3.078 -0.9742  0.7340  0.2273
19367TIP3    H279517   6.205   0.701   2.938  0.3318 -0.8260  0.5349
19368TIP3   OH279518   2.835   6.577  12.402 -0.4738  0.2499 -0.2347
19368TIP3    H179519   2.793   6.490  12.399  0.4787 -0.2420  0.3346
19368TIP3    H279520   2.926   6.560  12.378  0.1561  0.8062  1.6302
19369TIP3   OH279521   5.379   3.564  17.068 -0.1435  0.2471 -0.1807
19369TIP3    H179522   5.308   3.511  17.031  0.4719 -0.3033 -0.5928
19369TIP3    H279523   5.362   3.652  17.035 -0.4431  0.0523 -0.5622
19370TIP3   OH279524   2.862   4.375   4.192 -0.0622 -0.1884 -0.1942
19370TIP3    H179525   2.794   4.394   4.257  1.2435 -0.4168  1.2904
19370TIP3    H279526   2.850   4.282   4.171  0.7747 -0.6532  1.2891
19371TIP3   OH279527   5.547   0.464   1.102  0.1614 -0.4720  0.1708
19371TIP3    H179528   5.504   0.387   1.139  0.0420 -0.6300 -0.2918
19371TIP3    H279529   5.640   0.444   1.108  0.1295 -0.6793 -0.0060
19372TIP3   OH279530   1.811   1.336   1.980  0.0013 -0.3448 -0.7224
19372TIP3    H179531   1.833   1.243   1.980 -0.7616 -0.5527  0.4500
19372TIP3    H279532   1.852   1.371   1.901  1.4911 -1.3936 -0.4624
19373TIP3   OH279533   1.008   6.229   6.091 -0.1491  0.1297 -0.5438
19373TIP3    H179534   1.024   6.254   6.182  0.3719  1.9397 -1.0941
19373TIP3    H279535   0.915   6.244   6.078 -0.0776  0.5887 -0.5199
19374TIP3   OH279536   1.002   6.700   3.854 -0.5729 -0.2265 -0.3140
19374TIP3    H179537   1.075   6.760   3.867  0.1996 -1.0465 -0.7610
19374TIP3    H279538   0.924   6.753   3.871  0.1474  0.2646  1.7549
19375TIP3   OH279539   0.959   1.155  15.403 -0.3365  0.3082  0.1352
19375TIP3    H179540   0.883   1.124  15.354  0.0720 -1.8230  0.7552
19375TIP3    H279541   0.985   1.081  15.457  1.3244  1.4603  1.0217
19376TIP3   OH279542   2.774   5.957   0.777 -0.2501  0.4104  0.1687
19376TIP3    H179543   2.846   5.941   0.717 -0.0814 -0.4382  0.5821
19376TIP3    H279544   2.766   6.052   0.781 -0.4815  0.4732 -1.4340
19377TIP3   OH279545   2.325   4.231  13.173 -0.1149 -0.0892 -0.0784
19377TIP3    H179546   2.332   4.265  13.083 -0.7204  1.8421  0.5620
19377TIP3    H279547   2.415   4.236  13.207 -0.0465  0.0416 -0.2761
19378TIP3   OH279548   1.858   6.238   5.408 -0.2999 -0.5350 -0.2871
19378TIP3    H179549   1.800   6.304   5.371  1.3940 -0.2254 -2.6090
19378TIP3    H279550   1.871   6.266   5.499 -1.5884  0.8840 -0.5005
19379TIP3   OH279551   6.608   5.456  12.679 -0.4631 -0.4181 -0.0596
19379TIP3    H179552   6.531   5.481  12.730 -1.1792 -2.3813 -0.1024
19379TIP3    H279553   6.681   5.500  12.723 -1.1637 -1.2957  2.1357
19380TIP3   OH279554   3.339   1.992   2.623 -0.3982 -0.3103 -0.0470
19380TIP3    H179555   3.329   1.919   2.684 -0.2667 -1.6996 -1.6135
19380TIP3    H279556   3.305   1.959   2.540  0.5580  1.0880 -1.0487
19381TIP3   OH279557   1.562   2.080   4.223  0.1392  0.1157 -0.5985
19381TIP3    H179558   1.471   2.080   4.254 -0.7049  1.5754 -2.8205
19381TIP3    H279559   1.601   2.158   4.261 -0.2281  0.7041 -1.4132
19382TIP3   OH279560   6.580   1.705   2.513 -0.1304 -0.3690 -0.9114
19382TIP3    H179561   6.604   1.700   2.420  0.4239 -1.7124 -0.7126
19382TIP3    H279562   6.496   1.658   2.518 -0.1477 -0.3185 -0.7241
19383TIP3   OH279563   5.346   0.037   1.318 -0.5704 -0.7166  0.4949
19383TIP3    H179564   5.276  -0.029   1.320  0.9023 -2.3566  0.4053
19383TIP3    H279565   5.410   0.003   1.255  0.1677  0.9008  0.3206
19384TIP3   OH279566   2.689   2.597   1.877  0.4396  0.3179 -0.2537
19384TIP3    H179567   2.723   2.510   1.896 -0.1164  0.1109 -0.1966
19384TIP3    H279568   2.689   2.603   1.782 -1.2510 -0.4565 -0.3389
19385TIP3   OH279569   6.405   2.489   1.569 -0.1372 -0.3668  0.1662
19385TIP3    H179570   6.485   2.466   1.523 -0.0296  1.3651 -0.5837
19385TIP3    H279571   6.341   2.504   1.500 -1.1048 -1.6183  0.7551
19386TIP3   OH279572   3.393   0.417   4.632  0.7013  0.1757 -0.0401
19386TIP3    H179573   3.354   0.456   4.711 -0.5787 -0.2634 -0.4254
19386TIP3    H279574   3.319   0.405   4.573  1.3842 -1.0153 -0.6817
19387TIP3   OH279575   0.655   2.407  16.004 -0.2693  0.0460  0.6072
19387TIP3    H179576   0.663   2.327  16.056 -1.6053 -0.2239  0.4263
19387TIP3    H279577   0.732   2.458  16.027 -0.7370 -0.1101  2.7570
19388TIP3   OH279578   5.805   5.802   2.674  0.2039 -0.8137  0.2456
19388TIP3    H179579   5.819   5.741   2.747 -2.5593 -1.7589  0.0844
19388TIP3    H279580   5.799   5.746   2.597  1.4549  0.0477 -0.5082
19389TIP3   OH279581   1.027   3.159  16.690 -0.2833 -0.7360  0.3268
19389TIP3    H179582   0.988   3.079  16.724  0.2765 -0.4564  1.6710
19389TIP3    H279583   1.003   3.227  16.754 -0.0479  0.0064 -0.3525
19390TIP3   OH279584   3.577   3.761  12.232  0.0007 -0.0768 -0.1464
19390TIP3    H179585   3.501   3.760  12.290 -0.3209 -0.7367 -0.5765
19390TIP3    H279586   3.630   3.687  12.260  0.6452  0.5453  0.3383
19391TIP3   OH279587   3.031   5.821  16.586 -0.0139  0.2987 -0.3141
19391TIP3    H179588   2.985   5.752  16.538  0.9134  0.0706 -0.9102
19391TIP3    H279589   3.114   5.781  16.612 -0.1283  0.7031  0.7318
19392TIP3   OH279590   1.073   2.154  10.719  0.6106 -0.1278 -0.2901
19392TIP3    H179591   1.166   2.156  10.695  0.1823 -1.2198 -2.3396
19392TIP3    H279592   1.055   2.061  10.733  0.1599  0.2266  1.8003
19393TIP3   OH279593   0.403   0.894  16.392  0.0009 -0.1642 -0.2176
19393TIP3    H179594   0.454   0.823  16.429 -2.2206 -1.3549  0.7779
19393TIP3    H279595   0.443   0.974  16.427  1.7267 -0.9705 -0.2822
19394TIP3   OH279596   4.264   2.826  15.798 -0.6682  0.4978  0.2667
19394TIP3    H179597   4.283   2.776  15.878 -1.9049  0.3744  0.4979
19394TIP3    H279598   4.252   2.916  15.828 -1.0056  0.4741  0.2036
19395TIP3   OH279599   3.563   6.697   4.568  0.2184  0.3626  0.0051
19395TIP3    H179600   3.479   6.711   4.524 -0.5444 -0.2387  1.2029
19395TIP3    H279601   3.610   6.636   4.511 -0.1944  0.6433 -0.6392
19396TIP3   OH279602   5.337   1.404   4.358 -0.1801 -0.4694  0.3751
19396TIP3    H179603   5.302   1.480   4.312 -0.2451 -0.9764 -0.4308
19396TIP3    H279604   5.422   1.389   4.318  0.8448  0.4921  2.0267
19397TIP3   OH279605   2.625   1.980  14.050  0.5542  0.0575 -0.2867
19397TIP3    H179606   2.631   1.887  14.075 -2.0455  0.1818  1.1379
19397TIP3    H279607   2.702   1.995  13.996  1.3959 -2.7735 -0.0385
19398TIP3   OH279608   6.248   1.660  12.602 -0.5353 -0.6731 -0.4267
19398TIP3    H179609   6.260   1.598  12.673 -0.8518  1.0053  1.1645
19398TIP3    H279610   6.176   1.716  12.631  0.8760  1.5555 -0.9399
19399TIP3   OH279611   0.486   0.189  15.837 -0.0498  0.1749  0.2876
19399TIP3    H179612   0.405   0.138  15.847 -0.1865  0.2146 -0.5486
19399TIP3    H279613   0.500   0.193  15.743  0.9360  0.1696  0.4220
19400TIP3   OH279614   3.021   1.052   1.277  0.0131 -0.4468  0.2069
19400TIP3    H179615   3.085   1.118   1.303  0.7905 -1.1168  0.0229
19400TIP3    H279616   3.073   0.977   1.250 -0.8338 -0.8042 -0.5029
19401TIP3   OH279617   0.933   1.931  16.253  0.3148  0.1769  0.8185
19401TIP3    H179618   1.010   1.976  16.288  0.4327  0.3111  0.3922
19401TIP3    H279619   0.956   1.909  16.163  0.0859 -0.3426  0.8850
19402TIP3   OH279620   0.703   6.238   0.324  0.2948 -0.0438  0.4353
19402TIP3    H179621   0.683   6.314   0.378 -0.1516  0.4828 -0.4391
19402TIP3    H279622   0.797   6.244   0.308  0.1592  0.6961 -0.1532
19403TIP3   OH279623   1.267   4.634  15.503  0.3740  0.0562 -0.7018
19403TIP3    H179624   1.291   4.542  15.513  2.7788  0.8397  2.2306
19403TIP3    H279625   1.266   4.668  15.593  0.1741  3.0255 -1.7357
19404TIP3   OH279626   5.848   3.816  17.328 -0.1977 -0.1432  0.1761
19404TIP3    H179627   5.886   3.734  17.297  1.1403  0.0909  1.1132
19404TIP3    H279628   5.811   3.795  17.413 -0.9536 -0.0384 -0.1141
19405TIP3   OH279629   3.412   1.632   5.330 -0.1369  0.8825  0.0382
19405TIP3    H179630   3.488   1.689   5.326  0.2816  0.3813  0.7712
19405TIP3    H279631   3.434   1.559   5.271  0.3780  0.2405  1.0067
19406TIP3   OH279632   2.066   2.518  16.791  0.5453 -0.1250  0.2940
19406TIP3    H179633   2.068   2.535  16.696  1.0513  3.7622  0.8599
19406TIP3    H279634   2.144   2.465  16.807  0.9538 -0.0810 -1.3361
19407TIP3   OH279635   3.686   0.651   2.613  0.0895 -0.0667  0.1965
19407TIP3    H179636   3.702   0.558   2.629  0.4185  0.1290  1.0536
19407TIP3    H279637   3.596   0.665   2.641 -0.2370 -0.2897 -0.7052
19408TIP3   OH279638   4.951   6.148  13.720  0.2579  0.2485  0.0016
19408TIP3    H179639   4.969   6.152  13.814  3.3289  1.7198 -0.5208
19408TIP3    H279640   4.936   6.239  13.694  0.7437  0.0246 -1.1310
19409TIP3   OH279641   5.869   0.366  12.280 -0.0890  0.1752  0.6559
19409TIP3    H179642   5.839   0.284  12.241 -0.5333  0.8195 -0.3953
19409TIP3    H279643   5.858   0.353  12.374 -0.6722 -0.7745  0.4717
19410TIP3   OH279644   0.364   2.428  16.925  0.6550 -0.6728 -0.3183
19410TIP3    H179645   0.390   2.337  16.910 -1.2488 -1.2165 -0.5677
19410TIP3    H279646   0.269   2.425  16.931  0.7002  0.8284  3.0626
19411TIP3   OH279647   3.268   5.139  13.450  0.0419  0.3536 -0.1001
19411TIP3    H179648   3.191   5.183  13.413  0.6400  0.6042 -1.0960
19411TIP3    H279649   3.326   5.210  13.475  0.4803  0.1497 -0.5294
19412TIP3   OH279650   2.427   5.884   0.864  0.2870  0.1412  0.4532
19412TIP3    H179651   2.394   5.924   0.945  1.1074  0.7743  0.4848
19412TIP3    H279652   2.520   5.869   0.881  0.5057  0.4667 -0.4518
19413TIP3   OH279653   2.958   4.637  12.172 -0.4230 -0.3723 -0.6276
19413TIP3    H179654   2.912   4.626  12.256 -0.6249 -0.0755 -0.7018
19413TIP3    H279655   2.910   4.705  12.126  0.3976  0.3166 -0.4879
19414TIP3   OH279656   6.591   0.907   6.439 -0.2841 -0.0477  0.4877
19414TIP3    H179657   6.560   0.979   6.494 -0.8661 -0.1528  0.3052
19414TIP3    H279658   6.671   0.877   6.481 -1.1707 -0.6921  1.7491
19415TIP3   OH279659   1.748   5.103  16.310 -0.0892 -0.0140  0.3142
19415TIP3    H179660   1.673   5.077  16.256  0.2543 -0.6169  0.1211
19415TIP3    H279661   1.762   5.195  16.289 -1.1421  0.2752  0.7878
19416TIP3   OH279662   4.272   2.435  11.508 -0.4043  0.9101 -0.4851
19416TIP3    H179663   4.351   2.420  11.455 -1.0175  1.1860 -1.5074
19416TIP3    H279664   4.293   2.515  11.558 -0.5743  1.8752 -1.8862
19417TIP3   OH279665   2.771   3.667   6.030  0.0323  0.0866  0.1423
19417TIP3    H179666   2.782   3.711   6.114 -0.1002 -1.2388  0.8868
19417TIP3    H279667   2.830   3.592   6.034  0.3349  0.2426 -1.1273
19418TIP3   OH279668   1.839   0.142   0.867 -0.0437 -0.0461 -0.2336
19418TIP3    H179669   1.872   0.104   0.786  0.0685 -0.1438 -0.1426
19418TIP3    H279670   1.886   0.095   0.937  1.9271  1.8675 -0.1423
19419TIP3   OH279671   0.628   6.564  14.503  0.1921  0.7346  0.6081
19419TIP3    H179672   0.668   6.641  14.544  0.3318  2.6799 -2.8044
19419TIP3    H279673   0.687   6.542  14.430 -1.6936 -0.3171 -0.6881
19420TIP3   OH279674   1.897   6.039   6.928  0.8290 -0.0377  0.2394
19420TIP3    H179675   1.834   6.097   6.971 -0.1040 -0.3804 -0.6551
19420TIP3    H279676   1.909   5.967   6.990  0.1949 -0.0746  0.3185
19421TIP3   OH279677   3.860   1.912   3.148 -0.7235  0.0339  0.1336
19421TIP3    H179678   3.781   1.869   3.116 -1.2918  0.7610  0.5198
19421TIP3    H279679   3.915   1.923   3.070 -1.1852 -0.1075 -0.2144
19422TIP3   OH279680   1.225   5.069  14.000 -0.0166  0.2260 -0.3690
19422TIP3    H179681   1.310   5.059  13.956  0.0142 -0.7570 -0.0997
19422TIP3    H279682   1.169   5.002  13.961  0.1449 -0.9802  1.3633
19423TIP3   OH279683   6.607   1.226   1.295  0.1741  0.0218  0.1673
19423TIP3    H179684   6.554   1.188   1.365  0.8215 -0.5226  0.3627
19423TIP3    H279685   6.543   1.268   1.237 -0.2266  3.9463  3.0119
19424TIP3   OH279686   4.412   2.252  15.880 -0.0673  0.1825  0.0227
19424TIP3    H179687   4.460   2.257  15.963 -2.1388  0.7226  1.2671
19424TIP3    H279688   4.480   2.245  15.814  1.6665 -0.9176  1.7940
19425TIP3   OH279689   5.185   2.068  11.635  0.4178 -0.2691 -0.1059
19425TIP3    H179690   5.252   2.135  11.647 -0.4056  0.4363  0.7090
19425TIP3    H279691   5.181   2.023  11.720  0.0873 -0.5310 -0.2589
19426TIP3   OH279692   1.893   3.602  12.381  0.2624  0.2589 -0.1875
19426TIP3    H179693   1.883   3.635  12.292  1.5180  0.0381 -0.4278
19426TIP3    H279694   1.912   3.680  12.433  1.7810  0.1363 -0.5132
19427TIP3   OH279695   1.460   2.041  11.262  0.2462  0.0645 -0.2984
19427TIP3    H179696   1.382   1.993  11.291  0.2016 -0.2693 -0.9580
19427TIP3    H279697   1.528   1.974  11.255  0.1705  0.0824 -1.2752
19428TIP3   OH279698   1.650   1.575  16.384  0.4744 -0.2180 -0.0581
19428TIP3    H179699   1.670   1.525  16.305  1.1278 -0.0593  0.0004
19428TIP3    H279700   1.563   1.545  16.410  0.1033 -0.0154 -1.0335
19429TIP3   OH279701   4.698   3.987   2.651 -0.4698  0.0766 -0.0291
19429TIP3    H179702   4.783   3.995   2.694 -0.3237 -2.3132  0.2858
19429TIP3    H279703   4.634   4.004   2.720 -0.2265 -3.0355  1.1322
19430TIP3   OH279704   3.656   2.312   1.534  0.0611 -0.0537  0.1989
19430TIP3    H179705   3.709   2.392   1.539 -1.0990  0.7115  0.5606
19430TIP3    H279706   3.718   2.242   1.555  0.3728  1.0481  3.7592
19431TIP3   OH279707   0.777   6.359  17.093 -0.5161  0.3387  0.4501
19431TIP3    H179708   0.685   6.378  17.111  0.0769  1.1778  3.0058
19431TIP3    H279709   0.793   6.399  17.007 -2.1045  1.6820  0.7315
19432TIP3   OH279710   4.048   5.508   0.276 -0.0848  0.0716 -0.4356
19432TIP3    H179711   4.048   5.554   0.361 -1.1921 -1.5257  0.4753
19432TIP3    H279712   3.994   5.430   0.291  0.1500 -0.5299 -2.4770
19433TIP3   OH279713   6.716   1.448  11.139 -0.4341  0.2448  0.0546
19433TIP3    H179714   6.633   1.480  11.172 -0.3653 -0.1000  0.5778
19433TIP3    H279715   6.705   1.353  11.134 -0.0057  0.1746  0.3403
19434TIP3   OH279716   5.001   5.690  11.996 -0.0282 -0.0592 -0.4105
19434TIP3    H179717   4.990   5.643  12.079 -2.8986  1.3904  0.1474
19434TIP3    H279718   4.963   5.631  11.930 -1.2895  0.3644 -0.0851
19435TIP3   OH279719   6.349   6.130   0.936  0.2630 -0.2970 -0.6469
19435TIP3    H179720   6.265   6.157   0.901  0.2176 -0.9744 -1.0803
19435TIP3    H279721   6.330   6.098   1.024  0.1612  0.0632 -0.5335
19436TIP3   OH279722   6.509   5.332  15.493  0.1005 -0.1991 -0.4240
19436TIP3    H179723   6.428   5.361  15.534 -0.4712  0.9397 -2.2490
19436TIP3    H279724   6.500   5.236  15.488 -0.6144 -0.1868  0.3753
19437TIP3   OH279725   3.413   4.335  16.659  0.3175  0.1368  0.5527
19437TIP3    H179726   3.334   4.321  16.608  1.1495  0.0566 -0.7530
19437TIP3    H279727   3.384   4.387  16.734 -0.7884  0.9395 -0.3987
19438TIP3   OH279728   4.406   3.427   2.132 -0.2049 -0.0130  0.2538
19438TIP3    H179729   4.452   3.503   2.096  2.4878 -1.4980  0.3528
19438TIP3    H279730   4.429   3.428   2.225  1.5458 -2.0159 -0.1053
19439TIP3   OH279731   4.731   2.411   3.544  0.1326  0.1548 -0.4280
19439TIP3    H179732   4.671   2.339   3.565 -0.7342  0.8875 -0.3211
19439TIP3    H279733   4.777   2.428   3.626  2.7934 -2.4295 -1.2202
19440TIP3   OH279734   6.506   3.502   5.938  0.7117 -0.4389 -0.1623
19440TIP3    H179735   6.499   3.481   6.031 -1.2233  2.6199  0.5547
19440TIP3    H279736   6.421   3.475   5.901  1.0056 -0.5347 -0.7818
19441TIP3   OH279737   6.466   3.513  15.582 -0.5706 -0.1591  0.3440
19441TIP3    H179738   6.385   3.464  15.567 -1.1478  0.2439  1.9297
19441TIP3    H279739   6.513   3.462  15.649  0.1169  0.0222  0.0051
19442TIP3   OH279740   6.411   4.548  11.128  0.5664  0.3282  0.7624
19442TIP3    H179741   6.436   4.590  11.210 -0.0985  0.2606  1.0077
19442TIP3    H279742   6.491   4.507  11.096  1.4149  2.3580  0.1560
19443TIP3   OH279743   5.291   1.081   1.894  0.2318 -0.1033 -0.1001
19443TIP3    H179744   5.383   1.097   1.914  0.4177 -0.0970 -0.9448
19443TIP3    H279745   5.292   1.013   1.827 -0.4325 -1.0387  0.8062
19444TIP3   OH279746   3.180   1.653   3.930  0.0867 -0.5371 -0.0992
19444TIP3    H179747   3.150   1.739   3.900  0.6971 -1.1653 -2.7565
19444TIP3    H279748   3.200   1.606   3.850 -0.9748 -3.4641  1.2372
19445TIP3   OH279749   3.194   2.790  12.949 -0.3162 -0.4265 -0.0249
19445TIP3    H179750   3.133   2.741  12.894 -2.0399 -0.3770  1.7541
19445TIP3    H279751   3.280   2.755  12.925 -0.7183  0.8637 -3.9903
19446TIP3   OH279752   1.480   3.779   4.321 -0.5582  0.4882  0.5808
19446TIP3    H179753   1.395   3.756   4.282 -1.2835 -0.8890  2.7871
19446TIP3    H279754   1.522   3.834   4.255 -2.7339  0.3863 -1.0196
19447TIP3   OH279755   6.048   3.700  15.508  0.3466  0.5332  0.5786
19447TIP3    H179756   6.093   3.635  15.454 -1.6142 -1.9260  1.7257
19447TIP3    H279757   6.053   3.664  15.597 -0.8068  1.9586  1.2512
19448TIP3   OH279758   0.458   6.568  15.829 -0.2045 -0.3640  0.6583
19448TIP3    H179759   0.524   6.567  15.898  0.8834  0.4719 -0.3430
19448TIP3    H279760   0.385   6.618  15.866  0.6693  0.7229  0.9312
19449TIP3   OH279761   3.801   3.832   5.834 -0.0330  0.2249  0.1125
19449TIP3    H179762   3.737   3.899   5.809  1.3715  1.8543  0.7528
19449TIP3    H279763   3.795   3.767   5.763 -0.8412  1.4126 -0.9653
19450TIP3   OH279764   1.292   0.006   0.829  0.1710  0.9999  0.1424
19450TIP3    H179765   1.358   0.039   0.890  0.5488 -0.8037  0.7533
19450TIP3    H279766   1.343  -0.028   0.755  0.0408 -1.1807  0.9889
19451TIP3   OH279767   5.971   2.218   0.429  0.3680 -0.6068 -0.0305
19451TIP3    H179768   6.034   2.193   0.498 -1.1362 -1.6530  1.0236
19451TIP3    H279769   5.932   2.135   0.402 -0.3467  0.0048 -0.8798
19452TIP3   OH279770   4.233   5.739  13.768  0.4529  0.1293  0.0275
19452TIP3    H179771   4.192   5.671  13.822  3.3885 -1.4114  0.5062
19452TIP3    H279772   4.263   5.805  13.832 -0.8205  1.0689 -0.2903
19453TIP3   OH279773   4.771   6.088   4.446 -0.0626  0.2914 -0.4397
19453TIP3    H179774   4.840   6.145   4.412  0.2361 -1.2046 -2.5017
19453TIP3    H279775   4.737   6.042   4.369 -1.7677 -0.7432  0.8533
19454TIP3   OH279776   4.237   6.428  12.577  0.0337  0.0544  0.2004
19454TIP3    H179777   4.260   6.372  12.503  0.7764  1.7322 -0.8716
19454TIP3    H279778   4.286   6.509  12.563 -1.3071  1.1456  1.5037
19455TIP3   OH279779   0.671   3.361  14.270 -0.1167 -0.1816 -0.0874
19455TIP3    H179780   0.763   3.371  14.294 -0.1196  1.3116 -0.5966
19455TIP3    H279781   0.656   3.266  14.270  1.2527 -0.4188  0.5838
19456TIP3   OH279782   5.334   2.665   4.387  0.2454  0.2264 -0.3231
19456TIP3    H179783   5.377   2.720   4.452  0.0686  1.7906 -1.4863
19456TIP3    H279784   5.286   2.726   4.331 -0.6145 -1.1798 -1.1864
19457TIP3   OH279785   4.245   1.143   1.515  0.2603 -0.1342 -0.2160
19457TIP3    H179786   4.171   1.185   1.471  0.8729  1.4428  0.1711
19457TIP3    H279787   4.207   1.065   1.556 -1.2260  0.6646  0.0343
19458TIP3   OH279788   6.511   5.695   0.283  0.5931  0.2045 -0.1322
19458TIP3    H179789   6.478   5.614   0.243 -1.8073  0.7921  0.4954
19458TIP3    H279790   6.560   5.665   0.360  1.2836 -0.7020 -0.8955
19459TIP3   OH279791   3.564   3.465  14.257 -0.3588 -0.0739 -0.4330
19459TIP3    H179792   3.647   3.487  14.215 -0.8018  1.3649 -0.6192
19459TIP3    H279793   3.508   3.541  14.241 -1.4233 -0.6359  0.4553
19460TIP3   OH279794   6.668   6.216  11.121  0.3154  0.4330 -0.1597
19460TIP3    H179795   6.760   6.191  11.121  0.2666  0.2298 -0.9488
19460TIP3    H279796   6.649   6.238  11.030 -0.2362  1.1529  0.1178
19461TIP3   OH279797   3.743   4.529   4.518 -0.4336 -0.0476  0.1204
19461TIP3    H179798   3.685   4.606   4.516 -1.4550 -0.7688  0.7817
19461TIP3    H279799   3.690   4.459   4.479 -0.4415 -0.9866  1.7147
19462TIP3   OH279800   5.275   4.583  12.030 -0.7074  0.4560 -0.2666
19462TIP3    H179801   5.313   4.496  12.042  4.5853  2.4955  0.2103
19462TIP3    H279802   5.240   4.605  12.117  2.3666  0.5045  1.0750
19463TIP3   OH279803   5.774   4.310  11.864 -0.1590 -0.4673 -0.6132
19463TIP3    H179804   5.761   4.388  11.919 -1.5668 -1.1789  0.1276
19463TIP3    H279805   5.692   4.261  11.874  1.2000 -2.7098 -0.0156
19464TIP3   OH279806   1.866   4.610  11.645 -0.3571 -0.3698  0.4442
19464TIP3    H179807   1.771   4.608  11.636 -0.3010  0.2436 -0.3427
19464TIP3    H279808   1.881   4.627  11.738 -1.1059  4.0540 -0.0217
19465TIP3   OH279809   3.638   1.957   2.690  0.2968  0.3281 -0.0861
19465TIP3    H179810   3.558   1.945   2.741  1.2803  0.2784  1.5217
19465TIP3    H279811   3.637   1.886   2.626 -1.1976  0.6647 -0.4731
19466TIP3   OH279812   1.594   2.567  16.481  0.0352  0.0665  0.3313
19466TIP3    H179813   1.584   2.507  16.555 -1.3240  0.7052  0.6925
19466TIP3    H279814   1.523   2.543  16.421  2.3420 -1.9135 -1.9049
19467TIP3   OH279815   3.680   5.610   0.849  0.0731  0.3163 -0.5119
19467TIP3    H179816   3.700   5.529   0.895  3.6271  1.6050  0.6149
19467TIP3    H279817   3.666   5.674   0.918  1.0004  1.3718 -1.2616
19468TIP3   OH279818   5.621   0.500  11.762  0.3437  0.4143  0.7145
19468TIP3    H179819   5.645   0.432  11.826  0.2954  1.1167  1.4942
19468TIP3    H279820   5.661   0.471  11.680 -1.0049 -1.3946  0.6195
19469TIP3   OH279821   1.814   2.803   0.881  0.0479 -0.2312 -0.2411
19469TIP3    H179822   1.761   2.782   0.958 -1.3984 -0.1627 -1.1735
19469TIP3    H279823   1.851   2.889   0.900 -0.3412 -0.1901  0.3603
19470TIP3   OH279824   2.669   6.302  12.224  0.0557  0.1319 -0.1422
19470TIP3    H179825   2.633   6.306  12.313  1.4770 -0.0927  0.4777
19470TIP3    H279826   2.593   6.298  12.167 -0.9274 -2.4885  1.2098
19471TIP3   OH279827   5.582   0.168   2.242  0.1809  0.2020 -0.6927
19471TIP3    H179828   5.650   0.232   2.263 -0.8983  0.9617  0.6507
19471TIP3    H279829   5.618   0.085   2.271  0.5319  0.6076  0.0796
19472TIP3   OH279830   1.113   2.913   3.927 -0.0271  0.0060  0.4453
19472TIP3    H179831   1.114   2.945   4.017  0.9844 -0.6527  0.6816
19472TIP3    H279832   1.026   2.875   3.915  0.1009 -0.6069  1.3957
19473TIP3   OH279833   5.927   0.241   2.850 -0.0462 -0.1843 -0.3128
19473TIP3    H179834   5.844   0.259   2.894 -0.5535 -0.1332 -1.2584
19473TIP3    H279835   5.994   0.267   2.913 -0.7514  0.0450  0.3522
19474TIP3   OH279836   6.705   0.257  16.976 -0.2884  0.3588 -0.1161
19474TIP3    H179837   6.677   0.335  16.927 -0.0317  0.6052  0.1213
19474TIP3    H279838   6.747   0.292  17.055  1.0586  0.0348 -0.6542
19475TIP3   OH279839   4.133   2.322  14.804 -0.7096 -0.4567  0.2291
19475TIP3    H179840   4.150   2.279  14.720 -1.8535 -1.1729  0.3496
19475TIP3    H279841   4.140   2.252  14.869  3.0708  0.5452  1.1889
19476TIP3   OH279842   0.740   4.793  10.781  0.1858 -0.1410 -0.0136
19476TIP3    H179843   0.725   4.717  10.837  0.2115 -0.3793 -0.3213
19476TIP3    H279844   0.789   4.757  10.706 -0.8435 -0.0626 -0.7537
19477TIP3   OH279845   2.325   3.345   1.042  0.2699  0.7848 -0.4375
19477TIP3    H179846   2.317   3.438   1.020 -0.7227  0.8676  0.2246
19477TIP3    H279847   2.261   3.301   0.986 -1.4626  0.8722  1.3525
19478TIP3   OH279848   6.563   4.542  12.534  0.2508  0.0631  0.0527
19478TIP3    H179849   6.611   4.547  12.451 -1.6653 -1.4239 -1.2559
19478TIP3    H279850   6.580   4.454  12.566 -0.9621 -0.2436 -0.0770
19479TIP3   OH279851   0.355   0.592  15.181  0.0322 -0.0783  0.1059
19479TIP3    H179852   0.305   0.610  15.101  1.7405  2.0074 -0.5817
19479TIP3    H279853   0.391   0.676  15.207 -1.4723 -0.3912  3.9028
19480TIP3   OH279854   4.624   3.394  14.774 -0.6995 -0.4162 -0.0009
19480TIP3    H179855   4.713   3.369  14.750  0.1030  0.9354  1.3062
19480TIP3    H279856   4.584   3.314  14.808  0.2363 -0.9110 -0.0375
19481TIP3   OH279857   0.174   0.695   3.822 -0.0894  0.4216  0.0024
19481TIP3    H179858   0.248   0.636   3.834 -2.5706 -2.6515  2.1174
19481TIP3    H279859   0.120   0.653   3.756 -0.9432  1.4710  0.0006
19482TIP3   OH279860   3.660   0.484   1.741  0.3065  1.0242 -0.1335
19482TIP3    H179861   3.723   0.510   1.674  0.3969  1.8175  0.2531
19482TIP3    H279862   3.603   0.421   1.697  1.7519 -0.2208 -0.3105
19483TIP3   OH279863   3.941   1.516   1.888 -0.3453 -0.8574 -0.1047
19483TIP3    H179864   3.914   1.580   1.953  1.5027  0.2378 -0.3193
19483TIP3    H279865   4.021   1.478   1.924  1.6146  0.8616 -2.2481
19484TIP3   OH279866   0.856   3.192  15.684  0.1714 -0.7251  0.0308
19484TIP3    H179867   0.907   3.219  15.760  1.3113  2.2572 -1.6606
19484TIP3    H279868   0.765   3.208  15.710  0.6399  2.1084  0.2103
19485TIP3   OH279869   2.866   6.634   0.580  0.4722  0.0727 -0.2629
19485TIP3    H179870   2.792   6.617   0.521  0.8408 -1.2804 -0.3797
19485TIP3    H279871   2.836   6.604   0.666  0.7749 -0.2246 -0.2564
19486TIP3   OH279872   1.864   3.847  14.167 -0.6357 -0.1094  0.1754
19486TIP3    H179873   1.775   3.836  14.202 -0.9218 -0.0799 -0.5263
19486TIP3    H279874   1.886   3.938  14.187 -1.1210  0.1514 -0.4346
19487TIP3   OH279875   4.723   6.301  14.331 -0.2654  0.5406  0.3184
19487TIP3    H179876   4.664   6.239  14.374 -0.8150  0.8242 -0.0124
19487TIP3    H279877   4.806   6.291  14.378 -1.0745  1.4680  2.0694
19488TIP3   OH279878   3.459   1.918   5.856 -0.1713  0.1162  0.8597
19488TIP3    H179879   3.548   1.884   5.861  0.1701  0.4739 -1.4711
19488TIP3    H279880   3.405   1.853   5.902  0.7448 -2.4683 -1.4232
19489TIP3   OH279881   5.817   1.213  13.285 -0.0148 -0.9259  0.1800
19489TIP3    H179882   5.830   1.265  13.364 -0.9964 -1.0466  0.4342
19489TIP3    H279883   5.902   1.214  13.241  0.2620  0.0021  0.7126
19490TIP3   OH279884   4.776   0.386   4.878  0.7729 -0.2468  0.1022
19490TIP3    H179885   4.775   0.322   4.807 -1.8654 -0.1134 -0.0804
19490TIP3    H279886   4.783   0.334   4.958  3.3665 -0.4169 -0.1599
19491TIP3   OH279887   2.418   4.706   4.291 -0.2060 -0.2168 -0.4170
19491TIP3    H179888   2.332   4.677   4.319 -0.5646 -1.3002 -2.4065
19491TIP3    H279889   2.421   4.799   4.311 -1.8875 -0.1434 -0.4131
19492TIP3   OH279890   1.443   6.336  14.762 -0.3542 -0.1431 -0.5437
19492TIP3    H179891   1.454   6.310  14.853 -1.3306 -0.4174 -0.4993
19492TIP3    H279892   1.531   6.329  14.724  0.0651  0.0267  0.3821
19493TIP3   OH279893   5.403   1.117  13.265  0.0932  0.4102 -0.3301
19493TIP3    H179894   5.493   1.096  13.239  0.0697 -2.0088  1.1931
19493TIP3    H279895   5.412   1.192  13.324  1.5785 -1.6646  2.2840
19494TIP3   OH279896   6.641   6.664   2.147 -0.4290 -0.3871  0.5347
19494TIP3    H179897   6.723   6.633   2.185 -1.1331 -1.7277  1.0227
19494TIP3    H279898   6.578   6.661   2.220 -0.8309  1.0179  0.2778
19495TIP3   OH279899   2.835   3.933  13.056  0.4054  0.2683 -0.5544
19495TIP3    H179900   2.922   3.921  13.094  1.2294  1.6809 -1.8974
19495TIP3    H279901   2.839   3.887  12.972 -1.1934 -2.2870  0.6326
19496TIP3   OH279902   6.653   0.792  13.163  0.1196  0.0747 -0.1192
19496TIP3    H179903   6.690   0.878  13.147  1.1030 -0.2646  0.2583
19496TIP3    H279904   6.667   0.777  13.257  0.8279 -0.8825 -0.3620
19497TIP3   OH279905   2.545   1.698  12.422  0.4668  0.1183 -0.2130
19497TIP3    H179906   2.635   1.718  12.398  0.3796  2.2008  0.9728
19497TIP3    H279907   2.492   1.730  12.350  0.4528  2.8453  0.9100
19498TIP3   OH279908   2.614   3.390  14.823  0.4132  0.1449 -0.0763
19498TIP3    H179909   2.602   3.479  14.788 -1.3928 -0.3535 -0.8139
19498TIP3    H279910   2.605   3.333  14.747  0.0457 -0.7602  0.6331
19499TIP3   OH279911   2.935   3.482  13.767 -0.5017 -0.2309  0.3948
19499TIP3    H179912   3.030   3.476  13.773 -0.2402 -0.3223 -2.4550
19499TIP3    H279913   2.909   3.531  13.845  2.1551  2.3202 -0.1356
19500TIP3   OH279914   0.560   0.210  16.483 -0.3945  0.4363  0.3869
19500TIP3    H179915   0.651   0.240  16.480 -0.0706 -0.5536 -0.3196
19500TIP3    H279916   0.566   0.119  16.513 -1.1744  0.4309  0.5527
19501TIP3   OH279917   2.804   1.769  14.658  0.2778  0.2218 -0.3960
19501TIP3    H179918   2.898   1.783  14.649 -0.0059  2.5605 -0.2712
19501TIP3    H279919   2.771   1.773  14.568  0.1162  1.1174 -0.3063
19502TIP3   OH279920   3.126   1.485   4.413  0.3138 -0.7595 -0.1317
19502TIP3    H179921   3.105   1.519   4.326  1.7464 -1.2909 -0.7102
19502TIP3    H279922   3.051   1.510   4.467 -0.7576 -0.7137 -1.5869
19503TIP3   OH279923   2.761   0.452  14.953  0.2798  0.2585  0.4192
19503TIP3    H179924   2.822   0.388  14.991  1.0127 -0.0291 -1.1617
19503TIP3    H279925   2.675   0.413  14.965  0.5333 -0.0605  1.3079
19504TIP3   OH279926   5.117   3.034   1.862  0.5865  0.5278 -0.2038
19504TIP3    H179927   5.067   2.960   1.897  2.5171 -0.4019  0.7010
19504TIP3    H279928   5.114   3.022   1.767  2.0385 -1.5733 -0.0482
19505TIP3   OH279929   3.508   0.594  13.468  0.5405 -0.7463 -0.4854
19505TIP3    H179930   3.557   0.556  13.541 -1.5147 -1.5126  0.5799
19505TIP3    H279931   3.525   0.688  13.474  0.1508 -0.7550  1.2148
19506TIP3   OH279932   0.234   5.460  14.545  0.2351 -0.3256 -0.6227
19506TIP3    H179933   0.244   5.555  14.544  1.7848 -0.4244  0.7196
19506TIP3    H279934   0.250   5.432  14.455  0.3297  0.6322 -0.9044
19507TIP3   OH279935   5.587   5.300   1.492 -0.0229 -0.6734  0.3533
19507TIP3    H179936   5.662   5.293   1.434  0.5041 -0.6257  1.0210
19507TIP3    H279937   5.523   5.351   1.442  0.6584 -0.1002  0.0434
19508TIP3   OH279938   4.230   2.953   6.858  0.1042  0.4582  0.7389
19508TIP3    H179939   4.325   2.966   6.858  0.0925  0.5643  0.4653
19508TIP3    H279940   4.212   2.904   6.938  0.7335 -2.0145 -0.5290
19509TIP3   OH279941   2.443   2.116  14.309  0.5869  0.0744 -0.1549
19509TIP3    H179942   2.483   2.203  14.317 -0.6604  0.7365 -0.8580
19509TIP3    H279943   2.437   2.101  14.215  0.8163 -0.8004 -0.0374
19510TIP3   OH279944   5.844   2.368  11.430  0.2253 -0.1439  0.1339
19510TIP3    H179945   5.840   2.462  11.412  1.4730 -0.0928  0.0568
19510TIP3    H279946   5.754   2.344  11.454 -0.1599  1.0085 -0.1161
19511TIP3   OH279947   6.431   6.065  13.632  0.0401  0.2523 -0.4293
19511TIP3    H179948   6.491   6.007  13.679 -0.0443  1.4867  1.3392
19511TIP3    H279949   6.472   6.152  13.639 -1.0395  0.8127 -0.7789
19512TIP3   OH279950   5.586   6.478   6.559  0.2596 -0.9279  0.7719
19512TIP3    H179951   5.572   6.407   6.496 -2.1452  0.2461 -0.1283
19512TIP3    H279952   5.653   6.534   6.519  0.7225 -1.6102  0.5722
19513TIP3   OH279953   1.523   4.562   4.796  0.1797 -0.1700 -0.3631
19513TIP3    H179954   1.471   4.610   4.731  0.9819  0.0858 -0.8243
19513TIP3    H279955   1.586   4.627   4.828 -1.6470  0.4675  2.4263
19514TIP3   OH279956   1.675   3.364  13.381  0.7828  0.5801 -0.1356
19514TIP3    H179957   1.713   3.278  13.397 -1.5931 -0.3262  1.1212
19514TIP3    H279958   1.680   3.375  13.286  0.3903 -1.3505 -0.4278
19515TIP3   OH279959   3.800   5.213   3.111  0.7385  0.3366 -1.0434
19515TIP3    H179960   3.882   5.258   3.134  1.3056 -0.8903 -0.6107
19515TIP3    H279961   3.827   5.139   3.057  0.0877 -0.9831  0.3710
19516TIP3   OH279962   2.815   2.287  13.468  0.2385  0.5332 -0.3291
19516TIP3    H179963   2.740   2.305  13.526 -1.1385 -0.4872 -1.7141
19516TIP3    H279964   2.822   2.192  13.466  0.6262  0.5723 -1.3806
19517TIP3   OH279965   2.186   2.551  15.113  0.0161  0.4470  0.0320
19517TIP3    H179966   2.189   2.473  15.058  1.3963  1.8553 -2.0384
19517TIP3    H279967   2.145   2.522  15.195 -0.4039 -2.1754 -1.0311
19518TIP3   OH279968   5.004   2.553   4.414 -0.0208 -0.0162  0.0491
19518TIP3    H179969   4.970   2.641   4.398  0.7505  0.1408 -0.8136
19518TIP3    H279970   4.927   2.496   4.413 -0.4540  0.5731 -0.0003
19519TIP3   OH279971   2.803   4.801  14.688 -0.4676  0.1116 -0.6263
19519TIP3    H179972   2.756   4.770  14.611 -1.3055  1.3370 -0.6482
19519TIP3    H279973   2.868   4.733  14.707 -1.8763 -1.3678 -0.9331
19520TIP3   OH279974   4.857   3.472  13.970 -0.4067  0.4339 -0.0964
19520TIP3    H179975   4.801   3.544  13.997  0.6106  0.4920  2.0452
19520TIP3    H279976   4.805   3.393  13.985 -0.4368  0.5693  0.5458
19521TIP3   OH279977   1.711   0.125  16.594 -0.1243 -0.2589  0.1620
19521TIP3    H179978   1.664   0.189  16.646 -0.3280  0.1537 -0.5253
19521TIP3    H279979   1.774   0.176  16.543  0.4435 -0.7108  0.4010
19522TIP3   OH279980   5.917   6.130  17.205 -0.0005 -0.8459  0.1667
19522TIP3    H179981   5.972   6.071  17.152  1.2089  0.7278 -0.4070
19522TIP3    H279982   5.963   6.137  17.288 -0.2651 -0.8819  0.3170
19523TIP3   OH279983   1.615   3.081  15.066 -0.4054  0.2625  1.0585
19523TIP3    H179984   1.620   3.082  15.161 -2.4869 -0.0285  1.2194
19523TIP3    H279985   1.528   3.118  15.046 -0.6148 -1.0256 -0.6411
19524TIP3   OH279986   5.878   2.220   4.798 -0.1087 -0.2741 -0.0069
19524TIP3    H179987   5.808   2.276   4.765  1.0959  1.0976 -0.3213
19524TIP3    H279988   5.956   2.248   4.750  0.7692 -1.4038  0.7110
19525TIP3   OH279989   3.191   4.021  16.073  0.0449  0.5108 -0.4381
19525TIP3    H179990   3.166   3.958  16.005  1.6057  0.5106 -1.0457
19525TIP3    H279991   3.130   4.004  16.145  0.1786 -1.4376 -0.7345
19526TIP3   OH279992   2.755   0.071   4.419 -0.1562  0.1995 -0.0261
19526TIP3    H179993   2.731   0.162   4.403 -2.7430 -0.2053  1.0562
19526TIP3    H279994   2.762   0.064   4.514  0.8061 -0.5839 -0.1338
19527TIP3   OH279995   6.296   3.180  13.724 -0.6831  0.2327 -0.0818
19527TIP3    H179996   6.316   3.165  13.816  0.4316 -0.4348 -0.4154
19527TIP3    H279997   6.210   3.222  13.724 -0.8856 -0.1574  1.2305
19528TIP3   OH279998   0.905   4.648   2.689  0.1834 -0.0344  0.0923
19528TIP3    H179999   0.820   4.612   2.713  0.5413 -1.8415 -1.1749
19528TIP3    H280000   0.920   4.719   2.752 -1.6477 -0.5301  1.1500
19529TIP3   OH280001   1.446   2.785  15.588  0.0562  0.0276  0.7109
19529TIP3    H180002   1.420   2.856  15.645  0.2703  0.1651  0.6383
19529TIP3    H280003   1.476   2.716  15.647 -2.9724 -1.2188  0.9766
19530TIP3   OH280004   0.171   6.199   2.209 -0.4946 -0.0350 -0.7545
19530TIP3    H180005   0.265   6.207   2.193 -0.2971 -1.0342 -0.2357
19530TIP3    H280006   0.163   6.207   2.304 -0.7295 -1.4096 -0.6280
19531TIP3   OH280007   5.261   2.711   1.114  0.4247 -0.1838  0.0676
19531TIP3    H180008   5.224   2.644   1.056 -1.2548  0.3149  0.5090
19531TIP3    H280009   5.355   2.698   1.108  0.2704 -0.6515 -2.1613
19532TIP3   OH280010   2.596   1.404  13.650  0.7871 -0.0327  0.1052
19532TIP3    H180011   2.602   1.485  13.700  0.3550 -0.6389  1.1762
19532TIP3    H280012   2.645   1.340  13.702  2.2641 -0.1699 -1.3844
19533TIP3   OH280013   3.046   4.459   0.324 -0.4525  0.1825 -0.1052
19533TIP3    H180014   3.064   4.422   0.411  0.0374  0.1006 -0.2395
19533TIP3    H280015   3.001   4.542   0.343 -0.6172  0.0251  0.2162
19534TIP3   OH280016   5.187   2.172  15.969  0.0116  0.0652  0.0642
19534TIP3    H180017   5.173   2.252  16.019 -0.1050 -0.3772  0.7570
19534TIP3    H280018   5.250   2.122  16.020 -0.3673 -0.5457 -0.0519
19535TIP3   OH280019   2.990   6.431  16.827 -0.6617  0.2534 -0.3404
19535TIP3    H180020   2.968   6.345  16.863 -1.0317  0.4262 -0.1452
19535TIP3    H280021   3.009   6.485  16.903  1.4497 -0.1387 -0.5372
19536TIP3   OH280022   2.456   5.075  15.020  0.9330 -0.0846  0.2832
19536TIP3    H180023   2.465   5.046  14.930  0.8061 -0.3798  0.3663
19536TIP3    H280024   2.364   5.060  15.042  1.2154 -1.1371  0.8437
19537TIP3   OH280025   3.467   0.207   4.468 -0.8594 -0.1828 -0.3783
19537TIP3    H180026   3.388   0.153   4.476 -0.8033 -0.2370 -0.1941
19537TIP3    H280027   3.493   0.225   4.558  0.2884 -1.5564 -0.3963
19538TIP3   OH280028   5.911   5.034   2.254  0.3647  0.4100 -0.2641
19538TIP3    H180029   5.822   5.005   2.274  0.4445 -1.5941 -2.3331
19538TIP3    H280030   5.957   4.953   2.232  2.6681  1.4302  0.5679
19539TIP3   OH280031   3.408   4.146  15.612 -0.2243  0.0107 -0.3365
19539TIP3    H180032   3.501   4.131  15.596 -0.6520 -2.2716 -1.0639
19539TIP3    H280033   3.376   4.064  15.649 -2.1976  0.2677 -1.3207
19540TIP3   OH280034   5.002   2.081  15.788  0.2961 -0.0521 -0.4584
19540TIP3    H180035   5.000   1.985  15.789 -0.5511 -0.1270  2.4847
19540TIP3    H280036   5.085   2.103  15.829  0.5085  0.4838 -1.1719
19541TIP3   OH280037   5.033   3.751   2.777 -0.2300  0.1736 -0.2846
19541TIP3    H180038   5.032   3.717   2.687 -0.9166  0.9912 -0.6051
19541TIP3    H280039   5.117   3.796   2.784 -0.9495  1.7484 -1.1864
19542TIP3   OH280040   1.149   2.933   6.095 -0.5301 -0.2261  0.1457
19542TIP3    H180041   1.206   2.941   6.172 -2.2686  0.6848  1.4108
19542TIP3    H280042   1.197   2.876   6.035  0.5646 -1.5923  2.2137
19543TIP3   OH280043   5.116   1.045  13.236  0.0612 -0.3954 -0.3821
19543TIP3    H180044   5.086   1.100  13.164 -0.8869 -0.2944  0.0629
19543TIP3    H280045   5.204   1.077  13.257  0.1776 -0.1576 -1.2197
19544TIP3   OH280046   3.108   3.804   5.156 -0.0240  0.3639  0.2559
19544TIP3    H180047   3.152   3.749   5.091  0.3043 -1.9927  2.3403
19544TIP3    H280048   3.044   3.746   5.197 -1.4613  2.2737  0.8689
19545TIP3   OH280049   2.686   6.260  14.439 -0.1691 -0.2219 -0.3139
19545TIP3    H180050   2.697   6.305  14.356 -0.5092  0.1284 -0.1715
19545TIP3    H280051   2.734   6.178  14.428 -0.2625 -0.2061 -0.8730
19546TIP3   OH280052   5.571   4.807   6.414 -0.3630 -0.0612  0.0760
19546TIP3    H180053   5.479   4.781   6.413  0.0030 -1.4994  0.5800
19546TIP3    H280054   5.571   4.901   6.394 -1.8009 -0.4106 -1.8206
19547TIP3   OH280055   0.764   2.600   0.109  0.0177  0.2660  0.2588
19547TIP3    H180056   0.785   2.686   0.071  0.6638 -0.2158 -0.5040
19547TIP3    H280057   0.829   2.588   0.178  1.6061 -0.7113 -1.3315
19548TIP3   OH280058   5.555   1.156   3.285  0.0028  0.0529 -0.5549
19548TIP3    H180059   5.548   1.145   3.191  0.0019  1.0594 -0.6848
19548TIP3    H280060   5.635   1.209   3.297 -1.4597  2.3241 -0.2191
19549TIP3   OH280061   2.122   5.586  16.871  0.0760  0.0942 -0.3579
19549TIP3    H180062   2.189   5.640  16.914 -0.8328 -0.3469  1.7871
19549TIP3    H280063   2.047   5.644  16.862 -1.4390 -0.9410  3.3335
19550TIP3   OH280064   4.133   0.667  16.209 -0.0318  0.3988  0.5693
19550TIP3    H180065   4.220   0.646  16.242  1.7860  2.3523 -2.4932
19550TIP3    H280066   4.120   0.607  16.135 -1.1361  0.4005  0.7436
19551TIP3   OH280067   3.099   4.958  17.428 -0.4924 -0.1499 -0.4326
19551TIP3    H180068   3.131   5.047  17.444  1.0269 -1.0287  1.9260
19551TIP3    H280069   3.044   4.938  17.503 -2.8755 -0.3853 -2.1560
19552TIP3   OH280070   1.588   1.103   2.675 -0.6622 -0.4242 -0.1676
19552TIP3    H180071   1.528   1.078   2.605 -1.1855 -0.4309  0.2806
19552TIP3    H280072   1.622   1.019   2.708  2.3028 -0.4055 -2.6967
19553TIP3   OH280073   3.608   0.873  16.990  0.2230  0.4958  0.5350
19553TIP3    H180074   3.549   0.931  17.038 -0.8207 -0.1194  0.0315
19553TIP3    H280075   3.584   0.785  17.020  1.0532  0.2533  0.4971
19554TIP3   OH280076   4.634   3.056  15.927 -0.4444  0.5399  0.1572
19554TIP3    H180077   4.712   3.106  15.902 -1.6032  2.5023  0.2743
19554TIP3    H280078   4.629   3.066  16.022 -1.8976  2.1164 -0.0550
19555TIP3   OH280079   6.375   3.112  11.518  0.4808  0.2272 -0.3757
19555TIP3    H180080   6.430   3.101  11.596 -0.9871  1.5305  0.9444
19555TIP3    H280081   6.399   3.198  11.484 -0.7229  0.8411  0.2589
19556TIP3   OH280082   3.329   3.295  14.430  0.1144  0.3923 -0.0227
19556TIP3    H180083   3.301   3.387  14.437  0.6787  0.5944 -0.3364
19556TIP3    H280084   3.423   3.300  14.415  0.0826 -0.2264 -0.4729
19557TIP3   OH280085   3.029   4.431  16.926 -0.3310 -0.2954 -0.3080
19557TIP3    H180086   3.083   4.377  16.983 -0.4396  0.5752  0.6475
19557TIP3    H280087   2.957   4.460  16.982 -0.7282  0.1540 -1.0355
19558TIP3   OH280088   3.450   3.994  13.682  0.0946 -0.1827  0.0126
19558TIP3    H180089   3.429   3.902  13.666 -0.1958 -0.7878  3.0882
19558TIP3    H280090   3.534   3.991  13.728 -1.4533  0.6730  3.1847
19559TIP3   OH280091   4.519   3.241   4.221 -0.3703 -0.1856  0.2567
19559TIP3    H180092   4.446   3.250   4.282  0.3258  0.1982  1.0638
19559TIP3    H280093   4.480   3.206   4.141 -1.2042 -1.3526  1.1463
19560TIP3   OH280094   4.405   2.965   5.483  0.2786 -0.0259  0.2027
19560TIP3    H180095   4.341   3.013   5.536  0.5789  1.1307 -0.4716
19560TIP3    H280096   4.427   2.888   5.537  0.1032  0.7953  1.4842
19561TIP3   OH280097   1.307   2.187  15.174  0.0093  0.4729  0.0188
19561TIP3    H180098   1.277   2.134  15.100 -0.1154 -0.0996  0.4641
19561TIP3    H280099   1.255   2.267  15.169  0.2198  0.5719 -0.6864
19562TIP3   OH280100   4.930   0.477  11.197 -0.3325 -0.0166 -0.2148
19562TIP3    H180101   4.987   0.410  11.161  0.5162  0.3736  0.3804
19562TIP3    H280102   4.878   0.508  11.123 -2.0026 -2.5175 -0.2159
19563TIP3   OH280103   3.763   3.907   5.307  0.3151  0.0195  0.0155
19563TIP3    H180104   3.745   4.001   5.315  0.2444  0.0577 -0.5778
19563TIP3    H280105   3.680   3.869   5.279  0.1364 -0.3315  0.9754
19564TIP3   OH280106   3.186   2.075  15.293  0.0901  0.0617  0.0426
19564TIP3    H180107   3.150   1.987  15.296  0.0964  0.0376 -0.4551
19564TIP3    H280108   3.111   2.133  15.305 -0.0311 -0.0021 -0.3644
19565TIP3   OH280109   2.083   3.087   5.559  0.0122  0.0675  0.0086
19565TIP3    H180110   2.158   3.041   5.521  0.3708  0.8350 -0.2121
19565TIP3    H280111   2.060   3.154   5.495 -0.9944 -0.2848 -0.0221
19566TIP3   OH280112   4.461   0.661  13.343  0.1860  0.0712  0.1609
19566TIP3    H180113   4.460   0.598  13.272 -0.3317  0.2796 -0.0257
19566TIP3    H280114   4.381   0.642  13.393  1.0767 -0.7704  1.3119
19567TIP3   OH280115   5.088   0.289   1.295  0.8376 -0.1353  0.5173
19567TIP3    H180116   5.114   0.266   1.206  1.3453  1.4261  0.2315
19567TIP3    H280117   5.070   0.383   1.291  1.7723  0.1619  2.2583
19568TIP3   OH280118   2.258   3.625   2.430  0.1856 -0.2367  0.3122
19568TIP3    H180119   2.325   3.557   2.427  0.7023  0.2884 -1.2225
19568TIP3    H280120   2.306   3.707   2.420 -0.4372  0.3929  2.0191
19569TIP3   OH280121   2.369   4.125  16.597  0.0674  0.2395  0.2846
19569TIP3    H180122   2.408   4.109  16.683 -1.1768 -0.9337  0.6634
19569TIP3    H280123   2.286   4.168  16.616  0.1510  0.7050 -0.3811
19570TIP3   OH280124   6.027   0.589  12.559  0.2019  0.4138 -0.0394
19570TIP3    H180125   5.987   0.628  12.482  1.4547 -0.8012 -1.3506
19570TIP3    H280126   6.117   0.621  12.558  0.3401  0.0723  0.7030
19571TIP3   OH280127   2.067   5.585  15.187 -0.1175  0.5633  0.4164
19571TIP3    H180128   2.014   5.654  15.226 -0.4832 -0.0137  0.9672
19571TIP3    H280129   2.082   5.523  15.259 -3.7889 -2.3710 -1.0404
19572TIP3   OH280130   3.726   6.391   5.191 -0.1487 -0.0259 -0.1105
19572TIP3    H180131   3.661   6.341   5.141  1.1565 -0.1867 -1.7221
19572TIP3    H280132   3.729   6.476   5.148  2.5152 -0.8518 -1.7598
19573TIP3   OH280133   0.387   5.291   1.599  0.0332  0.1244 -0.0025
19573TIP3    H180134   0.345   5.329   1.677 -1.0072 -1.5191  0.2963
19573TIP3    H280135   0.346   5.337   1.526  1.4902  2.1478  0.3843
19574TIP3   OH280136   4.954   6.109   6.360 -0.0673 -0.1749 -0.2584
19574TIP3    H180137   4.905   6.190   6.372 -1.5423 -1.2680  1.8571
19574TIP3    H280138   4.946   6.063   6.444  4.2955 -0.6715  0.1558
19575TIP3   OH280139   5.524   1.548  16.522 -0.2294  0.1811 -0.0940
19575TIP3    H180140   5.591   1.573  16.458 -1.1096  0.7341 -0.8305
19575TIP3    H280141   5.514   1.625  16.578  0.6662 -0.3625  0.8641
19576TIP3   OH280142   1.346   1.057   2.545  0.2269  0.3180  0.0974
19576TIP3    H180143   1.297   1.131   2.581 -0.6473  0.0831 -0.5750
19576TIP3    H280144   1.296   1.030   2.468 -1.5149 -3.1967  2.1825
19577TIP3   OH280145   2.985   2.278   2.085 -0.3601  0.5373  0.1588
19577TIP3    H180146   3.002   2.339   2.013 -1.3325 -0.0211 -0.5756
19577TIP3    H280147   2.913   2.318   2.133 -1.1296 -0.1056 -0.4385
19578TIP3   OH280148   4.576   2.875  15.443 -0.0883 -0.0640 -0.0031
19578TIP3    H180149   4.601   2.844  15.530 -0.5785  0.9094  0.4978
19578TIP3    H280150   4.586   2.798  15.386  0.9909 -0.5035  0.7578
19579TIP3   OH280151   4.265   5.146   0.828 -0.0995  0.2289  0.0664
19579TIP3    H180152   4.234   5.179   0.912 -1.4698  0.9991 -0.7126
19579TIP3    H280153   4.284   5.224   0.776 -0.5087 -0.2157 -0.7762
19580TIP3   OH280154   2.888   0.941   5.714  0.0373  0.1545  0.3198
19580TIP3    H180155   2.972   0.930   5.670 -0.1126  0.7799 -0.1433
19580TIP3    H280156   2.903   1.011   5.778 -0.2079  0.4945  0.0114
19581TIP3   OH280157   4.700   5.990   2.654 -0.0344  0.4636  1.2980
19581TIP3    H180158   4.705   6.036   2.570 -0.2428  0.9908  1.5691
19581TIP3    H280159   4.641   5.917   2.637  1.5655 -0.6762  0.4350
19582TIP3   OH280160   0.980   5.710   4.352 -0.2531  0.4013  0.1307
19582TIP3    H180161   1.035   5.738   4.279 -0.4792  1.0539  0.1993
19582TIP3    H280162   0.893   5.747   4.332 -0.3271  0.5411  0.6975
19583TIP3   OH280163   0.871   6.552  13.521 -0.7200  0.0411 -0.1690
19583TIP3    H180164   0.889   6.605  13.599  1.2913 -1.1032  0.2264
19583TIP3    H280165   0.854   6.615  13.452 -0.8490  1.1217  0.8255
19584TIP3   OH280166   4.595   1.060   3.324  0.1765 -0.3304 -0.2438
19584TIP3    H180167   4.548   1.087   3.244  1.5551 -0.3725 -1.0953
19584TIP3    H280168   4.603   0.965   3.316  0.7720 -0.2758 -0.3125
19585TIP3   OH280169   2.545   5.159   6.389  0.2845  0.4831  0.0308
19585TIP3    H180170   2.627   5.191   6.427 -0.4181  1.0229  1.1271
19585TIP3    H280171   2.496   5.238   6.367  0.0109  0.1598 -0.5300
19586TIP3   OH280172   1.427   1.273  14.251 -0.4240  0.1567 -0.0505
19586TIP3    H180173   1.372   1.214  14.302  0.0451 -0.7560 -0.5930
19586TIP3    H280174   1.513   1.233  14.252 -0.4257  0.0304 -1.6805
19587TIP3   OH280175   5.956   0.022   0.851  0.9227  0.3692 -0.0033
19587TIP3    H180176   6.007   0.066   0.782 -0.0574 -0.2320 -1.1524
19587TIP3    H280177   5.883   0.082   0.869  0.6257  0.0699 -0.2102
19588TIP3   OH280178   3.096   0.948   2.890 -0.1818 -0.3088  0.1860
19588TIP3    H180179   3.050   0.866   2.873 -1.2920  0.7306 -2.2480
19588TIP3    H280180   3.077   1.004   2.815  1.4333  1.8282  1.2119
19589TIP3   OH280181   3.847   6.477   6.223 -0.2928  0.0876 -0.0972
19589TIP3    H180182   3.877   6.568   6.211  1.4195 -0.4050  0.1816
19589TIP3    H280183   3.824   6.472   6.315 -1.3146  0.4874 -0.3233
19590TIP3   OH280184   0.462   1.642   0.247 -0.1664 -0.3373 -0.1879
19590TIP3    H180185   0.489   1.584   0.176  1.7835  0.8215 -0.4415
19590TIP3    H280186   0.377   1.676   0.219  0.0305 -0.7983 -1.4065
19591TIP3   OH280187   1.412   1.660  15.602  0.3996  0.0063  0.2504
19591TIP3    H180188   1.377   1.607  15.674 -1.2818  0.9095  0.1479
19591TIP3    H280189   1.462   1.598  15.549 -2.0056 -1.6559 -0.2220
19592TIP3   OH280190   2.715   4.154  16.101  0.0535 -0.2562 -0.1177
19592TIP3    H180191   2.627   4.124  16.081 -0.5943  1.0573  0.6915
19592TIP3    H280192   2.705   4.214  16.174  1.4947  0.7082 -0.6625
19593TIP3   OH280193   3.442   0.345  16.599  0.2555  0.0918 -1.2427
19593TIP3    H180194   3.391   0.291  16.540  0.8602 -1.4951 -0.3843
19593TIP3    H280195   3.437   0.300  16.684  2.3220  0.3342 -0.9295
19594TIP3   OH280196   1.080   1.100   1.012 -0.5375  0.4415  0.2260
19594TIP3    H180197   1.160   1.086   1.062 -1.1872  0.2804  1.2686
19594TIP3    H280198   1.037   1.014   1.011 -0.9302  0.6359  0.1153
19595TIP3   OH280199   0.253   4.016  11.809  0.1263  0.0400  0.0369
19595TIP3    H180200   0.287   4.054  11.890 -0.1883 -0.7038  0.5208
19595TIP3    H280201   0.209   3.935  11.836  1.0484 -0.8481 -1.0033
19596TIP3   OH280202   5.340   1.344  15.734 -0.5277 -0.4609  0.0492
19596TIP3    H180203   5.413   1.395  15.702 -0.7475 -0.2526 -0.1227
19596TIP3    H280204   5.380   1.274  15.786 -0.2459  0.1301  0.6387
19597TIP3   OH280205   1.028   2.815   0.581  0.9297  0.2896 -0.9541
19597TIP3    H180206   0.997   2.751   0.517 -0.1264  1.3141 -1.5060
19597TIP3    H280207   0.977   2.797   0.659  3.2603 -1.9544  0.2205
19598TIP3   OH280208   5.346   6.013  16.495 -0.2386 -0.3473  0.6666
19598TIP3    H180209   5.366   6.093  16.543  1.1666 -0.5801  0.5012
19598TIP3    H280210   5.258   6.027  16.461  0.1828  1.3466  0.1843
19599TIP3   OH280211   0.843   3.269  11.773  0.2376 -0.3538  0.0649
19599TIP3    H180212   0.833   3.270  11.868 -2.3823 -2.3013 -0.1139
19599TIP3    H280213   0.822   3.359  11.746  0.0125 -0.0440  1.2267
19600TIP3   OH280214   3.195   3.705   5.843  0.0022 -0.6125 -0.4527
19600TIP3    H180215   3.227   3.615   5.839 -0.8420 -0.8850 -1.4807
19600TIP3    H280216   3.260   3.757   5.795  0.7287 -0.5848  0.5350
19601TIP3   OH280217   5.060   5.619  15.268 -0.4445 -0.0560 -0.4320
19601TIP3    H180218   5.075   5.584  15.180  0.8121  0.5953 -0.5012
19601TIP3    H280219   5.098   5.708  15.265 -0.0244 -0.1746  0.8671
19602TIP3   OH280220   6.281   0.618   1.222  0.3088  0.1025  0.4335
19602TIP3    H180221   6.258   0.570   1.302  1.4408 -0.2916  0.5368
19602TIP3    H280222   6.280   0.551   1.153  0.6048  0.1916  0.3425
19603TIP3   OH280223   2.911   4.573  13.216 -0.1238  0.3686  0.3342
19603TIP3    H180224   2.983   4.553  13.276  1.6143  3.6320 -0.4110
19603TIP3    H280225   2.878   4.657  13.245 -0.9762  0.7970 -1.7082
19604TIP3   OH280226   0.789   5.199  15.968 -0.0371 -0.4303 -0.3787
19604TIP3    H180227   0.762   5.152  15.888 -1.1896 -1.4870  0.5912
19604TIP3    H280228   0.716   5.259  15.985  1.0318  1.1384 -1.1066
19605TIP3   OH280229   3.822   1.562   2.482  0.2377  0.1941  0.6706
19605TIP3    H180230   3.815   1.469   2.505  0.1972  0.2164  0.7472
19605TIP3    H280231   3.826   1.607   2.566 -0.3954  0.3143  0.6423
19606TIP3   OH280232   4.096   6.247  12.704  0.0925  0.1684 -0.1728
19606TIP3    H180233   4.062   6.266  12.791  0.5988 -0.2641  0.1262
19606TIP3    H280234   4.124   6.332  12.669 -0.3188  0.3724 -0.0069
19607TIP3   OH280235   3.987   2.788  12.343  0.2953 -0.2655  0.6610
19607TIP3    H180236   3.958   2.819  12.429  1.5972 -0.8295  1.3315
19607TIP3    H280237   3.937   2.841  12.280 -1.4128 -0.5324  1.7332
19608TIP3   OH280238   5.359   4.061  14.374  0.5542  0.5003 -0.0652
19608TIP3    H180239   5.400   3.987  14.331  3.6826  3.5449 -2.9805
19608TIP3    H280240   5.308   4.105  14.306  1.3191  2.6443  0.6505
19609TIP3   OH280241   6.430   5.565   4.301  0.1295  0.0482 -0.3250
19609TIP3    H180242   6.521   5.567   4.330 -0.2218 -0.9869  0.9604
19609TIP3    H280243   6.386   5.508   4.364 -1.2301 -0.2029 -1.4468
19610TIP3   OH280244   3.954   6.042  15.659 -0.1613 -0.3847  0.3153
19610TIP3    H180245   3.903   6.049  15.578 -0.1543  0.0019  0.3458
19610TIP3    H280246   3.888   6.043  15.728 -0.1362 -0.2476  0.3376
19611TIP3   OH280247   3.876   4.169   1.351 -0.0751  0.5659 -0.2767
19611TIP3    H180248   3.970   4.179   1.365  0.0820 -0.6166 -0.3679
19611TIP3    H280249   3.868   4.088   1.300 -1.1764  0.3403  0.2234
19612TIP3   OH280250   5.573   1.514   0.542 -0.6826 -0.0981 -0.2508
19612TIP3    H180251   5.653   1.475   0.506 -2.4393 -1.7419 -2.7281
19612TIP3    H280252   5.559   1.593   0.491 -1.2792 -0.4899 -0.7043
19613TIP3   OH280253   4.383   0.686   1.937 -0.1631  0.0767  0.1202
19613TIP3    H180254   4.363   0.633   2.014  1.5712 -0.7012  0.0765
19613TIP3    H280255   4.398   0.774   1.971 -0.3886 -0.0499  0.5432
19614TIP3   OH280256   1.758   5.073   2.052 -0.6721 -0.4238  0.6350
19614TIP3    H180257   1.846   5.107   2.040 -1.0642 -0.1631 -1.8662
19614TIP3    H280258   1.701   5.150   2.052 -1.0695 -0.7113  0.4960
19615TIP3   OH280259   1.628   5.451   1.532 -0.7983  0.2070 -0.4028
19615TIP3    H180260   1.534   5.450   1.551 -0.3388 -1.5309  2.4201
19615TIP3    H280261   1.668   5.485   1.612  1.1101 -2.0682 -0.3027
19616TIP3   OH280262   1.896   2.492   0.144  0.5563 -0.6492 -0.0538
19616TIP3    H180263   1.829   2.526   0.084  0.7979  0.3313  0.2013
19616TIP3    H280264   1.972   2.548   0.127  1.1009 -1.3330  0.1171
19617TIP3   OH280265   5.454   6.305   4.926  0.5210 -0.1871 -0.1643
19617TIP3    H180266   5.459   6.283   5.020 -0.8576 -2.7384 -0.5920
19617TIP3    H280267   5.361   6.314   4.908  0.7429 -0.1404 -1.3669
19618TIP3   OH280268   1.839   1.911   5.086  0.0523  0.5435 -0.1016
19618TIP3    H180269   1.835   1.820   5.113  1.9210  0.9759  1.9219
19618TIP3    H280270   1.752   1.946   5.103  0.3100  0.0013  2.7113
19619TIP3   OH280271   4.259   6.724  12.881  0.4570  0.1525 -0.2206
19619TIP3    H180272   4.255   6.777  12.801  1.1786  0.7210  0.1058
19619TIP3    H280273   4.175   6.678  12.884 -0.9808  2.6201  0.3954
19620TIP3   OH280274   4.618   2.662   2.279  0.3565  0.2473 -0.2119
19620TIP3    H180275   4.636   2.695   2.192 -1.0615  0.8236 -0.3135
19620TIP3    H280276   4.673   2.584   2.287  2.4769  1.6292 -0.6052
19621TIP3   OH280277   2.188   0.371   3.075 -0.0750  0.9666  0.3385
19621TIP3    H180278   2.211   0.462   3.092 -0.6391  1.2167 -0.1624
19621TIP3    H280279   2.253   0.341   3.011  1.2835  0.4059  1.9047
19622TIP3   OH280280   5.962   5.623   1.231  0.0693 -0.0398  0.0245
19622TIP3    H180281   5.991   5.711   1.207  0.4018 -0.2459 -0.3393
19622TIP3    H280282   5.890   5.637   1.292 -1.2069  0.5185 -1.5393
19623TIP3   OH280283   2.929   1.097  11.826 -0.2536  0.4040  0.1313
19623TIP3    H180284   2.926   1.005  11.852 -0.1601  0.5917  0.8315
19623TIP3    H280285   3.017   1.126  11.849 -0.5715  0.8990  0.7342
19624TIP3   OH280286   5.032   0.382  16.816  0.3419 -0.1905 -0.3031
19624TIP3    H180287   5.121   0.390  16.781  1.0243  0.6110  1.4822
19624TIP3    H280288   4.976   0.417  16.746  1.3846 -0.8303 -1.5090
19625TIP3   OH280289   2.056   2.183   1.478 -0.5405 -0.1519  0.6125
19625TIP3    H180290   2.075   2.277   1.474  1.7861 -0.5816 -1.7473
19625TIP3    H280291   2.110   2.150   1.550 -0.9577  0.2215  1.1037
19626TIP3   OH280292   3.730   6.148   3.666  0.0312 -0.1656  0.0539
19626TIP3    H180293   3.807   6.188   3.706 -0.5593  1.8768 -0.7524
19626TIP3    H280294   3.757   6.058   3.648  1.3285 -0.2781  2.1833
19627TIP3   OH280295   4.782   5.873  11.370 -0.1975 -0.3550  0.6315
19627TIP3    H180296   4.784   5.962  11.334  0.6637 -0.8532 -0.6319
19627TIP3    H280297   4.751   5.884  11.460  1.9209  1.4889  1.2267
19628TIP3   OH280298   5.808   5.599   0.488  0.4831  0.5774  0.0584
19628TIP3    H180299   5.860   5.644   0.554  0.3114  0.3551  0.3479
19628TIP3    H280300   5.722   5.590   0.528  0.2182  0.9442 -0.4182
19629TIP3   OH280301   5.040   5.377  12.897  0.2515 -0.1041  0.1285
19629TIP3    H180302   4.958   5.421  12.918  0.4937  0.5150 -0.1947
19629TIP3    H280303   5.077   5.429  12.825  0.8996 -0.4024  0.2443
19630TIP3   OH280304   3.093   1.736  14.690  0.2966  0.0263 -0.5940
19630TIP3    H180305   3.109   1.696  14.605 -1.9498 -3.5793  0.4460
19630TIP3    H280306   3.102   1.664  14.753 -1.1052  1.8197  1.8560
19631TIP3   OH280307   1.906   1.047  13.646 -0.2558 -0.0605 -0.1143
19631TIP3    H180308   1.933   0.958  13.672 -1.3310 -1.1154 -2.3249
19631TIP3    H280309   1.976   1.077  13.588 -1.0234 -0.5188 -1.3324
19632TIP3   OH280310   1.423   3.713   1.472 -0.8244  0.2652  0.2990
19632TIP3    H180311   1.378   3.785   1.427  0.3633  1.3972  0.8575
19632TIP3    H280312   1.508   3.749   1.496  0.3432 -1.7325 -0.5436
19633TIP3   OH280313   5.267   6.293   3.429 -0.2187  0.2318 -0.0561
19633TIP3    H180314   5.233   6.207   3.405 -1.6647  0.7552  0.0471
19633TIP3    H280315   5.285   6.335   3.345  0.3337 -0.1020 -0.1093
19634TIP3   OH280316   5.159   4.953   5.236  0.0921 -0.0752  0.5030
19634TIP3    H180317   5.194   5.040   5.216 -1.9110  0.8728  0.9691
19634TIP3    H280318   5.086   4.942   5.175  0.4035 -1.5275  0.3484
19635TIP3   OH280319   4.503   5.415  16.065  0.9659  0.0291  0.0382
19635TIP3    H180320   4.545   5.492  16.026  0.4846 -0.3011 -1.1596
19635TIP3    H280321   4.568   5.346  16.059  2.4199  0.8970  3.4888
19636TIP3   OH280322   0.385   5.937   6.765  0.0178  0.0183 -1.1161
19636TIP3    H180323   0.334   5.858   6.784 -0.8020  0.9779  0.9214
19636TIP3    H280324   0.342   5.975   6.688 -0.3878 -0.8164 -1.3170
19637TIP3   OH280325   5.726   5.547   5.928 -0.2447 -0.0847 -0.0548
19637TIP3    H180326   5.815   5.528   5.898 -0.6057 -0.1086 -1.1499
19637TIP3    H280327   5.670   5.489   5.876 -0.9367  0.2620  0.2892
19638TIP3   OH280328   2.851   2.817  16.577  0.5794 -0.2491 -0.3214
19638TIP3    H180329   2.859   2.786  16.668 -1.0751 -1.3052 -0.4835
19638TIP3    H280330   2.903   2.754  16.526  1.7443  0.5115 -0.0945
19639TIP3   OH280331   0.425   2.600   3.716  0.2382 -0.1899  0.5536
19639TIP3    H180332   0.337   2.638   3.727 -0.6263 -1.9062 -0.0401
19639TIP3    H280333   0.466   2.653   3.648 -0.1606  0.9208  1.1588
19640TIP3   OH280334   1.017   4.792   1.597  0.0272 -0.7673  0.2951
19640TIP3    H180335   0.966   4.781   1.517  0.3930 -2.4345  0.2558
19640TIP3    H280336   1.005   4.884   1.621 -2.1694 -0.8566 -0.2554
19641TIP3   OH280337   0.697   4.397   3.216  0.4607 -0.2798 -0.5237
19641TIP3    H180338   0.632   4.373   3.282  3.2321 -0.6403  2.2873
19641TIP3    H280339   0.668   4.483   3.185 -1.2696 -0.3796  0.6680
19642TIP3   OH280340   2.806   0.051  12.888  0.3331 -0.1865 -0.0915
19642TIP3    H180341   2.777   0.031  12.799 -1.4633  0.5518  0.2791
19642TIP3    H280342   2.775  -0.023  12.941  2.1032 -1.0246 -0.1624
19643TIP3   OH280343   6.570   5.337   3.240 -0.2999  0.1402  0.1761
19643TIP3    H180344   6.662   5.312   3.235 -0.1072  0.9248 -0.2151
19643TIP3    H280345   6.523   5.260   3.208  0.2577  0.0252 -0.3777
19644TIP3   OH280346   3.944   0.342  12.303  0.2845 -0.6176  0.2276
19644TIP3    H180347   3.873   0.393  12.265 -0.9645 -2.3425  0.1263
19644TIP3    H280348   3.982   0.294  12.229  0.3857 -1.0393  0.5453
19645TIP3   OH280349   5.233   0.708   6.482  0.3640  0.4546 -0.8118
19645TIP3    H180350   5.148   0.750   6.497  0.6283  1.3167 -1.6508
19645TIP3    H280351   5.245   0.651   6.558 -0.7576  0.6603 -0.4600
19646TIP3   OH280352   5.339   3.110  14.457  0.5470  0.1184 -0.8534
19646TIP3    H180353   5.361   3.071  14.373  1.5495 -0.8304 -0.1784
19646TIP3    H280354   5.297   3.039  14.506  0.8059  0.3913 -0.2269
19647TIP3   OH280355   3.285   5.602  15.083  0.2280  0.3318  1.0024
19647TIP3    H180356   3.287   5.573  14.992 -1.3545 -1.1071  1.3664
19647TIP3    H280357   3.375   5.591  15.113  0.1544 -2.4109  0.5003
19648TIP3   OH280358   4.256   5.170  12.867  0.4926 -0.2861  0.3111
19648TIP3    H180359   4.254   5.110  12.793  2.6958 -0.9935  0.7502
19648TIP3    H280360   4.340   5.215  12.860 -0.2990  1.4241  1.0423
19649TIP3   OH280361   5.884   3.285   4.738 -0.4202  0.0798  0.4153
19649TIP3    H180362   5.806   3.341   4.734 -0.4476 -0.0206 -1.1071
19649TIP3    H280363   5.856   3.209   4.790 -1.4751 -0.1428 -0.4429
19650TIP3   OH280364   5.140   2.172   2.033 -0.2024 -0.1688  0.2250
19650TIP3    H180365   5.134   2.105   1.966 -0.5470 -0.9824  1.0457
19650TIP3    H280366   5.064   2.228   2.019 -0.4739 -0.5548  0.1704
19651TIP3   OH280367   6.520   2.769  15.274 -0.0719 -0.4250 -0.1387
19651TIP3    H180368   6.445   2.778  15.215 -0.0377 -0.7947 -0.2405
19651TIP3    H280369   6.589   2.822  15.234 -0.2037 -0.2724 -0.1670
19652TIP3   OH280370   0.043   3.321  14.300 -0.3058  0.0782  0.2964
19652TIP3    H180371   0.136   3.332  14.320 -0.3029 -0.7540  0.8301
19652TIP3    H280372  -0.003   3.359  14.375 -0.4896  2.4334 -0.9225
19653TIP3   OH280373   0.815   4.795   1.369 -0.0585  0.0197  0.2017
19653TIP3    H180374   0.849   4.814   1.281 -2.9404 -1.1942 -1.3135
19653TIP3    H280375   0.770   4.875   1.396  0.8257  0.3919  0.6084
19654TIP3   OH280376   2.263   0.800  16.833 -0.1346 -0.2799  0.8480
19654TIP3    H180377   2.306   0.861  16.892 -2.1842  0.9944  1.1069
19654TIP3    H280378   2.323   0.793  16.758  0.9913  0.5900  1.6393
19655TIP3   OH280379   3.256   4.706  15.054  0.7103  0.2486 -0.2251
19655TIP3    H180380   3.332   4.668  15.010 -0.5112  0.5100 -2.7327
19655TIP3    H280381   3.209   4.631  15.089  1.9592  0.0706  1.1649
19656TIP3   OH280382   5.388   3.431   1.973  0.4919  0.0833 -0.2204
19656TIP3    H180383   5.324   3.438   1.903  0.1047  2.9626  0.2898
19656TIP3    H280384   5.471   3.456   1.932  0.4208  0.9374  0.1523
19657TIP3   OH280385   6.738   6.418  12.465 -0.7147 -0.4475 -0.4405
19657TIP3    H180386   6.692   6.468  12.397 -0.7027 -0.5961 -0.5570
19657TIP3    H280387   6.790   6.354  12.417 -0.8312 -0.6610 -0.2830
19658TIP3   OH280388   3.072   2.284   0.515  0.1112 -0.5642  0.1942
19658TIP3    H180389   3.072   2.323   0.428  2.8047 -1.1671 -0.1719
19658TIP3    H280390   3.121   2.346   0.569 -1.6809 -0.1071  1.3943
19659TIP3   OH280391   2.044   1.751   5.958  0.1894  0.0037  0.3127
19659TIP3    H180392   2.099   1.814   5.911 -1.8669  0.9582 -0.9360
19659TIP3    H280393   2.089   1.739   6.042  1.1208  2.5150  0.2770
19660TIP3   OH280394   5.137   2.495   1.683 -0.5045 -0.5340 -0.0576
19660TIP3    H180395   5.094   2.410   1.684 -1.6548 -0.0134 -1.7239
19660TIP3    H280396   5.166   2.507   1.592  1.4299  0.0090  0.5747
19661TIP3   OH280397   5.669   3.907   5.730 -0.3323 -0.2089 -0.0144
19661TIP3    H180398   5.705   3.870   5.810  0.4949 -0.9510 -0.7066
19661TIP3    H280399   5.731   3.882   5.662 -0.0855  1.8922 -0.6494
19662TIP3   OH280400   0.248   3.626  16.969 -0.5978  0.3812 -0.4213
19662TIP3    H180401   0.174   3.600  16.914  0.7260 -2.4087 -1.1008
19662TIP3    H280402   0.221   3.709  17.008 -3.4105  0.2684 -1.8334
19663TIP3   OH280403   2.131   0.310  14.103 -0.2581 -0.3342  0.4837
19663TIP3    H180404   2.187   0.277  14.033  0.6398 -0.4807  1.2427
19663TIP3    H280405   2.066   0.241  14.116  0.0054 -0.6260  0.2769
19664TIP3   OH280406   3.158   5.923   6.361 -0.4323  0.0965 -0.4502
19664TIP3    H180407   3.106   5.920   6.441 -2.4895  0.3575 -1.6953
19664TIP3    H280408   3.095   5.907   6.291  0.9275  1.8265 -2.1774
19665TIP3   OH280409   1.945   5.344   5.006  0.3959  0.4756  0.0387
19665TIP3    H180410   1.946   5.438   4.984  0.2969  0.7111  1.0013
19665TIP3    H280411   1.852   5.322   5.009  0.3724  0.6542  1.0228
19666TIP3   OH280412   2.509   2.512   2.619  0.2334  0.2673 -0.0952
19666TIP3    H180413   2.494   2.607   2.614  0.7997  0.4486  1.3107
19666TIP3    H280414   2.503   2.492   2.712 -1.8881 -1.4338 -0.5315
19667TIP3   OH280415   0.189   3.181  15.380 -0.2253  0.0958 -0.0406
19667TIP3    H180416   0.120   3.205  15.443 -2.4387  2.3446 -3.0293
19667TIP3    H280417   0.178   3.086  15.369 -2.8114  0.3334 -0.2390
19668TIP3   OH280418   1.719   3.555   1.296  0.6250  0.5214  0.7304
19668TIP3    H180419   1.634   3.523   1.327 -0.2977 -0.2940 -2.2190
19668TIP3    H280420   1.782   3.523   1.360 -1.1183 -0.2999  2.1305
19669TIP3   OH280421   5.058   6.228  12.777 -0.4765 -0.2510  0.2752
19669TIP3    H180422   4.989   6.272  12.827 -0.5398  0.1498 -0.1655
19669TIP3    H280423   5.055   6.268  12.690  0.2696 -0.2646  0.2307
19670TIP3   OH280424   2.696   4.300   5.435  0.6280  0.4557 -0.2992
19670TIP3    H180425   2.771   4.242   5.448 -0.3840 -0.6769  0.7978
19670TIP3    H280426   2.720   4.380   5.481  1.7012  0.6271 -1.1152
19671TIP3   OH280427   2.932   0.254  15.042  0.1098 -0.2758  0.0322
19671TIP3    H180428   2.967   0.249  14.953  2.9556 -0.3857  1.0629
19671TIP3    H280429   2.917   0.163  15.068  2.7160 -0.5600  0.8281
19672TIP3   OH280430   2.369   1.229   5.724 -0.2189 -0.2852  0.2776
19672TIP3    H180431   2.297   1.171   5.697  1.2719 -1.7851 -0.6312
19672TIP3    H280432   2.446   1.195   5.679  1.0700  1.3568  1.1324
19673TIP3   OH280433   6.588   5.830  14.366  0.3670  0.5821 -0.3741
19673TIP3    H180434   6.526   5.865  14.302  0.8370 -0.4484 -1.4311
19673TIP3    H280435   6.630   5.756  14.321  1.1968  0.2499  0.8909
19674TIP3   OH280436   5.275   3.601   3.639 -0.4491 -0.0513  0.4034
19674TIP3    H180437   5.206   3.590   3.573 -1.3883 -0.7672  1.4669
19674TIP3    H280438   5.228   3.602   3.722  0.8461 -0.7300  1.1685
19675TIP3   OH280439   4.006   6.161  11.479  0.4104  0.5715 -0.1650
19675TIP3    H180440   3.929   6.218  11.474  1.7171  2.3358 -2.2274
19675TIP3    H280441   4.003   6.109  11.399  1.7689  1.3086 -0.7409
19676TIP3   OH280442   2.117   1.865   4.948 -0.2267 -0.2454  0.2912
19676TIP3    H180443   2.112   1.958   4.923 -1.8624 -0.8532 -1.9271
19676TIP3    H280444   2.035   1.848   4.994  0.3448 -0.4771  1.2493
19677TIP3   OH280445   1.088   1.783  14.768 -0.5102  0.2134 -0.2299
19677TIP3    H180446   1.017   1.815  14.824 -3.4422 -2.9234 -1.7285
19677TIP3    H280447   1.124   1.708  14.816  0.0563  0.2535 -0.5891
19678TIP3   OH280448   0.899   2.467  16.135 -0.5498  0.8094 -0.5894
19678TIP3    H180449   0.950   2.547  16.129  1.6764 -0.5690 -1.1258
19678TIP3    H280450   0.903   2.442  16.228 -2.5188  2.0114 -0.1047
19679TIP3   OH280451   3.701   5.104  11.522  0.1597  0.4352 -0.3138
19679TIP3    H180452   3.735   5.189  11.493  2.6705 -0.9861 -1.8628
19679TIP3    H280453   3.613   5.099  11.484  0.2715  1.9842 -0.8652
19680TIP3   OH280454   4.306   2.207  11.956 -0.0601  0.4359 -0.1172
19680TIP3    H180455   4.282   2.201  11.863 -0.4726 -0.9679  0.0670
19680TIP3    H280456   4.240   2.266  11.994  0.0439  0.9262 -0.6732
19681TIP3   OH280457   0.563   1.198  15.832  0.1501 -0.3007  0.0608
19681TIP3    H180458   0.584   1.158  15.748  0.2120 -0.6299  0.2337
19681TIP3    H280459   0.645   1.199  15.880  0.2333  0.3815 -0.0825
19682TIP3   OH280460   1.764   0.368   2.080  0.2052  0.0238  0.0752
19682TIP3    H180461   1.810   0.307   2.137 -0.3482 -0.6174 -0.1459
19682TIP3    H280462   1.671   0.349   2.095  0.0486 -0.5206 -1.4032
19683TIP3   OH280463   2.661   2.025   0.641  0.1521 -0.3446 -0.6209
19683TIP3    H180464   2.613   2.105   0.661  1.2700  0.2483 -0.1896
19683TIP3    H280465   2.753   2.051   0.647  0.5297 -1.5853 -0.8145
19684TIP3   OH280466   0.725   5.853   1.177  0.5403  1.0634  0.0652
19684TIP3    H180467   0.809   5.898   1.182  0.7776  0.4827  2.9945
19684TIP3    H280468   0.704   5.831   1.267 -2.1829  0.0692 -0.7057
19685TIP3   OH280469   4.128   2.050   5.440  0.6090 -0.3822  0.1183
19685TIP3    H180470   4.049   2.005   5.469  0.7719 -0.0927  1.0416
19685TIP3    H280471   4.194   1.982   5.433  0.7676 -0.3519  1.1852
19686TIP3   OH280472   1.784   6.731   3.622 -0.6893 -0.3081  0.1345
19686TIP3    H180473   1.710   6.684   3.584 -0.4362 -0.9278  0.3937
19686TIP3    H280474   1.853   6.724   3.556 -1.8643  3.2896 -1.7443
19687TIP3   OH280475   0.648   5.835  13.291  0.0399 -0.3433  0.1857
19687TIP3    H180476   0.690   5.850  13.206  0.2146  0.0307  0.3371
19687TIP3    H280477   0.708   5.778  13.338  0.8689  0.9546  0.7668
19688TIP3   OH280478   3.133   1.063  15.806  0.0293 -0.0748 -0.4118
19688TIP3    H180479   3.067   1.011  15.761  0.4961  0.7244 -2.0563
19688TIP3    H280480   3.217   1.031  15.771  0.5098 -0.4567  0.9866
19689TIP3   OH280481   0.149   6.305   6.603  0.1239 -0.2783 -0.2142
19689TIP3    H180482   0.239   6.336   6.618 -0.2956  0.0772  1.7384
19689TIP3    H280483   0.144   6.221   6.649 -1.2448  0.9061  1.9593
19690TIP3   OH280484   3.281   0.969  11.576 -0.4150  0.1113 -0.2002
19690TIP3    H180485   3.335   0.915  11.519  0.1050  0.4582 -0.0416
19690TIP3    H280486   3.325   1.054  11.580 -1.0073  0.4284 -0.1229
19691TIP3   OH280487   1.233   0.416   2.218  0.3298  0.4208 -0.2486
19691TIP3    H180488   1.152   0.443   2.262  0.8013 -0.0759  0.9867
19691TIP3    H280489   1.253   0.487   2.157 -0.2078  1.2878  0.5579
19692TIP3   OH280490   4.812   4.840  13.602 -0.3990 -0.0335 -0.0897
19692TIP3    H180491   4.758   4.866  13.676 -1.6453  0.9582 -1.3155
19692TIP3    H280492   4.818   4.745  13.609  0.3582  0.1121  1.8306
19693TIP3   OH280493   0.918   6.623   3.448  0.3035  0.0555 -0.4832
19693TIP3    H180494   0.929   6.594   3.357  1.7442 -0.5291 -0.1417
19693TIP3    H280495   0.895   6.716   3.440  0.4633  0.0250 -1.4435
19694TIP3   OH280496   1.823   4.670   0.077 -0.2548 -0.0051  0.3913
19694TIP3    H180497   1.749   4.609   0.082 -1.3185  1.2697  0.6850
19694TIP3    H280498   1.879   4.646   0.151  0.5045 -2.0251 -0.7463
19695TIP3   OH280499   1.555   1.177  13.068  0.0163 -0.5427 -0.1683
19695TIP3    H180500   1.532   1.192  13.160  2.3652 -1.0128  0.5581
19695TIP3    H280501   1.506   1.098  13.044  0.8105 -1.5567  1.3230
19696TIP3   OH280502   5.122   6.288   6.715 -0.1157  0.1618 -0.1171
19696TIP3    H180503   5.059   6.306   6.785  0.2307 -0.0690  0.2559
19696TIP3    H280504   5.084   6.215   6.667  0.3624 -0.6720  0.7439
19697TIP3   OH280505   6.607   4.950  14.756 -0.3477 -0.1278  0.5463
19697TIP3    H180506   6.689   4.902  14.746  0.8207  2.0324 -1.2191
19697TIP3    H280507   6.605   5.010  14.681 -2.1425  1.9130  2.0923
19698TIP3   OH280508   5.757   1.739  11.486  0.3815  0.1116 -0.4831
19698TIP3    H180509   5.741   1.645  11.486 -1.2002  0.3166  1.3111
19698TIP3    H280510   5.741   1.767  11.396  0.4650 -1.2593 -0.9386
19699TIP3   OH280511   2.397   0.641   3.532 -0.1407 -0.3130 -0.1431
19699TIP3    H180512   2.339   0.582   3.484  0.4542 -0.0102 -1.2439
19699TIP3    H280513   2.425   0.706   3.468 -0.3804  0.8896  0.9226
19700TIP3   OH280514   1.072   2.657  13.653  0.4359  0.0994 -0.5484
19700TIP3    H180515   1.159   2.691  13.675 -0.8965  2.2325  2.0069
19700TIP3    H280516   1.072   2.568  13.689  1.6542 -0.0678 -0.9119
19701TIP3   OH280517   6.165   6.073  13.444  0.3142  0.0221 -0.5845
19701TIP3    H180518   6.127   6.108  13.362 -0.5510  1.4311  0.3560
19701TIP3    H280519   6.245   6.124  13.457  2.0391 -2.1700 -1.9733
19702TIP3   OH280520   0.909   2.015   2.070  0.0248  0.3085 -0.4201
19702TIP3    H180521   0.921   1.956   2.144 -0.3321 -0.5301 -1.0216
19702TIP3    H280522   0.864   2.091   2.107 -0.8750 -0.4436  0.0777
19703TIP3   OH280523   4.091   0.395   2.330  0.3226  0.8563 -0.0377
19703TIP3    H180524   4.001   0.398   2.299  0.0531 -0.9085  0.5082
19703TIP3    H280525   4.089   0.441   2.414 -1.2170 -3.3106  2.4792
19704TIP3   OH280526   3.350   3.168   6.229  0.2026  0.0716  0.1212
19704TIP3    H180527   3.321   3.095   6.284  0.3425  0.5622  0.8552
19704TIP3    H280528   3.304   3.244   6.264 -0.6906  0.2045 -1.2469
19705TIP3   OH280529   0.174   4.034   2.743  0.1714 -0.0148  0.5368
19705TIP3    H180530   0.249   4.051   2.687 -1.2336 -2.3137 -2.3388
19705TIP3    H280531   0.125   4.117   2.745  1.3746  0.7163  0.2004
19706TIP3   OH280532   3.852   3.323  13.706  0.4358  0.8827  0.0617
19706TIP3    H180533   3.778   3.370  13.745  0.6569  1.1790  0.1239
19706TIP3    H280534   3.927   3.380  13.720  0.6686  0.6054 -0.0508
19707TIP3   OH280535   0.492   0.113   0.914 -0.1890  0.1689  0.4005
19707TIP3    H180536   0.450   0.199   0.925 -0.9865 -0.1247 -0.2767
19707TIP3    H280537   0.439   0.054   0.967  1.1929  0.3130  2.0281
19708TIP3   OH280538   6.495   1.892  15.722 -0.1593  0.1408 -0.0256
19708TIP3    H180539   6.424   1.953  15.703 -0.3382  0.3062  1.1112
19708TIP3    H280540   6.523   1.860  15.636 -1.4944  0.1981 -0.4981
19709TIP3   OH280541   5.324   2.803  16.783 -0.0069 -0.2475  0.2903
19709TIP3    H180542   5.349   2.729  16.728  0.2345  0.8109 -1.0988
19709TIP3    H280543   5.239   2.831  16.748 -1.8378 -1.9716  3.0482
19710TIP3   OH280544   6.046   3.682   5.779  0.4597  0.4561  0.6707
19710TIP3    H180545   6.109   3.624   5.736 -0.5801  0.0662 -0.4023
19710TIP3    H280546   6.090   3.767   5.783  0.6389  0.5036 -1.2075
19711TIP3   OH280547   2.947   0.810  11.896  0.2970  0.0652 -0.0026
19711TIP3    H180548   2.878   0.764  11.848  0.9966 -0.9742 -0.0376
19711TIP3    H280549   2.954   0.763  11.979  4.5008 -3.3742 -1.9387
19712TIP3   OH280550   6.157   5.458   4.623 -0.2892  0.6121 -0.0729
19712TIP3    H180551   6.099   5.522   4.583 -1.5283 -0.9974 -0.9821
19712TIP3    H280552   6.222   5.439   4.554  0.7501  1.6583  0.5831
19713TIP3   OH280553   5.890   0.531  16.679  0.0579  0.3090 -0.1661
19713TIP3    H180554   5.882   0.475  16.602  0.5491  0.0504 -0.0341
19713TIP3    H280555   5.975   0.574  16.670  1.2793 -1.5981  1.4302
19714TIP3   OH280556   6.541   5.289   4.738 -0.1467  0.4571  0.1390
19714TIP3    H180557   6.629   5.253   4.753 -0.9639 -1.4235  0.6927
19714TIP3    H280558   6.550   5.383   4.754  1.7632  0.3067  0.1380
19715TIP3   OH280559   4.989   4.896   1.795 -0.0268 -0.4207  0.6839
19715TIP3    H180560   5.027   4.811   1.770 -0.7774 -0.3988 -0.5848
19715TIP3    H280561   5.064   4.955   1.799  0.2417 -0.6303 -0.6889
19716TIP3   OH280562   2.638   0.835   4.140 -0.1351  0.0789 -0.4887
19716TIP3    H180563   2.633   0.744   4.110 -0.1526 -0.6225  1.4698
19716TIP3    H280564   2.730   0.847   4.163 -0.0121  0.7786 -1.2966
19717TIP3   OH280565   3.512   6.482   2.294 -0.7091  0.0171 -0.5036
19717TIP3    H180566   3.515   6.387   2.279 -0.6965 -0.1424  0.4519
19717TIP3    H280567   3.587   6.499   2.352 -2.1064  0.2160  1.3238
19718TIP3   OH280568   5.415   0.826   4.398 -0.3071 -0.5392  0.0165
19718TIP3    H180569   5.345   0.869   4.349  0.6387 -0.0682 -0.9463
19718TIP3    H280570   5.440   0.890   4.464  0.6521  0.1622 -0.9992
19719TIP3   OH280571   1.481   2.394  13.108  0.4400 -0.0307  0.1245
19719TIP3    H180572   1.512   2.304  13.118  0.9407  0.1661  0.3505
19719TIP3    H280573   1.518   2.422  13.024 -0.3837 -0.3057 -0.3342
19720TIP3   OH280574   1.491   5.701   5.204  0.4583  0.2228 -0.0390
19720TIP3    H180575   1.531   5.672   5.122  1.8828  0.6228  0.4838
19720TIP3    H280576   1.435   5.774   5.180  0.1743 -0.2284 -0.7719
19721TIP3   OH280577   6.088   5.554  16.277  0.5455 -0.1684  0.2754
19721TIP3    H180578   6.118   5.464  16.272 -0.0929 -0.3410 -0.8119
19721TIP3    H280579   6.054   5.564  16.366 -3.7601 -2.4816 -0.8274
19722TIP3   OH280580   5.788   2.192   6.511  0.2741  0.1138  0.1331
19722TIP3    H180581   5.815   2.132   6.441 -0.7171  2.6429 -2.6391
19722TIP3    H280582   5.868   2.240   6.533  0.3434  0.1284 -0.1417
19723TIP3   OH280583   1.128   0.234   0.860 -0.3073  0.2479 -0.5209
19723TIP3    H180584   1.108   0.253   0.951 -0.9543  0.4561 -0.7076
19723TIP3    H280585   1.182   0.155   0.864 -0.2509  0.3111  0.0456
19724TIP3   OH280586   2.994   3.638  13.542 -0.4085  0.4719  0.1918
19724TIP3    H180587   3.070   3.650  13.599  0.5825 -1.0605 -0.7409
19724TIP3    H280588   2.950   3.560  13.576 -0.0217 -0.2340 -0.8825
19725TIP3   OH280589   5.254   3.835   7.028  0.0363  0.2888 -0.0496
19725TIP3    H180590   5.313   3.810   6.957  0.9341  0.7811  0.5079
19725TIP3    H280591   5.303   3.814   7.108 -0.5843  0.6063  0.4218
19726TIP3   OH280592   6.476   2.778  16.313  0.0358  0.3786  0.5191
19726TIP3    H180593   6.463   2.767  16.219  0.3154  0.3875  0.4761
19726TIP3    H280594   6.390   2.803  16.347 -0.7225 -2.2509  0.6831
19727TIP3   OH280595   4.275   4.900   1.846 -1.0435 -0.6042  0.4286
19727TIP3    H180596   4.295   4.852   1.926 -2.4393 -1.1642  0.4770
19727TIP3    H280597   4.264   4.991   1.875 -1.1774 -0.7410  0.8231
19728TIP3   OH280598   0.710   3.767  13.734  0.0738  0.4777 -0.6672
19728TIP3    H180599   0.618   3.773  13.711 -0.3620 -0.0186  0.7988
19728TIP3    H280600   0.724   3.674  13.752  0.7709  0.5952 -0.5735
19729TIP3   OH280601   3.787   2.349   3.651  0.3057  0.2548 -0.3393
19729TIP3    H180602   3.810   2.342   3.744  1.7878  1.3035 -0.5938
19729TIP3    H280603   3.868   2.327   3.605 -0.5699 -0.8011 -1.4102
19730TIP3   OH280604   5.011   2.201   3.624  0.3286 -0.6445  0.0757
19730TIP3    H180605   4.981   2.213   3.714  1.8039 -0.8716  0.6222
19730TIP3    H280606   5.061   2.119   3.626  2.8183  0.7687 -0.2567
19731TIP3   OH280607   1.957   2.454   5.471  0.0332 -0.5758 -0.0875
19731TIP3    H180608   1.975   2.371   5.426  0.1622 -0.6889  0.1745
19731TIP3    H280609   2.028   2.512   5.444 -0.5000 -0.2856 -0.9312
19732TIP3   OH280610   2.401   6.126  13.101 -0.5233  0.2677 -0.0836
19732TIP3    H180611   2.384   6.136  13.007 -0.6500  2.7190  0.1318
19732TIP3    H280612   2.315   6.119  13.140 -0.5607  1.1884  0.0084
19733TIP3   OH280613   3.554   0.994   5.590 -0.5411 -0.7551  0.5359
19733TIP3    H180614   3.495   0.961   5.658 -1.5257  1.3159  0.7646
19733TIP3    H280615   3.563   0.922   5.529 -1.4480 -1.9099  1.7019
19734TIP3   OH280616   3.287   3.915  15.715  0.2507 -0.5638 -0.6750
19734TIP3    H180617   3.295   3.883  15.805  0.7415 -1.3251 -0.9792
19734TIP3    H280618   3.298   3.837  15.661 -0.5718 -0.2009 -1.3871
19735TIP3   OH280619   5.731   0.105  16.170 -0.1679 -0.0919 -0.2212
19735TIP3    H180620   5.768   0.077  16.086 -0.1755  0.0047 -0.2575
19735TIP3    H280621   5.733   0.201  16.165  1.5710 -0.0542  0.6471
19736TIP3   OH280622   3.717   3.514   2.306 -0.0723  0.1704  0.0503
19736TIP3    H180623   3.702   3.430   2.262 -1.6689  0.2084  0.4480
19736TIP3    H280624   3.761   3.490   2.387  3.7084  0.1722 -1.8072
19737TIP3   OH280625   3.738   1.956  15.871  0.4508  0.2919  0.0101
19737TIP3    H180626   3.788   1.946  15.952 -1.8466  0.5687  1.5637
19737TIP3    H280627   3.801   1.990  15.808  2.3672 -0.0857  1.6322
19738TIP3   OH280628   3.218   2.633  15.954  0.4268  0.0844  0.5678
19738TIP3    H180629   3.188   2.676  15.874  1.1908  2.2552  1.3711
19738TIP3    H280630   3.183   2.544  15.948  2.5059 -0.6950 -3.3398
19739TIP3   OH280631   2.279   4.628   1.765 -0.5893  0.1710 -0.1593
19739TIP3    H180632   2.286   4.581   1.682 -0.3481  1.4651 -0.9012
19739TIP3    H280633   2.324   4.571   1.828  2.3456  0.6919 -1.6010
19740TIP3   OH280634   0.114   6.337  13.821  0.4072 -0.2593  0.1453
19740TIP3    H180635   0.175   6.380  13.761 -2.0500  1.9468 -0.9544
19740TIP3    H280636   0.067   6.274  13.767 -1.4079  1.3196 -0.2028
19741TIP3   OH280637   2.805   6.477   4.909  0.0837  0.3495  0.1820
19741TIP3    H180638   2.849   6.550   4.953 -2.7074  0.7234  2.6821
19741TIP3    H280639   2.852   6.399   4.938  1.0887  0.9137  0.1150
19742TIP3   OH280640   1.608   1.410   6.494  0.4015  0.6344  0.0138
19742TIP3    H180641   1.649   1.482   6.542 -1.8499  0.2443  2.8739
19742TIP3    H280642   1.542   1.377   6.555 -0.5447 -2.0578 -2.2811
19743TIP3   OH280643   4.468   4.424   4.063 -0.0945  0.4647  0.1841
19743TIP3    H180644   4.374   4.434   4.046 -0.2835  0.1431  0.9776
19743TIP3    H280645   4.508   4.501   4.023 -0.9197  1.6512  1.5288
19744TIP3   OH280646   4.198   4.759  14.972  0.3301 -0.0556 -0.6918
19744TIP3    H180647   4.180   4.667  14.952 -2.4023  0.1655  0.4017
19744TIP3    H280648   4.138   4.808  14.916  0.5644  1.0000 -0.0542
19745TIP3   OH280649   5.352   0.522   4.893  0.1112 -0.4742 -0.3967
19745TIP3    H180650   5.403   0.464   4.836 -0.0602 -0.4600 -0.5663
19745TIP3    H280651   5.302   0.577   4.833  0.6979  0.2450 -0.2526
19746TIP3   OH280652   6.173   0.136  14.970  0.2906 -0.2719  0.3590
19746TIP3    H180653   6.103   0.201  14.967  1.8087  1.5326  1.8788
19746TIP3    H280654   6.143   0.071  15.033 -0.5925 -0.2665 -0.0453
19747TIP3   OH280655   1.456   1.441   4.382  0.5826 -0.2004  0.4141
19747TIP3    H180656   1.504   1.431   4.300 -0.0884 -0.1288  0.0088
19747TIP3    H280657   1.415   1.355   4.396 -0.8367  0.3225 -0.3115
19748TIP3   OH280658   2.986   3.355   5.818 -0.0928 -0.0171 -0.6814
19748TIP3    H180659   3.079   3.331   5.824 -0.0674  0.3327  0.3801
19748TIP3    H280660   2.971   3.412   5.893 -1.5180 -1.2497  0.0139
19749TIP3   OH280661   1.645   3.169  12.998 -0.5663 -0.1981  0.6469
19749TIP3    H180662   1.635   3.077  12.975  2.0770 -0.8035  1.5813
19749TIP3    H280663   1.568   3.212  12.960 -2.7392 -2.9962  1.5693
19750TIP3   OH280664   6.610   0.020   3.905 -0.0922  0.0724  0.0712
19750TIP3    H180665   6.701  -0.006   3.893  0.3388  1.0412  1.0464
19750TIP3    H280666   6.594   0.085   3.836 -0.6795 -1.5105 -1.3476
19751TIP3   OH280667   1.592   4.457   0.337  0.2297  0.5711  0.0960
19751TIP3    H180668   1.639   4.377   0.359  0.4311  1.1188  1.8663
19751TIP3    H280669   1.512   4.453   0.390  0.5936  1.8478  0.8059
19752TIP3   OH280670   4.441   5.098  16.290  0.2390 -0.7107 -0.6088
19752TIP3    H180671   4.424   5.191  16.301 -0.9342 -1.0227  0.4476
19752TIP3    H280672   4.467   5.089  16.198 -0.4080  0.5542 -0.9319
19753TIP3   OH280673   1.633   0.247   0.476 -0.3770  0.1413 -0.2755
19753TIP3    H180674   1.596   0.322   0.430 -0.6668  0.1442 -0.0421
19753TIP3    H280675   1.601   0.171   0.428  1.2946  0.1867 -1.5514
19754TIP3   OH280676   5.907   2.479   3.602  0.5337  0.2910  0.6347
19754TIP3    H180677   5.943   2.398   3.639  0.5323  0.4101  0.8988
19754TIP3    H280678   5.982   2.520   3.558 -0.2260 -1.8091 -3.1056
19755TIP3   OH280679   5.442   1.931  11.518  0.1019 -0.0631 -0.3456
19755TIP3    H180680   5.449   1.931  11.422 -0.3745 -0.1012 -0.3840
19755TIP3    H280681   5.355   1.897  11.535  1.1170 -2.5506  0.2038
19756TIP3   OH280682   0.045   1.991  14.340  0.0132  0.4761  0.2357
19756TIP3    H180683   0.112   1.923  14.350 -0.3899  0.1449  0.7783
19756TIP3    H280684   0.089   2.061  14.291  0.7860  0.3054  0.6618
19757TIP3   OH280685   4.481   5.503   0.811  0.1100 -0.1518  0.1123
19757TIP3    H180686   4.576   5.496   0.804  0.3973  2.3696  0.4999
19757TIP3    H280687   4.451   5.512   0.721  0.4048  0.3457  0.0560
19758TIP3   OH280688   4.778   2.730   4.591 -0.0040 -0.4859  0.4889
19758TIP3    H180689   4.732   2.647   4.605 -0.2486 -0.3290  0.6194
19758TIP3    H280690   4.844   2.733   4.660 -1.5842  0.5587  2.0497
19759TIP3   OH280691   2.597   3.438  17.281  0.5342  0.2529 -0.2475
19759TIP3    H180692   2.660   3.499  17.318 -1.9066  2.5439  0.3537
19759TIP3    H280693   2.606   3.449  17.186  0.5280  1.1070 -0.1507
19760TIP3   OH280694   0.112   0.966   2.053  0.1934 -0.0203  0.0277
19760TIP3    H180695   0.032   1.011   2.026 -0.4655 -2.2479 -2.0578
19760TIP3    H280696   0.133   0.908   1.979  2.4234 -1.2257  1.5003
19761TIP3   OH280697   0.770   3.719   2.319  0.2016 -0.0443 -0.6671
19761TIP3    H180698   0.759   3.678   2.233  1.1066  2.4360 -2.0356
19761TIP3    H280699   0.858   3.693   2.347 -0.3251 -1.3647 -0.1469
19762TIP3   OH280700   5.550   5.486   5.575 -0.2530 -0.0223  0.3812
19762TIP3    H180701   5.530   5.469   5.483  0.3667  0.7580  0.0844
19762TIP3    H280702   5.532   5.579   5.587  1.9007  0.4439  0.4023
19763TIP3   OH280703   6.577   1.819  14.199 -0.2009  0.1389 -0.2736
19763TIP3    H180704   6.616   1.893  14.246 -1.3375  0.4149  0.2880
19763TIP3    H280705   6.623   1.743  14.233  0.0012  0.4734  0.2280
19764TIP3   OH280706   0.000   3.768  14.900  0.1796  0.0164  0.1591
19764TIP3    H180707   0.028   3.820  14.824 -0.2560  0.5726  0.3748
19764TIP3    H280708   0.047   3.685  14.890 -0.7043 -0.3466 -1.3194
19765TIP3   OH280709   4.616   1.418   4.286  0.1727  0.6183  0.1185
19765TIP3    H180710   4.630   1.335   4.241 -2.2140 -0.9270  1.9783
19765TIP3    H280711   4.577   1.475   4.219 -2.1377 -1.2179 -0.2340
19766TIP3   OH280712   1.611   1.335   5.980  0.0180 -0.0651  0.2294
19766TIP3    H180713   1.576   1.315   6.066 -0.4031  3.2154  0.9591
19766TIP3    H280714   1.703   1.309   5.985  0.6923  2.3973  2.6844
19767TIP3   OH280715   2.154   5.608   0.565 -0.0641 -0.8681  0.9331
19767TIP3    H180716   2.160   5.646   0.652  0.4062  1.3014  0.0247
19767TIP3    H280717   2.113   5.676   0.512  0.0938 -1.9498 -0.6607
19768TIP3   OH280718   5.139   5.989  14.561 -0.1650  0.2571  0.1372
19768TIP3    H180719   5.102   6.029  14.640 -0.3837  0.3600 -0.0149
19768TIP3    H280720   5.063   5.962  14.511 -0.0283  0.2904 -0.0884
19769TIP3   OH280721   2.883   5.440  15.013  0.5462  0.7284 -0.7897
19769TIP3    H180722   2.901   5.530  14.987  1.4882  0.0521 -2.6694
19769TIP3    H280723   2.825   5.406  14.945 -0.1594  0.0311  0.1371
19770TIP3   OH280724   4.234   5.108  11.931 -0.2907 -0.6586 -0.3092
19770TIP3    H180725   4.279   5.027  11.955  0.9357  0.3020  0.8002
19770TIP3    H280726   4.169   5.121  12.000 -0.9805 -1.0537 -0.8748
19771TIP3   OH280727   1.783   1.897   0.181  0.4660 -1.3214 -0.1724
19771TIP3    H180728   1.737   1.877   0.100 -0.5420 -2.8649  0.7216
19771TIP3    H280729   1.718   1.941   0.236  1.2261 -0.0221 -0.2861
19772TIP3   OH280730   6.235   6.526   4.080 -0.4448 -0.1553 -0.0755
19772TIP3    H180731   6.264   6.464   4.013  0.5902 -0.5230  0.6990
19772TIP3    H280732   6.144   6.545   4.056 -0.2530 -0.6541 -1.2996
19773TIP3   OH280733   2.351   5.581   0.966 -0.0622 -0.2252 -0.2266
19773TIP3    H180734   2.314   5.661   0.930  0.2003 -0.6843 -1.5775
19773TIP3    H280735   2.305   5.510   0.920 -2.4329 -1.0106  2.9722
19774TIP3   OH280736   0.830   3.135  15.397  0.2453  0.0648  0.3491
19774TIP3    H180737   0.828   3.111  15.490  1.1608 -0.3133  0.2832
19774TIP3    H280738   0.904   3.086  15.362 -1.5419 -1.7526 -1.1236
19775TIP3   OH280739   3.053   4.280  14.255  0.4641  0.1767 -0.0148
19775TIP3    H180740   3.131   4.304  14.305  1.6357 -1.4787 -0.9903
19775TIP3    H280741   2.995   4.240  14.320  1.3539 -0.5947  0.3220
19776TIP3   OH280742   1.577   0.497   1.811  0.0028  0.2275 -0.4018
19776TIP3    H180743   1.514   0.434   1.848  2.4199 -1.7681  0.6373
19776TIP3    H280744   1.569   0.575   1.866 -1.1191 -0.2195  0.0892
19777TIP3   OH280745   3.447   2.402  15.661 -0.6754  0.4053  0.2560
19777TIP3    H180746   3.383   2.447  15.606 -1.9568 -0.2278  1.1956
19777TIP3    H280747   3.397   2.368  15.735  0.9128  0.7633  1.5652
19778TIP3   OH280748   2.889   6.597  16.633 -0.1804  0.0824  0.1927
19778TIP3    H180749   2.951   6.552  16.691  0.1205  1.0572  0.6385
19778TIP3    H280750   2.841   6.656  16.691 -2.3184 -1.4184  0.0731
19779TIP3   OH280751   0.623   6.222  16.107  0.1773 -0.0378 -0.1218
19779TIP3    H180752   0.609   6.290  16.173  2.0727  0.0534  0.2661
19779TIP3    H280753   0.577   6.253  16.030  0.4636  1.3828  0.2550
19780TIP3   OH280754   0.849   3.455  13.098 -0.1275  0.1720  0.0360
19780TIP3    H180755   0.925   3.407  13.130 -0.2569 -0.9085 -1.2002
19780TIP3    H280756   0.782   3.388  13.086 -0.4784  0.7214 -1.2277
19781TIP3   OH280757   1.915   3.777   2.716  0.7069  0.2115 -0.0553
19781TIP3    H180758   1.983   3.842   2.695 -0.1347  1.4166  0.8179
19781TIP3    H280759   1.834   3.828   2.719 -0.1156 -1.0506 -0.1944
19782TIP3   OH280760   0.150   2.474  14.145 -0.4434  0.2467 -0.0126
19782TIP3    H180761   0.230   2.454  14.096  0.5504 -0.5605  1.8443
19782TIP3    H280762   0.181   2.490  14.234 -2.2046  1.5235  0.4053
19783TIP3   OH280763   1.880   5.097  12.751 -0.0487 -0.2054  0.4978
19783TIP3    H180764   1.958   5.043  12.737 -0.3947 -0.2071 -1.7606
19783TIP3    H280765   1.823   5.076  12.677 -1.2470  1.4551  0.8989
19784TIP3   OH280766   5.499   4.512   2.096 -0.0260  0.1736 -0.6648
19784TIP3    H180767   5.534   4.436   2.049 -0.8330 -0.8025  0.2614
19784TIP3    H280768   5.426   4.542   2.041  1.7777  1.8371 -2.2852
19785TIP3   OH280769   1.273   1.994   3.523 -0.1862 -0.2082  0.3222
19785TIP3    H180770   1.319   1.919   3.484 -0.3268 -0.5596  0.8237
19785TIP3    H280771   1.251   1.965   3.612  0.0177  0.5325  0.6205
19786TIP3   OH280772   5.195   3.407   4.969  0.3020 -0.1894 -0.7371
19786TIP3    H180773   5.276   3.450   4.995 -0.2856  1.2723 -1.2269
19786TIP3    H280774   5.148   3.394   5.052 -0.1892  1.5712 -0.7075
19787TIP3   OH280775   2.220   1.906   3.856  0.2044 -0.3171 -0.3238
19787TIP3    H180776   2.233   1.939   3.767  2.9079 -1.3284 -0.4047
19787TIP3    H280777   2.221   1.984   3.911  0.3178  0.1778 -1.0137
19788TIP3   OH280778   1.074   5.990  13.178  0.2411  0.0276 -0.3112
19788TIP3    H180779   1.167   5.978  13.197  0.4375 -0.4689 -1.4886
19788TIP3    H280780   1.038   6.032  13.256  1.4050  0.0020  0.2490
19789TIP3   OH280781   1.457   1.064   0.193 -0.4073  0.2749  0.5281
19789TIP3    H180782   1.524   1.075   0.126  0.2975 -0.2531  1.1251
19789TIP3    H280783   1.377   1.096   0.153  0.4764  2.3584  0.3188
19790TIP3   OH280784   3.730   3.467  16.641  0.3153  0.0325 -0.1536
19790TIP3    H180785   3.765   3.378  16.638 -0.2999 -0.2678  0.8238
19790TIP3    H280786   3.740   3.492  16.733 -1.1557  0.2834 -0.0429
19791TIP3   OH280787   0.603   6.365  11.127 -0.1502  0.0026 -0.1527
19791TIP3    H180788   0.620   6.271  11.139  1.8938  0.4562  0.8626
19791TIP3    H280789   0.621   6.380  11.034  2.0546 -0.1693  0.2104
19792TIP3   OH280790   3.125   6.172   2.659  0.5896 -0.5531 -0.1267
19792TIP3    H180791   3.177   6.209   2.731  0.6836 -0.6204 -0.1605
19792TIP3    H280792   3.041   6.149   2.700  1.4304 -2.7416  0.4951
19793TIP3   OH280793   1.764   6.423  14.672 -0.4999  0.1432 -0.2243
19793TIP3    H180794   1.822   6.379  14.610  0.2268 -1.0007  1.2151
19793TIP3    H280795   1.749   6.510  14.633  1.4388  0.1486 -1.0735
19794TIP3   OH280796   3.097   2.838   5.394  0.1211  0.1185 -0.1291
19794TIP3    H180797   3.041   2.903   5.436 -0.6843 -0.4473 -0.3276
19794TIP3    H280798   3.134   2.788   5.466  0.7011  0.7368  0.0233
19795TIP3   OH280799   1.244   1.605   3.257  0.4686 -0.0840  0.0228
19795TIP3    H180800   1.279   1.675   3.311 -1.5234  1.2991 -0.3501
19795TIP3    H280801   1.198   1.650   3.186  0.3423 -1.7985 -1.0401
19796TIP3   OH280802   4.698   3.183  14.998  0.5143 -0.2206  0.2758
19796TIP3    H180803   4.752   3.127  14.941  0.0841 -0.4664  0.1065
19796TIP3    H280804   4.609   3.152  14.984  0.2216  0.7302 -0.0885
19797TIP3   OH280805   4.988   6.381   3.051  0.4428 -0.7959  0.3938
19797TIP3    H180806   4.939   6.311   3.008 -1.0726 -0.3626  1.3474
19797TIP3    H280807   5.001   6.447   2.982 -0.9956 -0.5945  0.2708
19798TIP3   OH280808   5.788   2.356  15.006 -0.5759 -0.2898  0.5474
19798TIP3    H180809   5.818   2.444  14.983 -0.6405 -0.0989  1.1851
19798TIP3    H280810   5.706   2.371  15.053 -0.1966 -0.6491  1.3287
19799TIP3   OH280811   4.117   0.534  15.984 -0.2962 -0.6048  0.1613
19799TIP3    H180812   4.127   0.439  15.980  1.2763 -0.6015  2.1405
19799TIP3    H280813   4.180   0.568  15.920 -0.9471 -0.8780 -0.6348
19800TIP3   OH280814   6.358   5.390  12.792 -0.2250  0.1065 -0.8605
19800TIP3    H180815   6.339   5.384  12.699  0.4250  1.5189 -1.1132
19800TIP3    H280816   6.377   5.300  12.819 -0.8326 -0.3751 -1.9894
19801TIP3   OH280817   1.997   1.335   3.216 -0.2758 -0.5019  0.1506
19801TIP3    H180818   2.041   1.298   3.139 -0.4336  2.1617 -1.3400
19801TIP3    H280819   2.067   1.378   3.265 -0.4062 -0.9777  0.7721
19802TIP3   OH280820   3.957   1.891   1.612 -0.3947  0.4949 -0.5532
19802TIP3    H180821   4.014   1.893   1.689 -1.0462  1.1586 -0.0733
19802TIP3    H280822   3.943   1.798   1.594  0.7474  0.3211 -0.6208
19803TIP3   OH280823   5.369   4.239  12.568  0.6320  0.6201  0.3623
19803TIP3    H180824   5.440   4.291  12.530 -0.4840  2.0606  0.1584
19803TIP3    H280825   5.311   4.304  12.609 -1.3396 -0.3325 -0.7591
19804TIP3   OH280826   5.589   1.589  12.679 -0.4339 -0.3400 -0.0883
19804TIP3    H180827   5.601   1.666  12.734 -0.3116 -0.2106 -0.2946
19804TIP3    H280828   5.678   1.560  12.657 -0.4775 -0.5909  0.0572
19805TIP3   OH280829   0.702   1.769  13.203  0.2346 -0.2534  0.3532
19805TIP3    H180830   0.778   1.813  13.241 -0.2711  1.2863 -0.3332
19805TIP3    H280831   0.739   1.697  13.153  1.2911  0.6906 -0.2787
19806TIP3   OH280832   2.459   2.934   1.721  0.9845  0.2881 -0.4082
19806TIP3    H180833   2.525   2.949   1.789 -0.1190  1.0303  0.5381
19806TIP3    H280834   2.378   2.967   1.759 -0.6123 -3.2410 -0.3389
19807TIP3   OH280835   1.226   1.861  17.244 -0.2173  0.2761 -0.1893
19807TIP3    H180836   1.231   1.785  17.301 -0.4733 -0.1783 -0.7615
19807TIP3    H280837   1.244   1.936  17.301  2.8193 -0.3908 -0.0776
19808TIP3   OH280838   3.370   2.221  11.905  0.1854 -0.3387  0.2503
19808TIP3    H180839   3.304   2.158  11.875 -0.6685  1.3977 -1.7153
19808TIP3    H280840   3.340   2.246  11.993 -1.1176 -0.5107 -0.1151
19809TIP3   OH280841   3.602   4.675  12.878  0.2114 -0.4751  0.1722
19809TIP3    H180842   3.526   4.694  12.932 -0.1255  2.5199 -1.1170
19809TIP3    H280843   3.660   4.750  12.892  1.9976 -1.6793 -0.4441
19810TIP3   OH280844   5.034   6.544   1.547  0.1512 -0.0717 -0.1141
19810TIP3    H180845   4.972   6.596   1.600  1.4758  1.2711  0.1955
19810TIP3    H280846   5.046   6.596   1.467 -0.0602 -0.9387 -0.7157
19811TIP3   OH280847   0.822   6.700   2.174 -0.3876  0.1009  0.2686
19811TIP3    H180848   0.844   6.789   2.202 -0.0178  0.2817 -0.5381
19811TIP3    H280849   0.845   6.698   2.081  1.6845 -1.4719  0.7235
19812TIP3   OH280850   2.127   1.396  12.552 -0.2548 -0.4321  0.1322
19812TIP3    H180851   2.204   1.374  12.605 -0.6896 -0.7033  0.6622
19812TIP3    H280852   2.091   1.474  12.593 -0.3515 -0.3952 -0.0226
19813TIP3   OH280853   3.346   6.711  14.724  0.0122  0.0179 -0.5415
19813TIP3    H180854   3.412   6.680  14.786 -0.9466 -0.2386  0.3788
19813TIP3    H280855   3.395   6.764  14.661  0.8824  1.2476  1.0944
19814TIP3   OH280856   2.396   1.163  15.119  0.5795 -0.2384 -0.2869
19814TIP3    H180857   2.370   1.076  15.149 -1.5279  0.6483  0.6434
19814TIP3    H280858   2.489   1.169  15.140  0.3249 -1.5484  1.4414
19815TIP3   OH280859   6.502   2.786   3.648  0.4147  0.6690  0.5273
19815TIP3    H180860   6.465   2.699   3.630 -1.7276  1.7652 -0.8792
19815TIP3    H280861   6.566   2.772   3.718 -0.5769 -1.8715  1.0177
19816TIP3   OH280862   6.033   5.564  12.084 -0.2614  0.2156  0.7521
19816TIP3    H180863   6.073   5.613  12.012 -0.6307 -1.3306 -0.5837
19816TIP3    H280864   6.106   5.539  12.140  0.0900  1.0563  0.6870
19817TIP3   OH280865   2.126   3.911   3.004 -0.1703 -0.4205 -0.0354
19817TIP3    H180866   2.139   3.866   2.921 -0.9004  0.7348 -0.7908
19817TIP3    H280867   2.210   3.903   3.049  0.1481 -1.2954 -0.7418
19818TIP3   OH280868   1.582   5.107   0.393  0.3393 -0.8646  0.2031
19818TIP3    H180869   1.579   5.044   0.321 -0.0143  0.1108 -0.6574
19818TIP3    H280870   1.609   5.190   0.352  1.0066 -0.4893  1.3412
19819TIP3   OH280871   5.666   2.471  16.334  0.1319 -0.4780 -0.2205
19819TIP3    H180872   5.719   2.484  16.255 -0.2665 -0.5553 -0.5001
19819TIP3    H280873   5.712   2.402  16.382  3.4322  2.9689  2.2640
19820TIP3   OH280874   3.078   5.185   0.415  0.2267  0.3746 -0.0027
19820TIP3    H180875   2.998   5.181   0.468 -0.9608  1.7557 -1.5984
19820TIP3    H280876   3.149   5.180   0.479 -1.0611 -1.8250  1.4200
19821TIP3   OH280877   5.134   5.412  11.074  0.4935  0.1245  0.3124
19821TIP3    H180878   5.067   5.480  11.087  0.5666 -0.3650  4.4687
19821TIP3    H280879   5.216   5.455  11.097  1.0612 -0.4704 -0.5373
19822TIP3   OH280880   0.631   1.928  16.158  0.5558 -0.2787  0.2791
19822TIP3    H180881   0.587   1.945  16.075  0.3024 -0.1534  0.4363
19822TIP3    H280882   0.677   2.010  16.178  1.2954 -0.5796 -0.1396
19823TIP3   OH280883   1.284   5.899  14.377  0.0324  0.1680 -0.6866
19823TIP3    H180884   1.285   5.947  14.295  1.2882  1.7184  0.1929
19823TIP3    H280885   1.253   5.962  14.442 -0.5548 -0.9147  0.1300
19824TIP3   OH280886   4.294   1.468   2.308  0.3756  0.1020  0.1466
19824TIP3    H180887   4.329   1.556   2.323  0.9145  0.0266 -0.5909
19824TIP3    H280888   4.337   1.414   2.373 -0.1925  0.4344  0.8089
19825TIP3   OH280889   5.007   0.120  12.634 -0.5437  0.9116  0.3729
19825TIP3    H180890   4.994   0.174  12.555  0.4144  0.8401  0.1614
19825TIP3    H280891   4.968   0.171  12.704 -0.6563  1.3639 -0.0115
19826TIP3   OH280892   6.063   4.244   4.478 -0.4458 -0.2814 -0.3429
19826TIP3    H180893   6.146   4.282   4.450 -0.5970  0.5147  0.2748
19826TIP3    H280894   6.085   4.193   4.556 -0.4087 -0.7448 -0.6451
19827TIP3   OH280895   6.253   4.088   3.128  0.1257  0.0197  0.0308
19827TIP3    H180896   6.273   4.082   3.034  1.5650  1.3580  0.2131
19827TIP3    H280897   6.338   4.098   3.170 -0.6186  1.5789  1.2724
19828TIP3   OH280898   6.275   6.070   1.206 -0.0631  0.1415  0.1173
19828TIP3    H180899   6.304   6.035   1.290  1.7077 -1.6244 -1.1408
19828TIP3    H280900   6.235   6.154   1.228 -0.3296 -0.5755  2.7843
19829TIP3   OH280901   6.743   6.684  14.596 -0.0259 -0.2031 -0.1346
19829TIP3    H180902   6.718   6.777  14.592 -1.7205 -0.6125  0.1947
19829TIP3    H280903   6.661   6.638  14.609  0.9295 -1.6839  0.9779
19830TIP3   OH280904   1.246   1.468  15.293 -0.4176  0.5290 -0.0090
19830TIP3    H180905   1.245   1.470  15.389  1.0995  0.4831  0.0309
19830TIP3    H280906   1.197   1.545  15.267  0.6890  1.5535  0.8340
19831TIP3   OH280907   2.112   2.932   3.070 -0.1901 -0.2486  0.9342
19831TIP3    H180908   2.046   2.962   3.133  0.1802  1.1120  0.7066
19831TIP3    H280909   2.166   2.870   3.120  0.5990  1.4093  2.2371
19832TIP3   OH280910   6.593   5.460  11.323  0.3281 -0.2200 -0.0777
19832TIP3    H180911   6.512   5.486  11.280 -0.2077 -1.1250  0.3490
19832TIP3    H280912   6.605   5.368  11.298  1.4418  0.0146 -0.4641
19833TIP3   OH280913   1.038   6.425  12.646  0.0999 -0.1466  0.3271
19833TIP3    H180914   0.959   6.379  12.675  0.3948  0.0880  1.5792
19833TIP3    H280915   1.057   6.487  12.717  0.0360  1.5304 -1.0566
19834TIP3   OH280916   2.926   6.241   2.346  0.1234  0.1857  0.2000
19834TIP3    H180917   2.941   6.188   2.268 -1.3121 -0.1216  0.1120
19834TIP3    H280918   3.012   6.244   2.389  0.5435 -1.0828 -0.4892
19835TIP3   OH280919   0.036   5.796   2.962 -0.5219 -0.6476 -0.0889
19835TIP3    H180920  -0.011   5.714   2.948  0.8651 -1.4662 -0.2020
19835TIP3    H280921  -0.032   5.860   2.982 -1.6661 -1.7547 -0.3029
19836TIP3   OH280922   0.321   3.324  13.254  0.5197  0.2188  0.2956
19836TIP3    H180923   0.294   3.364  13.337 -1.3185 -0.2271 -0.0438
19836TIP3    H280924   0.343   3.234  13.277  0.8503  0.3299  0.4255
19837TIP3   OH280925   4.573   0.122  16.288  0.1105 -0.2646  0.0261
19837TIP3    H180926   4.500   0.165  16.244  0.0497 -1.4781 -1.1192
19837TIP3    H280927   4.541   0.105  16.377  0.0202  1.6819  0.4063
19838TIP3   OH280928   3.230   2.663   3.604  0.2091  0.2357  0.1241
19838TIP3    H180929   3.179   2.624   3.675 -1.5357  0.6493 -0.8269
19838TIP3    H280930   3.220   2.758   3.617  2.6501  0.4180  1.1957
19839TIP3   OH280931   6.647   1.903  12.321  0.1227  0.1584 -0.4644
19839TIP3    H180932   6.646   1.828  12.262  0.8007  1.0046 -1.5930
19839TIP3    H280933   6.716   1.882  12.384 -0.6328 -0.7701  0.0765
19840TIP3   OH280934   3.708   3.138  12.029 -0.4712 -0.1952  0.3109
19840TIP3    H180935   3.728   3.115  11.939 -0.0136 -1.2089  0.6488
19840TIP3    H280936   3.614   3.156  12.030 -0.7728 -1.6281 -0.0990
19841TIP3   OH280937   0.564   1.476   5.063 -0.3398  0.1343  0.6906
19841TIP3    H180938   0.582   1.433   4.980 -0.2384  0.1111  0.7247
19841TIP3    H280939   0.596   1.416   5.130  1.1760  0.9004  0.6994
19842TIP3   OH280940   6.051   5.490  11.123  0.4110  0.3742  0.5860
19842TIP3    H180941   6.043   5.581  11.093  0.2147  1.0775  2.6007
19842TIP3    H280942   5.998   5.440  11.061  1.3780  1.4636 -1.2004
19843TIP3   OH280943   4.426   3.957  13.531 -0.4671 -0.0298 -0.0630
19843TIP3    H180944   4.472   3.879  13.499 -0.5326 -1.0567  2.1994
19843TIP3    H280945   4.485   4.029  13.510 -0.3099 -0.6622 -2.0258
19844TIP3   OH280946   6.233   0.433  15.170  0.4571  0.8714 -0.1635
19844TIP3    H180947   6.158   0.426  15.228  0.2293 -1.8441 -0.6590
19844TIP3    H280948   6.195   0.439  15.082  0.7965  0.3875 -0.3487
19845TIP3   OH280949   5.449   4.544   1.247  0.5735  0.6214 -0.0588
19845TIP3    H180950   5.465   4.594   1.167  0.2916  0.2963 -0.3235
19845TIP3    H280951   5.528   4.491   1.259  0.7762  0.9543  0.0944
19846TIP3   OH280952   3.338   6.052  16.599 -0.0566 -0.0921  0.0822
19846TIP3    H180953   3.245   6.073  16.589 -0.0270  0.2451  0.4767
19846TIP3    H280954   3.340   5.959  16.621 -0.2894 -0.1470 -0.1304
19847TIP3   OH280955   5.771   5.646   5.422 -0.0886 -0.2957 -0.1923
19847TIP3    H180956   5.695   5.681   5.375  0.6133  1.0795 -0.3222
19847TIP3    H280957   5.815   5.722   5.459  1.8825 -0.9453 -1.0775
19848TIP3   OH280958   0.914   2.568   0.396  0.6066  0.2331  0.5775
19848TIP3    H180959   0.937   2.479   0.424  1.9487  0.6259  0.8065
19848TIP3    H280960   0.961   2.580   0.314 -2.5440 -0.5685 -1.5179
19849TIP3   OH280961   3.477   0.901  11.354  0.0759 -0.1678 -0.4231
19849TIP3    H180962   3.558   0.951  11.360  0.6609 -1.2054  0.7699
19849TIP3    H280963   3.500   0.826  11.298  0.2017 -0.8934  0.5676
19850TIP3   OH280964   3.835   5.884  15.194 -0.0642 -0.0624  0.0087
19850TIP3    H180965   3.745   5.903  15.169 -1.3782 -2.2420  2.5616
19850TIP3    H280966   3.859   5.954  15.254 -0.7585 -0.3990  0.7006
19851TIP3   OH280967   1.963   5.979  12.840 -0.3591 -0.4722  0.0041
19851TIP3    H180968   1.966   5.989  12.745 -0.4893  1.2688  0.1453
19851TIP3    H280969   2.052   6.003  12.869 -0.2730 -1.1485  0.3165
19852TIP3   OH280970   5.854   1.919   3.041  0.2798 -0.4056  0.1402
19852TIP3    H180971   5.801   1.997   3.024  0.4757 -0.2051  0.4272
19852TIP3    H280972   5.928   1.927   2.981 -0.5571 -1.2496 -1.0523
19853TIP3   OH280973   1.217   6.441  12.414  0.0657  0.3340  0.3758
19853TIP3    H180974   1.271   6.511  12.377 -0.2581 -0.1430 -1.0710
19853TIP3    H280975   1.208   6.464  12.506  0.1557  2.0726 -0.0144
19854TIP3   OH280976   5.198   5.184  13.033  0.0830  0.3226  0.1484
19854TIP3    H180977   5.127   5.184  13.097  0.2482 -0.3782  0.3459
19854TIP3    H280978   5.173   5.250  12.969 -0.8963 -0.1214  0.0581
19855TIP3   OH280979   5.721   6.726  16.658 -0.3406  0.1485  0.1532
19855TIP3    H180980   5.645   6.763  16.703 -0.2657  0.3301  0.1308
19855TIP3    H280981   5.697   6.635  16.640 -0.6770  0.2934 -0.1407
19856TIP3   OH280982   2.696   4.711  16.269  0.0535 -1.0826 -0.7479
19856TIP3    H180983   2.771   4.727  16.327 -0.6738 -1.1101  0.2280
19856TIP3    H280984   2.718   4.756  16.188  0.9817 -0.8070 -0.3506
19857TIP3   OH280985   4.921   5.959   1.612 -0.0433 -0.3013  0.2400
19857TIP3    H180986   4.926   5.957   1.516 -2.1646 -1.2356  0.0960
19857TIP3    H280987   4.931   6.052   1.634 -0.7012  0.0919 -1.0013
19858TIP3   OH280988   0.968   2.726   2.092 -0.5146  0.1746  0.0386
19858TIP3    H180989   0.941   2.810   2.055 -0.7176  0.4713  0.8399
19858TIP3    H280990   1.059   2.716   2.064 -1.3181 -0.7347 -2.5166
19859TIP3   OH280991   5.912   2.466   2.724  0.3861  0.5232  0.0343
19859TIP3    H180992   5.823   2.440   2.747  0.0760  0.2878 -1.3245
19859TIP3    H280993   5.968   2.412   2.780 -0.3006  1.4696  1.7012
19860TIP3   OH280994   5.460   3.458  15.103 -0.5167  0.2233 -0.0589
19860TIP3    H180995   5.483   3.490  15.190 -0.1481  0.4850 -0.2516
19860TIP3    H280996   5.544   3.431  15.064 -0.4953  1.2893 -0.8079
19861TIP3   OH280997   1.889   5.583  14.294 -0.5952 -0.2127  0.1858
19861TIP3    H180998   1.843   5.520  14.350 -3.2588  1.9093  0.5605
19861TIP3    H280999   1.955   5.622  14.352 -1.3236 -0.1494  0.9931
19862TIP3   OH281000   1.775   2.362  13.104  0.1472  0.9043  0.5419
19862TIP3    H181001   1.856   2.326  13.140 -0.0608  1.1010  1.2269
19862TIP3    H281002   1.775   2.453  13.132  0.3423  1.2809 -0.6108
19863TIP3   OH281003   0.862   3.035   5.741 -0.6558 -0.2641 -0.3018
19863TIP3    H181004   0.867   2.970   5.811 -0.3215 -1.4806 -1.4144
19863TIP3    H281005   0.886   2.987   5.662  0.4441  1.4015 -1.0497
19864TIP3   OH281006   3.255   3.245   7.154  0.0083 -0.3856 -0.7385
19864TIP3    H181007   3.299   3.304   7.215 -0.3182  0.1883 -1.0511
19864TIP3    H281008   3.193   3.301   7.107 -0.9094 -1.1467 -0.4569
19865TIP3   OH281009   2.422   4.207   1.237  0.4286 -0.2259 -0.3705
19865TIP3    H181010   2.364   4.244   1.303  1.8600  0.7548  0.4106
19865TIP3    H281011   2.445   4.120   1.271 -0.1197 -0.3810 -0.3977
19866TIP3   OH281012   3.925   5.979  13.683 -0.1877  0.7257 -0.0330
19866TIP3    H181013   3.919   5.921  13.607  2.3390 -0.8974  0.8661
19866TIP3    H281014   3.950   6.064  13.648 -1.3345  0.6179 -1.1638
19867TIP3   OH281015   6.357   4.505  14.479 -0.3227 -0.4287 -0.0434
19867TIP3    H181016   6.272   4.536  14.449 -0.2210 -1.0654 -1.0548
19867TIP3    H281017   6.396   4.580  14.523 -0.4656  0.6008 -1.5817
19868TIP3   OH281018   2.965   2.649  14.104 -0.3461  0.3123  0.1765
19868TIP3    H181019   2.913   2.599  14.167  0.3496  0.8088  1.1698
19868TIP3    H281020   3.003   2.720  14.155 -0.1379  0.9988 -0.9139
19869TIP3   OH281021   1.109   2.485  10.499 -0.3391 -0.2857 -0.3453
19869TIP3    H181022   1.189   2.437  10.522  0.3653  0.4879 -1.0953
19869TIP3    H281023   1.102   2.477  10.404 -1.3652 -0.6406 -0.2523
19870TIP3   OH281024   4.029   3.629   5.597 -0.3219  0.6836 -0.9037
19870TIP3    H181025   4.013   3.723   5.602 -1.3147  0.4590  1.2624
19870TIP3    H281026   4.101   3.613   5.659 -2.5194 -0.3563  1.5823
19871TIP3   OH281027   1.393   2.012  10.846 -0.4927  0.4354 -0.1159
19871TIP3    H181028   1.316   1.984  10.796  0.1777  1.0121 -1.5573
19871TIP3    H281029   1.466   1.965  10.804 -0.0423 -0.0193  1.1498
19872TIP3   OH281030   2.531   4.442   5.258 -0.3795 -0.2696 -0.4148
19872TIP3    H181031   2.621   4.459   5.231 -0.3315  2.7814  1.2154
19872TIP3    H281032   2.539   4.378   5.328  0.7964  1.3660  1.0264
19873TIP3   OH281033   2.161   4.446   0.115  0.3867  0.4711 -0.0722
19873TIP3    H181034   2.091   4.427   0.053  1.2627  1.2422 -1.3398
19873TIP3    H281035   2.129   4.411   0.198 -2.0012  1.7533 -0.3551
19874TIP3   OH281036   3.428   3.066   6.983 -0.0901  0.6422 -0.5466
19874TIP3    H181037   3.347   3.016   6.984 -1.5728  2.9138 -0.2845
19874TIP3    H281038   3.420   3.128   7.056  2.3406  0.2963  0.1207
19875TIP3   OH281039   1.682   5.074  16.016  0.0284  0.2041 -0.5937
19875TIP3    H181040   1.630   5.014  16.069 -0.7954  1.4767  0.0889
19875TIP3    H281041   1.631   5.155  16.014  1.0089  0.8273 -1.6593
19876TIP3   OH281042   3.459   0.724   3.172  0.4249  0.2321  0.2078
19876TIP3    H181043   3.504   0.681   3.244 -0.7145  0.0829  0.8490
19876TIP3    H281044   3.480   0.671   3.095  0.8109 -0.2016  0.6078
19877TIP3   OH281045   6.407   1.674   4.294  0.0228 -0.5055 -0.2913
19877TIP3    H181046   6.406   1.677   4.198 -0.3474  0.6989 -0.2646
19877TIP3    H281047   6.500   1.665   4.316  0.4474  2.0180 -0.7403
19878TIP3   OH281048   6.023   0.207   3.112  0.0482  1.2515 -0.2300
19878TIP3    H181049   6.063   0.269   3.173  0.5275 -0.9195  1.8159
19878TIP3    H281050   6.045   0.121   3.147 -0.1964 -0.1541 -3.1824
19879TIP3   OH281051   0.890   2.215   1.213  0.8666  0.1899 -0.0890
19879TIP3    H181052   0.885   2.310   1.226 -1.7375  0.2749 -1.1228
19879TIP3    H281053   0.888   2.204   1.118 -1.7166 -0.9169  0.0120
19880TIP3   OH281054   1.339   3.892   5.590 -0.5722 -0.2784  0.0041
19880TIP3    H181055   1.304   3.981   5.584 -1.5557 -0.7273 -1.0583
19880TIP3    H281056   1.330   3.869   5.683  0.6518  1.0893  0.5055
19881TIP3   OH281057   5.189   6.122  15.412 -0.7121  0.2595 -0.0900
19881TIP3    H181058   5.108   6.086  15.449 -1.4751  0.2302 -1.6850
19881TIP3    H281059   5.161   6.163  15.330  0.7144  1.3150 -0.0872
19882TIP3   OH281060   6.744   3.815   5.739  0.0965  0.3807 -0.5248
19882TIP3    H181061   6.807   3.790   5.672  1.0453 -0.1700  0.5363
19882TIP3    H281062   6.797   3.852   5.810 -0.7813  0.0369  0.3469
19883TIP3   OH281063   3.547   4.956   1.728 -0.4188  0.4100 -0.5705
19883TIP3    H181064   3.611   5.020   1.696  0.9138 -0.9464 -0.7195
19883TIP3    H281065   3.591   4.871   1.718 -2.0372 -0.5168 -0.1423
19884TIP3   OH281066   3.918   3.239  16.635  0.0809 -0.0542  0.0126
19884TIP3    H181067   4.012   3.222  16.641  0.5183  1.4263 -1.6212
19884TIP3    H281068   3.882   3.163  16.590  0.5479 -0.5130  0.4131
19885TIP3   OH281069   1.742   2.754   0.464  0.3253 -0.2247  0.4320
19885TIP3    H181070   1.678   2.689   0.493 -0.8925  0.8990  0.3672
19885TIP3    H281071   1.798   2.768   0.540 -1.0192  0.5191  1.3396
19886TIP3   OH281072   6.265   0.517   0.224 -0.1354  0.5202 -0.7394
19886TIP3    H181073   6.171   0.524   0.209 -0.4688  2.8856  1.7101
19886TIP3    H281074   6.273   0.455   0.297  0.2252  0.3770 -0.8933
19887TIP3   OH281075   5.098   3.867  13.599 -0.5061 -0.1979  0.3586
19887TIP3    H181076   5.095   3.871  13.694 -4.0046 -0.8887  0.4465
19887TIP3    H281077   5.022   3.919  13.571 -1.1172 -2.0930 -1.8465
19888TIP3   OH281078   0.528   6.631  12.887 -0.7367  0.2792 -0.7178
19888TIP3    H181079   0.514   6.676  12.970 -0.7399  1.2809 -1.2427
19888TIP3    H281080   0.444   6.588  12.868 -0.8605  0.3812 -0.4078
19889TIP3   OH281081   5.372   3.819   2.090 -0.0479  0.4620 -0.0867
19889TIP3    H181082   5.319   3.759   2.037  1.0459 -0.0708 -0.6155
19889TIP3    H281083   5.413   3.763   2.156  0.6333  0.6921 -0.3101
19890TIP3   OH281084   3.063   0.339  13.561 -0.2361  0.0636  0.6128
19890TIP3    H181085   3.006   0.372  13.491  0.3518 -0.1978  0.0041
19890TIP3    H281086   3.148   0.377  13.542  0.1426 -0.7372  0.6608
19891TIP3   OH281087   5.766   1.597  15.627 -0.0881  0.0898 -0.2427
19891TIP3    H181088   5.746   1.592  15.533 -0.5359 -1.4411 -0.1028
19891TIP3    H281089   5.717   1.672  15.658 -2.6694 -1.3045 -0.6492
19892TIP3   OH281090   6.256   6.202   2.398 -0.1198 -0.4473  0.6285
19892TIP3    H181091   6.296   6.245   2.473  0.8134 -1.5329  0.7875
19892TIP3    H281092   6.277   6.258   2.323 -1.1216  0.6823  1.1511
19893TIP3   OH281093   3.652   5.845   1.960  0.0232  0.5767 -0.3618
19893TIP3    H181094   3.734   5.805   1.932  0.0138  0.6050 -0.4285
19893TIP3    H281095   3.596   5.771   1.986  0.1297  0.5665 -0.1566
19894TIP3   OH281096   4.231   0.042   3.262  0.0741  0.5828 -0.3418
19894TIP3    H181097   4.293  -0.018   3.303  0.5138  2.5273  2.0393
19894TIP3    H281098   4.263   0.051   3.172  0.1692 -2.3780 -0.6956
19895TIP3   OH281099   3.668   2.159   5.901  0.3068 -0.1015  0.0540
19895TIP3    H181100   3.694   2.219   5.972  1.9907 -1.1383  0.3682
19895TIP3    H281101   3.751   2.131   5.862 -0.3748 -2.5875  0.2411
19896TIP3   OH281102   6.197   3.700  14.246 -0.4535  0.2328 -0.5307
19896TIP3    H181103   6.259   3.772  14.258  0.1003 -0.0286 -1.6512
19896TIP3    H281104   6.180   3.669  14.335  0.2843  0.9239 -0.1228
19897TIP3   OH281105   0.283   3.230  16.496 -0.3853  0.0976  0.5189
19897TIP3    H181106   0.251   3.224  16.405  1.3390  0.4063 -0.1431
19897TIP3    H281107   0.239   3.157  16.541 -1.9827  0.4938 -0.3040
19898TIP3   OH281108   1.866   0.904   1.279  0.0070 -0.0460 -0.1550
19898TIP3    H181109   1.853   0.994   1.308 -1.9084 -1.1499  2.8891
19898TIP3    H281110   1.803   0.893   1.207 -0.4816  0.7760  0.1315
19899TIP3   OH281111   6.105   0.862  12.326  0.3570  0.1496 -0.0161
19899TIP3    H181112   6.165   0.850  12.252  1.8166 -1.6044  1.3483
19899TIP3    H281113   6.042   0.791  12.318 -1.9538  2.2329 -1.6793
19900TIP3   OH281114   4.025   0.922  14.801 -0.2007 -0.1533  0.7436
19900TIP3    H181115   4.071   0.896  14.881 -1.2654 -0.3745  1.3044
19900TIP3    H281116   3.941   0.955  14.831 -0.0393  1.1961 -0.1903
19901TIP3   OH281117   4.469   6.048   5.282 -0.4759 -0.1869  0.3423
19901TIP3    H181118   4.388   6.085   5.247 -0.6188  1.2223  2.0412
19901TIP3    H281119   4.472   6.077   5.373  1.0407 -1.7385  0.8612
19902TIP3   OH281120   2.155   4.365   4.053 -0.5740 -0.1577  0.3701
19902TIP3    H181121   2.083   4.406   4.101 -0.8118  1.1529 -1.0332
19902TIP3    H281122   2.172   4.425   3.980 -0.0168 -1.8896 -0.9832
19903TIP3   OH281123   5.690   2.032  17.110  0.4972  0.5441  0.4328
19903TIP3    H181124   5.738   2.008  17.031 -1.3557  1.7757 -1.1569
19903TIP3    H281125   5.733   2.112  17.141 -0.9063  2.1837 -1.5201
19904TIP3   OH281126   3.222   4.247   4.962 -0.2593  0.3885 -0.0010
19904TIP3    H181127   3.171   4.173   4.929 -1.9592  1.2114  0.7020
19904TIP3    H281128   3.198   4.320   4.905 -1.1765  1.1732  1.3263
19905TIP3   OH281129   2.339   5.821   2.660  0.2608 -0.1668  0.4058
19905TIP3    H181130   2.428   5.831   2.693  0.4509  1.3588 -0.4738
19905TIP3    H281131   2.286   5.881   2.714 -0.0175 -0.1823  0.1542
19906TIP3   OH281132   5.891   1.493  12.579  0.0778  0.3813  0.5714
19906TIP3    H181133   5.935   1.424  12.530  0.1576 -0.4532  1.7722
19906TIP3    H281134   5.932   1.491  12.666 -1.0538  0.8281  1.1415
19907TIP3   OH281135   1.206   6.607  15.337  0.2033  0.0296  0.6206
19907TIP3    H181136   1.145   6.560  15.280 -1.0800  0.1676  1.8401
19907TIP3    H281137   1.227   6.545  15.406 -1.8222  1.2678  2.4749
19908TIP3   OH281138   5.104   6.152   2.136 -0.5523  0.2417  0.5683
19908TIP3    H181139   5.072   6.071   2.175 -0.3058 -0.3685 -0.4838
19908TIP3    H281140   5.025   6.195   2.103 -0.7200  0.5985  1.3875
19909TIP3   OH281141   2.413   0.393  16.618 -0.0636 -0.1894 -0.1160
19909TIP3    H181142   2.456   0.334  16.558  0.5958 -0.3112  0.4637
19909TIP3    H281143   2.461   0.475  16.610  0.1491 -0.2614  0.3716
19910TIP3   OH281144   5.482   3.945   6.140  0.2636  0.1674  0.3362
19910TIP3    H181145   5.488   3.906   6.226 -1.1450  0.5475  0.6469
19910TIP3    H281146   5.388   3.963   6.129  0.3749 -0.1271 -1.3823
19911TIP3   OH281147   5.628   5.822  13.304 -0.0193 -0.8100  0.4868
19911TIP3    H181148   5.664   5.751  13.250 -4.0387 -0.2627 -3.5853
19911TIP3    H281149   5.564   5.779  13.361  1.3652 -0.9285  2.0118
19912TIP3   OH281150   3.309   4.508   2.490  0.0841  0.2378  0.5596
19912TIP3    H181151   3.231   4.552   2.525  1.9053  3.6096  0.7714
19912TIP3    H281152   3.380   4.538   2.547  1.6507 -2.4365  0.1418
19913TIP3   OH281153   6.356   3.138  15.211  0.3653  0.1391 -0.8285
19913TIP3    H181154   6.329   3.161  15.122 -0.6757  0.6385 -0.4064
19913TIP3    H281155   6.324   3.048  15.223  0.1145  0.2303 -0.8106
19914TIP3   OH281156   5.929   0.236   2.468 -0.1611 -0.0162  0.4965
19914TIP3    H181157   5.908   0.298   2.538 -0.7785 -0.0360  0.3377
19914TIP3    H281158   5.844   0.212   2.432  0.0878 -0.7895  0.4109
19915TIP3   OH281159   1.260   0.698  12.173  0.4170  0.5915  0.5785
19915TIP3    H181160   1.207   0.709  12.252  0.8118 -0.1466  0.9545
19915TIP3    H281161   1.351   0.696  12.204  0.5203 -1.0093  0.2712
19916TIP3   OH281162   3.017   4.163  11.892 -0.5710  0.3036  0.3372
19916TIP3    H181163   2.927   4.132  11.884 -0.5810  0.3474  0.2810
19916TIP3    H281164   3.013   4.234  11.957 -0.9481  1.7843 -1.2249
19917TIP3   OH281165   4.813   3.444  11.295 -0.2049 -0.0149  0.1599
19917TIP3    H181166   4.895   3.399  11.314  0.3188  0.6696 -0.4140
19917TIP3    H281167   4.778   3.399  11.218  0.8354  1.1595 -1.0531
19918TIP3   OH281168   0.351   4.595  14.284  0.4935  0.4915  0.4936
19918TIP3    H181169   0.300   4.562  14.211  2.0534 -0.1721 -0.3246
19918TIP3    H281170   0.397   4.672  14.249 -0.2521  1.3580  1.3454
19919TIP3   OH281171   3.738   1.068   1.236 -0.0871  0.5757 -0.3298
19919TIP3    H181172   3.757   1.132   1.304  0.8043  0.1015 -0.1161
19919TIP3    H281173   3.651   1.035   1.257  0.3024  0.2176  0.7590
19920TIP3   OH281174   6.629   0.270   0.763 -1.1046 -0.4297  0.2194
19920TIP3    H181175   6.674   0.313   0.690 -2.7685 -0.1365 -0.6687
19920TIP3    H281176   6.624   0.338   0.831  0.1860 -0.6142  0.5245
19921TIP3   OH281177   3.088   1.576   5.401  0.2186  0.3085  0.2882
19921TIP3    H181178   3.120   1.487   5.384  1.7570  1.1017 -1.2005
19921TIP3    H281179   3.154   1.633   5.363 -0.3712  2.1361  1.8542
19922TIP3   OH281180   4.969   4.120   6.335  0.3402  0.4390 -0.0710
19922TIP3    H181181   4.944   4.139   6.425  0.6958 -0.8620  0.3232
19922TIP3    H281182   4.891   4.141   6.283  0.1491  1.2314  0.5335
19923TIP3   OH281183   2.062   6.352   6.982  0.5391 -0.3796  0.2062
19923TIP3    H181184   2.092   6.268   7.016 -0.8130 -0.6296  0.8632
19923TIP3    H281185   2.127   6.377   6.917  1.0808 -1.8203  0.1699
19924TIP3   OH281186   3.390   5.613  12.687 -0.0199  0.1412 -0.0245
19924TIP3    H181187   3.389   5.620  12.592  0.4209 -0.4153 -0.0753
19924TIP3    H281188   3.454   5.544  12.706 -1.3041 -0.9154  0.6157
19925TIP3   OH281189   6.306   1.862   4.459 -0.3337  0.6596  0.1317
19925TIP3    H181190   6.343   1.824   4.379 -0.0399 -1.0370  1.0328
19925TIP3    H281191   6.212   1.869   4.441 -0.4984 -1.1626  0.1688
19926TIP3   OH281192   0.726   1.943  11.539  0.9085  0.4416  0.1959
19926TIP3    H181193   0.783   1.867  11.524  1.5620  1.1648 -1.0906
19926TIP3    H281194   0.640   1.905  11.559  1.5863 -0.6497  1.1490
19927TIP3   OH281195   0.482   1.595  13.822  0.5641 -0.2238 -0.3447
19927TIP3    H181196   0.402   1.553  13.790  0.1094  0.8278 -0.6425
19927TIP3    H281197   0.549   1.571  13.759  1.2427 -3.5603  1.4507
19928TIP3   OH281198   4.586   6.682  13.440 -0.2065  0.1815  0.1614
19928TIP3    H181199   4.560   6.718  13.525  1.9993 -0.3983  1.1581
19928TIP3    H281200   4.639   6.751  13.401  2.1290 -0.9806  1.0810
19929TIP3   OH281201   0.205   3.379  11.220  0.1631  0.3795  0.2704
19929TIP3    H181202   0.246   3.464  11.206  0.3754  0.1079 -0.8415
19929TIP3    H281203   0.274   3.315  11.199  0.9515 -0.1506  3.7428
19930TIP3   OH281204   6.152   4.536  12.872  0.1857  0.5946 -0.1012
19930TIP3    H181205   6.245   4.521  12.885 -0.3407 -3.5322  0.2851
19930TIP3    H281206   6.119   4.564  12.958  0.5851 -1.6208  0.8373
19931TIP3   OH281207   1.648   6.367  14.355 -0.2725  0.0467  0.1333
19931TIP3    H181208   1.731   6.399  14.391 -1.0643  1.6694  0.6228
19931TIP3    H281209   1.599   6.446  14.335 -2.0511 -0.8830  0.6720
19932TIP3   OH281210   1.221   6.436  15.035  0.6880 -0.8232  1.0315
19932TIP3    H181211   1.136   6.437  15.077 -1.3434 -1.6566 -2.5979
19932TIP3    H281212   1.245   6.343  15.031  1.2649 -0.6844  1.1223
19933TIP3   OH281213   1.510   3.694   3.578 -0.8200 -0.4947  0.4734
19933TIP3    H181214   1.494   3.603   3.553 -0.6219 -0.8520  1.5846
19933TIP3    H281215   1.501   3.743   3.497 -1.4495 -1.4413 -0.0515
19934TIP3   OH281216   1.802   2.321  14.343  0.4411 -0.0632  0.2534
19934TIP3    H181217   1.751   2.397  14.369 -0.3246 -0.3500 -0.3725
19934TIP3    H281218   1.744   2.246  14.356  0.5464 -0.3561 -0.8258
19935TIP3   OH281219   5.281   6.741   0.679  0.3199 -0.0581 -0.3547
19935TIP3    H181220   5.216   6.748   0.749  0.8999 -0.9955  0.3053
19935TIP3    H281221   5.358   6.787   0.712  0.1935  0.5591 -0.8978
19936TIP3   OH281222   5.880   1.185  16.629  0.3264 -0.4519 -0.5554
19936TIP3    H181223   5.812   1.189  16.695  0.1963 -0.0588 -0.7118
19936TIP3    H281224   5.887   1.092  16.608  0.0787 -0.5317 -0.2941
19937TIP3   OH281225   6.061   1.447   2.616  0.4612  0.0576  0.0151
19937TIP3    H181226   6.013   1.493   2.547  0.2569 -0.7752 -0.4104
19937TIP3    H281227   6.057   1.506   2.692  0.7773  1.0371 -0.6991
19938TIP3   OH281228   3.791   5.593   2.635 -0.2811  0.4442 -0.0253
19938TIP3    H181229   3.879   5.628   2.649 -0.1543 -0.3610  1.3727
19938TIP3    H281230   3.805   5.505   2.600 -0.5126  0.1636  0.5754
19939TIP3   OH281231   5.089   0.755  13.787  0.3368 -0.2165 -0.1133
19939TIP3    H181232   5.173   0.763  13.743 -0.2002  0.0619 -1.1056
19939TIP3    H281233   5.099   0.806  13.868  1.4154 -0.9649  0.2434
19940TIP3   OH281234   6.102   0.936   3.871  0.4871  0.7347 -0.0190
19940TIP3    H181235   6.172   0.991   3.835  2.2181 -1.1397  0.2931
19940TIP3    H281236   6.145   0.886   3.940 -1.2950 -0.1615  0.4852
19941TIP3   OH281237   1.635   0.834   2.755 -0.2907  0.6535 -0.1782
19941TIP3    H181238   1.672   0.762   2.807 -0.2096  0.1229 -0.9602
19941TIP3    H281239   1.543   0.839   2.783  0.6064  2.9597  2.8862
19942TIP3   OH281240   1.181   2.567  12.882 -0.5010  0.5262  0.2962
19942TIP3    H181241   1.164   2.481  12.922  0.5595 -0.1446 -0.6478
19942TIP3    H281242   1.101   2.616  12.897 -1.3017 -0.7845  0.4749
19943TIP3   OH281243   5.728   5.210   1.224 -0.0516  0.3126  0.0060
19943TIP3    H181244   5.639   5.209   1.189  0.0642 -2.3591 -0.4172
19943TIP3    H281245   5.783   5.227   1.148 -0.1350  1.0667  0.1075
19944TIP3   OH281246   2.007   5.891   4.817 -0.5121  0.1099 -0.9737
19944TIP3    H181247   2.056   5.932   4.888  0.1583 -1.8386 -0.2273
19944TIP3    H281248   1.988   5.962   4.756  1.6017  1.2991 -0.3447
19945TIP3   OH281249   0.243   5.826  12.842 -0.0997  0.2843 -0.0379
19945TIP3    H181250   0.306   5.894  12.865  0.3114  0.5845 -1.9588
19945TIP3    H281251   0.282   5.779  12.769 -2.0138  0.3483 -1.1714
19946TIP3   OH281252   0.076   2.509   5.390  0.0240 -0.2120  0.4797
19946TIP3    H181253   0.051   2.511   5.298  1.3302 -1.8605  0.0543
19946TIP3    H281254   0.161   2.552   5.394 -0.2982  0.3992  1.0328
19947TIP3   OH281255   4.211   4.811  13.860  0.0722 -0.1890 -0.2866
19947TIP3    H181256   4.184   4.720  13.872  0.7803 -0.2584  0.9311
19947TIP3    H281257   4.307   4.808  13.865  0.3176  0.2496 -3.0883
19948TIP3   OH281258   1.940   4.568   0.903 -0.2693  0.1739  1.0331
19948TIP3    H181259   1.880   4.493   0.906 -0.2559  0.1130  0.0382
19948TIP3    H281260   1.943   4.599   0.993  1.6530 -2.5313  2.0353
19949TIP3   OH281261   0.935   4.490  12.735 -0.5489  0.3504  0.0487
19949TIP3    H181262   0.847   4.472  12.701  0.0066 -1.3456 -0.5524
19949TIP3    H281263   0.982   4.408  12.726  0.7378  0.8755  1.5708
19950TIP3   OH281264   0.784   1.527   3.329  0.0480  0.0762  0.6640
19950TIP3    H181265   0.778   1.576   3.246  0.9512  0.4220  0.7951
19950TIP3    H281266   0.861   1.471   3.318 -0.6599 -0.9264  0.7305
19951TIP3   OH281267   0.824   2.810   5.451  0.0130 -0.3167  0.0337
19951TIP3    H181268   0.763   2.846   5.516  0.2316 -1.0182  0.6442
19951TIP3    H281269   0.772   2.797   5.373 -0.2423  0.6149  0.0406
19952TIP3   OH281270   1.615   6.113   6.381  0.3579 -0.1880  0.1121
19952TIP3    H181271   1.593   6.127   6.473 -2.0052 -0.4097 -0.3534
19952TIP3    H281272   1.611   6.018   6.370 -2.2396 -0.0480 -0.7784
19953TIP3   OH281273   6.478   3.580   1.646  0.0901 -0.0560  0.3203
19953TIP3    H181274   6.530   3.653   1.613 -0.0625 -0.6468 -1.3234
19953TIP3    H281275   6.543   3.519   1.681  0.3262  0.2283  0.3878
19954TIP3   OH281276   6.356   5.821  13.457  0.4815  0.3228  0.3406
19954TIP3    H181277   6.260   5.812  13.455  0.4361  0.4126  1.4347
19954TIP3    H281278   6.370   5.907  13.496  1.0115  0.8617 -0.9892
19955TIP3   OH281279   6.405   2.975  17.213  0.0717 -0.1755  0.4359
19955TIP3    H181280   6.487   2.947  17.172 -1.0506 -0.0013 -2.0946
19955TIP3    H281281   6.364   2.894  17.243  1.0428 -0.2756  1.6045
19956LIG      S81282   4.067   3.073  15.942 -0.9977 -0.2402  0.3197
19956LIG      O81283   3.263   3.084  16.775  0.0456 -0.1454 -0.0071
19956LIG     N181284   3.956   3.264  16.170 -0.4486 -0.2196 -0.0983
19956LIG     N281285   3.225   3.199  16.501  0.3466  0.3349  0.1607
19956LIG     N381286   3.277   2.877  16.692  0.1629  0.1596 -0.5149
19956LIG     N481287   3.316   2.871  16.816  0.3411  0.2802 -0.3139
19956LIG     C181288   3.832   3.210  16.246  0.1007  0.5156  0.0523
19956LIG     C281289   3.932   3.305  16.031 -0.1907  0.0829 -0.0696
19956LIG     C381290   4.077   3.197  16.197 -0.3433 -0.3374 -0.1976
19956LIG     C481291   3.734   3.318  16.275 -0.9581  0.3176  0.0076
19956LIG     C581292   3.917   3.180  15.942  0.2480 -0.6517  0.2641
19956LIG     C681293   4.075   3.066  16.119 -0.3536  0.0399 -0.9742
19956LIG     C781294   3.603   3.271  16.338 -0.1658  0.0119 -0.0479
19956LIG     C881295   3.602   3.213  16.467 -0.0018 -0.4257  0.3438
19956LIG     C981296   3.485   3.304  16.279  0.0572 -0.8337 -0.5109
19956LIG    C1081297   3.355   3.212  16.458  0.8075 -0.9870  0.4799
19956LIG    C1181298   3.179   3.064  16.544  0.2096  0.4391 -0.0916
19956LIG    C1281299   3.479   3.187  16.525 -0.2571 -0.1776 -0.7937
19956LIG    C1381300   3.361   3.269  16.330 -0.5356 -0.5267  0.9166
19956LIG    C1481301   3.242   3.005  16.672  0.3938  0.0482  0.0774
19956LIG    C1581302   3.211   2.958  16.431 -0.2878  0.0626 -0.6279
19956LIG    C1681303   3.306   2.992  16.867  0.7573 -0.1686 -0.4925
19956LIG    C1781304   3.329   3.024  17.009 -0.1897  0.4238  0.2755
19956LIG    C1881305   3.385   2.927  17.103  0.2727 -0.2082  0.8227
19956LIG    C1981306   3.302   3.153  17.064 -0.0204  0.9088  0.0568
19956LIG    C2081307   3.408   2.958  17.239 -0.2379  0.4803 -0.3967
19956LIG    C2181308   3.324   3.174  17.198 -0.2073 -0.9065 -0.4408
19956LIG    C2281309   3.387   3.083  17.281 -0.3821 -0.0629 -0.0170
19956LIG     H181310   3.863   3.183  16.349 -1.8849  2.0158  1.1123
19956LIG     H281311   3.793   3.119  16.195 -0.1721  0.0273  1.1101
19956LIG     H381312   4.007   3.382  16.002  0.8708 -0.7769  0.2976
19956LIG     H481313   3.836   3.361  16.035 -0.6244 -0.7053  0.8987
19956LIG     H581314   4.098   3.187  16.306  1.1644  0.3656 -0.4087
19956LIG     H681315   4.160   3.262  16.164 -1.4603  2.2026  1.6376
19956LIG     H781316   3.704   3.372  16.183  1.7357 -2.1636 -2.5053
19956LIG     H881317   3.789   3.374  16.353 -1.0464 -1.8471  1.7229
19956LIG     H981318   3.830   3.124  15.983 -2.2770  2.7447 -0.0342
19956LIG    H1081319   3.895   3.210  15.837 -2.1239 -2.4331  0.1678
19956LIG    H1181320   4.172   3.017  16.145 -0.1542  0.8232 -0.1908
19956LIG    H1281321   3.997   2.998  16.161 -0.2522  0.9257  0.7661
19956LIG    H1381322   3.695   3.203  16.522  0.5691  1.4902 -0.1855
19956LIG    H1481323   3.488   3.352  16.182 -0.1315 -0.8755 -0.5353
19956LIG    H1581324   3.071   3.059  16.569  0.7642 -1.1019  2.2513
19956LIG    H1681325   3.480   3.147  16.626  1.2165 -2.4605 -1.6231
19956LIG    H1781326   3.271   3.281  16.271  1.5541  0.2025 -2.3938
19956LIG    H1881327   3.154   3.229  16.434  0.8983  1.7596  0.1809
19956LIG    H1981328   3.154   2.863  16.440  0.3481 -0.1006  2.6389
19956LIG    H2081329   3.320   2.946  16.446 -0.6155 -1.4577  0.8195
19956LIG    H2181330   3.195   3.003  16.331  3.5129  0.2417 -1.3096
19956LIG    H2281331   3.386   2.826  17.066 -1.1652 -0.0193  0.2103
19956LIG    H2381332   3.255   3.225  16.999 -2.2180  0.7688  1.4045
19956LIG    H2481333   3.441   2.878  17.304  1.1581  1.4536  0.1520
19956LIG    H2581334   3.314   3.277  17.230 -1.2720 -0.8550 -0.9050
19956LIG    H2681335   3.408   3.122  17.380  0.4654  0.5060 -0.4065
   6.75079   6.75079  17.44556
